/*--------------------------------*- C++ -*----------------------------------*\
| =========                 |                                                 |
| \\      /  F ield         | OpenFOAM: The Open Source CFD Toolbox           |
|  \\    /   O peration     | Version:  v2012                                 |
|   \\  /    A nd           | Website:  www.openfoam.com                      |
|    \\/     M anipulation  |                                                 |
\*---------------------------------------------------------------------------*/
FoamFile
{
    version     2.0;
    format      ascii;
    class       volScalarField;
    location    "400";
    object      ddt0(omega);
}
// * * * * * * * * * * * * * * * * * * * * * * * * * * * * * * * * * * * * * //

dimensions      [0 0 -2 0 0 0 0];


internalField   nonuniform List<scalar> 
15335
(
-2.03081e-05
-6.30969e-07
-1.82769e-05
-2.18267e-06
1.31562e-06
-9.39265e-09
4.86872e-05
0.00133406
7.69466e-08
-2.27945e-05
-7.14184e-06
-3.9928e-09
3.81576e-07
0.000292501
-3.39356e-05
-0.00926489
-5.28935e-09
7.05807e-05
-5.15185e-11
7.92738e-05
9.27463e-06
1.15062e-05
4.6459e-05
-1.94055e-10
0.000229384
0.00104969
3.55917e-05
0.000777062
-1.81557e-05
2.22823e-08
-2.29533e-05
3.73029e-05
-3.62688e-09
3.56067e-08
4.83407e-09
0.00162215
0.00220756
14.4433
1.98596e-05
0.0142934
4.96038e-05
0.00396144
6.66014e-08
9.70224e-09
-5.23248e-05
-2.85143e-10
0.000273959
-3.52772e-05
4.03473e-05
3.61594e-08
-3.07873e-10
-2.77181e-05
-0.0102015
3.5588e-09
-2.77865e-09
0.000112366
-0.00380655
-2.841e-05
2.11615e-05
-4.12211e-06
-1.12946e-06
-3.24215e-05
0.000292606
4.78817e-06
-3.52905e-10
-1.97088e-09
0.000159346
3.69766e-05
8.5591e-10
-2.60849e-10
2.55926e-07
3.5802e-08
3.55227e-05
-5.54377e-06
-2.71553e-05
-8.15548e-07
8.16168e-05
6.16607e-05
3.78712e-05
1.01891e-07
1.496e-05
4.98476e-05
5.2245e-06
0.000822352
-2.90732e-05
-3.83925e-10
-8.02328e-11
6.07898e-09
3.02203e-08
4.95549e-06
2.07545e-05
0.000143092
-1.69354e-09
0.0145624
9.61427e-06
4.89748e-10
-4.97623e-10
-1.34421e-07
3.53874e-10
-5.85434e-09
1.29619e-07
-3.0978e-07
-0.000787452
2.21724e-06
2.72704e-09
5.43029e-08
-2.08787e-09
0.000308864
-0.000316591
-2.39432e-05
8.74864e-08
0.000221118
2.49064e-09
-3.8585e-09
-0.00703858
2.68209e-08
-1.9244e-06
-0.00857567
1.45267e-05
-0.00363914
2.11908e-05
-4.08409e-05
-5.11435e-06
-1.3512e-05
1.27718e-08
-1.31036e-07
0.00276371
1.60926e-08
1.26869e-05
-2.78872e-09
-3.17507e-06
-4.37049e-05
7.20474e-11
0.00140183
-3.00971e-05
2.46406e-12
7.77162e-06
-3.25965e-06
-0.00172986
0.000955165
4.94397e-05
-0.00055507
-0.000286509
-5.31141e-09
-5.65042e-06
0.785634
-3.82332e-06
4.24873e-05
0.00271563
5.11967e-06
-4.16359e-09
8.82243e-06
-1.118e-07
2.64706e-09
-1.97822e-06
4.17874e-08
-7.57361e-06
1.90656e-05
0.00105525
-2.87693e-07
-3.34127e-08
2.21372e-05
-2.16297e-05
-2.33361e-06
1.57851e-05
-5.72494e-05
-3.35794e-05
-4.31277e-10
-0.0146362
0.00164739
-0.586889
0.00268966
-1.06238e-05
2.20775e-05
-0.000119154
4.03595e-08
2.9577e-10
-3.17451e-05
0.0688695
-0.000556275
-0.000271422
0.66971
-3.8888e-06
-2.85674e-07
-1.28034e-06
-4.36863e-06
4.15843e-08
-7.29889e-06
-3.68701e-06
-2.37304e-06
3.37213e-05
0.0163202
1.03739e-08
-4.43863e-05
0.00146539
-0.00013006
-2.12138e-09
-4.33902e-05
-2.00454e-07
3.97209e-06
-1.15866e-06
0.000658177
0.00210966
2.85182e-05
1.7329e-05
-4.03602e-05
1.77156e-10
-0.00838681
-0.000184032
3.55407e-09
-2.86151e-05
1.53929e-07
-1.52335e-06
4.19881e-09
0.00225561
-0.00458376
-1.49951e-05
1.66565e-05
-0.000311083
0.0220771
1.11348e-08
2.81035e-09
-2.0317e-08
1.42728e-09
-4.6563e-05
-0.000480229
-8.79838e-11
-0.000164605
-2.33933e-06
2.97455e-05
-4.28592e-10
5.27229e-10
2.62706e-05
0.0104594
0.000375598
0.00359829
-0.00012169
-0.00026258
6.31229e-10
0.000986498
-2.71734e-05
-1.28847e-05
-3.54829e-06
-1.66452e-07
1.88769e-05
-3.8864e-10
5.06476e-08
2.65925e-05
1.25843e-05
1.53965e-05
2.16154e-05
-0.000692252
1.80577e-10
-3.98616e-10
-1.80271e-05
0.000973415
-0.000799815
-2.5238e-06
-2.1642e-10
-4.86445e-06
-2.29623e-06
-1.66926e-08
-2.73923e-10
-1.10235e-08
5.53027e-10
-3.37266e-10
-1.22682e-05
2.67162e-05
1.57064e-05
4.53564e-09
-3.36259e-05
-2.3594e-05
2.61732e-05
-4.64434e-10
7.26676e-05
-7.22731e-09
1.33163e-07
0.000238391
1.51378e-05
-6.39569e-06
0.000305965
1.02793e-06
-6.39086e-10
-0.00113274
7.12618e-09
9.59242e-06
-1.10173e-05
-8.37641e-09
-9.74787e-08
6.0755e-09
-4.793e-05
-9.78321e-10
-0.000478988
0.00095442
-7.86284e-08
-0.563519
-2.84326e-10
-5.63013e-05
5.57419e-09
-2.85439e-06
7.32732e-09
-2.80222e-05
-0.000305322
-0.000156804
1.24229e-10
7.7335e-05
-3.25197e-05
5.07953e-10
1.70838e-06
4.18027e-06
-1.59193e-06
6.57434e-10
0.000402577
-9.18902e-06
-1.51632e-05
-3.14478e-08
1.974e-08
-1.01268e-05
-0.00316691
0.00977202
0.12205
-1.10522e-10
-0.00420834
3.11731e-05
3.23181e-08
-2.04262e-06
-1.85504e-06
4.48317e-05
7.00417e-09
-5.05758e-09
-2.1344e-08
-0.000104253
2.96626e-08
-0.00010672
0.000636745
-0.00176629
0.00251218
2.6853e-05
2.86037e-05
-4.13392e-05
0.000123734
5.15321e-05
-3.55755e-10
4.09177e-05
2.13706e-08
7.08774e-07
-9.63617e-09
-0.000491407
4.70994e-10
1.41022e-05
-4.29899e-06
-9.49454e-07
5.92761e-09
0.337062
1.9752e-05
2.47514e-09
-0.000279737
-5.35183e-06
-8.14977e-08
-0.000530255
-1.28496e-08
-8.37617e-07
1.09933e-08
4.98579e-05
-8.93587e-05
0.00102254
-0.000709697
1.46497e-05
2.5213e-08
-1.06895e-10
-0.00019085
5.63448e-08
-1.61645e-05
-1.45311e-06
-5.00121e-08
0.00027539
-4.50697e-05
3.74469e-09
-0.0905205
-1.79783e-06
-7.35747e-10
-7.97596e-08
8.42564e-08
0.000121148
3.62211e-08
-5.41217e-10
7.59448e-05
0.000625479
-4.61232e-05
-6.16089e-05
-4.73023e-08
9.35543e-09
-6.71078e-10
-3.84327e-05
-2.55812e-05
0.00435651
0.00260534
3.28622e-09
0.00574767
-1.73824e-05
-0.000155245
0.000387417
3.07226e-05
3.64732e-09
-3.62661e-09
-0.000597424
-4.17483e-05
-0.0531856
0.00463475
0.000709929
0.000280877
3.62378e-05
-2.62714e-05
-7.3132e-07
-1.17034e-05
-1.40896e-05
2.13525e-05
2.1997e-08
0.0110137
0.000371148
0.000388735
1.64478e-05
-2.93295e-05
-3.66444e-10
7.89699e-05
0.000203426
1.18664e-05
-3.57429e-05
-3.25742e-08
-6.23675e-05
3.07799e-05
0.000201432
1.65097e-05
3.28123e-05
1.97287e-05
-0.00389272
-2.71134e-05
2.9818e-06
-4.55901e-11
-1.51302e-09
-7.45053e-05
-2.18137e-06
4.02166e-09
-6.00481e-05
-1.5025e-07
-0.000823462
-0.0108555
7.69015e-06
-0.000273304
0.000330776
1.89167e-05
6.59696e-05
0.00278774
-1.34533e-08
2.28692e-05
1.83688e-05
3.18323e-08
9.0955e-06
-4.48174e-06
0.000397326
-2.85055e-05
0.112327
0.00358139
-1.81125e-05
-8.20762e-08
7.66788e-08
-6.63772e-09
-7.73674e-08
-0.000636265
-1.55815e-05
7.9101e-06
-0.000377286
-4.32614e-06
1.36452e-08
-6.0346e-10
3.87278e-10
-0.000308063
-4.07576e-05
-2.32265e-06
1.14177e-05
0.00228069
-0.0107225
-1.00971e-07
7.75598e-06
-1.86202e-07
-4.42235e-10
1.42439e-07
4.0598e-05
2.95359e-09
-4.89689e-06
1.4764e-10
5.95368e-06
2.2112e-10
-9.70224e-05
5.83834
1.25429e-07
2.98395e-09
9.62646e-05
5.46328e-05
2.16236e-05
-3.93093e-05
8.43075e-09
6.74226e-06
-2.92797e-09
7.57819e-06
-2.02802e-09
3.5428e-10
1.96678e-05
-8.14842e-09
6.0802e-05
0.000326745
-1.49327e-10
7.9227e-08
9.56881e-06
-0.00162557
0.00151957
3.31523e-09
2.10234e-07
4.95654e-10
0.0495888
7.97732e-06
-3.33704e-11
-2.52937e-06
-4.85645e-06
-5.24107e-06
-5.30208e-07
-1.47267e-08
2.96929e-05
-4.03106e-05
6.45823e-06
7.24508e-06
-9.74756e-08
-2.64157e-05
0.00635016
0.00777154
-5.59214e-05
5.99075e-06
0.007813
3.96362e-06
-5.04949e-06
4.95975e-07
-0.000108346
-5.92814e-09
-2.04234e-08
5.4161e-06
-7.15567e-11
0.00198567
-0.000105658
0.00143944
-0.000157971
0.000225923
0.0727498
9.71193e-06
-1.0708e-05
-8.06479e-07
-0.000492717
-0.00200052
-3.57088e-10
2.25295e-08
-2.23395e-10
-9.34691e-08
7.26822e-06
1.18153e-09
-9.74317e-08
-3.42583e-05
0.00265723
0.000515379
-1.52436e-05
4.10911e-05
2.66768e-05
5.8572e-09
4.85857e-08
1.30563e-08
-9.49712e-06
-7.76391e-06
7.08332e-06
0.0403659
-9.02242e-10
-4.20416e-07
1.94834e-05
-6.62437e-10
-2.52892e-05
2.74136e-05
6.97873e-05
1.5071e-05
1.59321e-08
-1.02949e-07
1.22562e-06
-3.30343e-05
0.00120205
-2.13967e-08
1.90329e-11
4.61556e-11
1.56524e-08
-4.06467e-05
2.2996e-05
-0.000449938
5.8117e-06
2.38443e-08
0.000862533
1.16977e-08
2.01965e-08
3.32939e-05
-1.56012e-08
1.11565e-07
-3.05485e-06
2.78613e-10
-0.000560027
9.12253e-06
1.14015e-05
0.00193007
7.674e-06
-3.9471e-05
1.10074e-07
-2.97635e-05
0.00122394
-7.87876e-08
3.52039e-08
-9.12736e-06
8.4476e-05
3.28407e-05
1.38107e-06
-1.65167e-11
0.0446042
-1.77494e-09
8.56351e-09
1.24332e-05
-7.24298e-05
0.000103681
-1.58393e-05
2.19133e-09
-2.45936e-10
-1.19603e-10
-7.83653e-08
-8.67066e-12
3.23079e-05
-1.1765e-08
0.00131752
5.92903e-06
-4.47037e-10
-9.4867e-08
6.81411e-06
1.01043e-08
0.00273316
4.67109e-06
5.9445e-09
-0.000257509
7.89362e-10
-2.06756e-05
0.0117676
1.94601e-05
-0.000258304
1.27458e-05
-1.40217e-06
0.0027985
0.000363288
-4.24128e-11
-0.00013128
0.00319897
0.00157568
3.02486e-05
8.10552e-05
1.61026e-09
0.000133647
-1.57196e-08
-0.000211735
-2.6754e-10
7.70549e-10
-0.00588279
0.000213227
2.21365e-09
-3.7335e-08
2.65163e-10
-0.152804
2.74991e-06
-3.73801e-08
-2.4696e-06
-0.0183364
-3.42128e-06
7.49349e-10
-8.58368e-06
7.42755e-08
3.75081e-10
7.8064e-06
-1.40842e-08
4.62604e-08
4.31843e-06
1.11926e-07
-5.90798e-09
1.43031e-05
-1.47079e-07
-5.24511e-10
-1.90422e-05
0.000648809
5.87362e-11
3.78914e-10
0.000118496
5.0412e-10
3.11655e-05
-4.61257e-05
2.30134e-05
-1.77674e-05
2.25723e-09
9.23056e-05
1.49447e-05
-1.06498e-05
-7.8309e-08
-0.00261358
-3.60574e-07
2.30047e-07
0.809905
4.83729e-06
1.71031e-07
-8.54476e-05
0.000761317
5.07527e-08
2.03935e-08
2.35148e-05
-5.91875e-09
-1.05855e-07
-3.73677e-05
1.75498e-11
8.30674e-10
2.31543e-05
-0.0648509
7.69687e-05
3.85204e-06
-1.54889e-05
6.7884e-10
-1.49978e-08
0.00629439
-6.99383e-08
4.04899e-06
0.000946187
2.84425e-06
-0.000194031
2.08257e-05
-1.93941e-07
-0.00311823
-0.00221862
-0.0037414
-3.95486e-08
-0.00418545
0.00890397
0.455778
-2.42792e-09
0.000512727
-1.10635e-05
7.93099e-05
4.65533e-08
-2.05837e-06
1.63678e-05
1.26832e-05
6.57534e-08
0.0168907
-2.95988e-06
8.36974e-07
1.98933e-05
-1.73637e-09
1.19461e-08
0.00130045
4.46489e-05
1.82486e-05
-3.58086e-08
9.65626e-07
-3.85089e-10
0.00371365
-6.04308e-08
-9.17635e-08
8.01234e-05
1.49511e-11
1.00231e-06
3.13085e-08
-0.000377853
4.78287e-05
1.09118e-05
5.17163e-05
-4.49541e-08
4.11118e-09
1.76521e-05
-5.05058e-05
-9.77474e-08
-4.31911e-10
9.79115e-09
-3.94351e-05
0.00098145
-0.000109485
-2.43759e-05
-2.67546e-08
2.54235e-08
4.15578e-05
-0.00637711
5.93593e-06
-3.38457e-09
-6.09573e-05
0.000505635
7.26922e-08
-1.03328e-11
-2.51532e-08
0.00173334
0.00662254
-3.8858e-05
2.31364e-10
5.29266e-06
-1.46223e-05
-1.39655e-08
-1.31703e-08
1.02151e-05
-1.54429e-10
-1.94495e-05
0.00128878
1.34598e-09
1.22666e-07
-4.99453e-09
9.16531e-09
-4.20181e-09
1.62136e-10
-4.70819e-05
-3.90722e-06
-2.70084e-06
2.96498e-05
5.51367e-08
-5.33163e-10
4.67026e-09
8.33365e-05
-0.00667175
1.17599e-05
5.26993e-09
-4.5973e-10
2.65888e-05
4.11679e-08
-1.28356e-06
-3.3043e-08
0.000607265
-0.00161869
-9.01631e-06
8.75857e-08
-1.29953e-09
-9.2924e-06
-4.79897e-07
7.89487e-08
-3.40714e-08
-6.141e-11
-0.000598206
-3.3315e-08
6.69575e-08
4.83455e-09
1.54098e-10
-1.12641e-05
-6.75769e-08
3.06003e-10
-0.0325333
2.353e-05
0.00255764
2.57825e-05
0.000263325
-3.62342e-10
0.00111051
0.000264073
-0.338851
6.48097e-08
3.02282e-05
0.000897686
-2.44172e-08
6.49491e-06
-0.00357649
8.41519e-11
-9.33157e-05
-0.000654378
4.87764e-09
2.88765e-05
-9.13214e-10
1.8861e-08
-9.75147e-06
-3.6046e-05
-5.66352e-08
-2.1221e-06
-0.00688108
-6.0636e-10
2.01626e-07
6.0486e-05
-0.056181
0.00370103
4.98687e-10
-2.27988e-05
1.23655e-06
1.80387e-05
-8.15997e-07
-4.72635e-05
-0.00579329
-2.16043e-09
3.9206e-06
1.77468e-09
-0.00184606
4.52092e-09
1.80492e-05
-0.00124866
2.24509e-09
-2.42253e-11
2.4481e-08
7.50154e-05
-0.00185574
-4.68822e-08
4.35172e-09
-1.59819e-06
-1.8219e-09
0.0443938
-0.00222251
2.51007e-10
-2.26467e-09
-6.90264e-06
5.07987e-08
2.00034e-05
-0.05557
7.05552e-08
-8.86029e-08
-2.38606e-05
2.24601e-08
-0.000467445
-2.37947e-05
-0.000930509
6.15125e-09
2.74268e-10
-4.59294e-06
7.28291e-08
2.22924e-08
-2.79047e-06
-1.76122e-06
6.03849e-09
-0.148282
-4.32834e-10
-8.94745e-08
6.73226e-08
-1.14404e-05
8.68076e-07
-1.43331e-08
2.92194e-08
-3.53471e-05
8.2159e-09
-0.000247272
3.19646e-09
-0.00382269
-2.62546e-08
1.96757e-06
-1.60462e-07
-0.000147052
-2.89973e-06
-6.99662e-09
1.21315e-07
-3.42396e-06
-8.64175e-08
1.00195e-05
0.000541872
7.57518e-08
-1.98116e-08
-3.5918e-05
0.0987119
1.23113e-08
2.67253e-06
5.38092e-08
0.00109612
-9.16988e-06
-1.6439e-11
-3.19541e-05
8.4998e-09
1.86358e-05
0.00324905
-7.01295e-06
-5.10732e-07
3.70644e-05
-4.00125e-10
-3.22811e-06
6.79586e-08
-1.46523e-08
2.3106e-06
-1.05113e-06
-0.00297711
-4.41707e-05
1.58455e-05
-0.0233356
-4.373e-05
1.77153e-05
1.2859e-08
-1.51613e-05
-0.000797056
3.36418e-07
-0.0212027
0.0006718
-1.70441e-11
0.0031458
-9.75888e-06
-0.000919491
-3.48164e-06
0.0325703
-3.2851e-09
-0.0562689
1.24623e-07
0.00234131
-1.88839e-10
1.26424e-05
-3.38519e-10
5.86098e-06
-1.03686e-06
0.00029828
2.11636e-05
-2.58121e-05
-0.00105274
-1.43462e-10
-0.000155465
-6.54962e-05
0.00529364
-1.88569e-10
-0.00400965
-2.7046e-09
8.63447e-06
0.00130901
3.42893e-05
-4.01342e-05
-1.82577e-11
2.94402e-05
4.39642e-06
1.28725e-06
-1.58994e-05
-3.5637e-05
0.000833174
-1.09435e-10
0.00342002
-1.71997e-05
1.61567e-06
-2.16005e-05
1.36805e-10
-1.9433e-09
4.42529e-08
-4.22504e-10
4.02533e-09
0.0594859
8.48689e-05
0.000239897
7.35365e-05
8.613e-08
-1.14181e-08
-1.69977e-07
0.0198597
-1.64169e-09
4.03204e-05
5.13111e-05
0.000914244
-1.03029e-05
-7.94558e-07
4.90457e-05
0.00027668
-2.25768e-09
6.59865e-08
-0.000612526
-3.50436e-10
-3.18544e-05
-5.10171e-10
-5.19294e-11
3.2828e-05
-2.05625e-06
0.00222512
-7.36457e-06
-8.01312e-06
-5.56667e-10
5.10491e-10
-1.83851e-07
-2.058e-06
0.000175027
6.08294e-06
-3.39406e-11
8.75054e-09
2.83171e-09
3.28691e-08
2.23672e-08
-1.05775e-08
4.0832e-10
-2.0121e-08
0.000150025
6.8501e-10
-1.01554e-09
-0.0013406
-6.11933e-06
-3.54182e-08
-2.24365e-06
-5.01188e-09
2.64576e-08
3.99516e-06
-0.0175837
-4.88468e-08
-1.34405e-06
9.54557e-06
-0.0126455
5.13228e-10
0.00110805
0.00151886
-0.00341831
-2.36834e-05
-1.31084e-06
2.94735e-06
0.0254408
-1.16353e-07
-2.85875e-08
1.25345e-05
-0.00124198
-3.59453e-08
-2.32602e-11
1.92907e-06
-0.00125104
-7.84637e-06
-7.31271e-12
-6.27759e-08
-2.04511e-05
0.000365538
-3.72536e-05
2.06786e-07
-8.49922e-10
9.66471e-05
-2.29158e-05
3.93932e-09
-1.42901
-1.44186
0.00122931
-0.00500173
1.34956e-07
-4.5525e-08
0.000149243
-0.003736
0.000161856
-5.7756e-08
-6.05485e-09
4.22024e-05
-2.03568e-06
5.82147e-07
-1.07832e-09
7.64667e-10
0.000661982
0.000286016
-3.58982e-12
-3.07387e-05
-1.12688e-06
-2.1211e-09
7.08166e-11
2.26481e-07
-3.06218e-05
5.63134e-07
-5.41192e-10
4.54734e-09
0.000378124
0.0095649
0.000171875
0.045903
-0.0005295
7.89218e-09
-7.35236e-10
-1.21153e-06
0.000614918
-4.0561e-05
-2.9436e-05
8.76968e-07
0.0252394
-1.35298e-08
-3.28201e-05
3.00829e-07
1.63856e-05
6.3201e-06
5.6797e-09
2.13269e-05
0.000121668
-2.91556e-05
6.07332e-07
5.59671e-11
1.08335e-05
1.52397e-06
-1.51071e-05
1.29624e-06
1.35409e-05
-3.17059e-08
-9.33794e-06
2.56163e-06
1.25813e-06
-3.07323e-06
0.00105432
2.2818e-08
-3.90445e-05
-4.22212e-05
-0.126892
0.000125732
-6.3965e-07
-1.00671e-10
-4.06134e-05
0.00142484
-0.00725108
0.000546898
-2.74348e-06
0.000344565
-0.00173052
2.01858e-08
2.1407e-09
1.46911e-09
7.63268e-11
1.92965e-10
0.000359435
3.59593e-05
4.97687e-10
3.21017e-08
-3.86857e-05
-1.32225e-09
-6.02584e-05
-2.8386e-06
-0.00283088
-5.77296e-05
-6.43682e-10
0.000100876
-1.11847e-07
1.71665e-05
2.29833e-11
-6.08078e-06
-7.85804e-06
0.00287185
-7.24643e-06
-3.40833e-09
-3.14333e-05
8.59468e-07
-2.85315e-05
9.87413e-07
-0.765847
-2.27055e-07
-2.69458e-06
-4.02058e-05
-3.65929e-08
-3.02103e-05
3.08524e-08
-8.59472e-12
-9.61264e-06
-0.000452896
1.5715e-06
-2.56016e-09
-6.46845e-08
1.37118e-10
-0.000282558
-0.000220783
-2.23629e-09
-1.73314e-09
0.00151603
-1.07112e-07
-3.42322e-10
-3.02924e-10
-0.000202328
0.215993
2.36695e-05
9.14373e-09
-0.0154576
-9.41357e-11
3.55909e-08
1.03315e-05
-5.07718e-09
8.89228e-06
-1.72231e-05
3.67623e-09
-1.38078e-07
-3.5903e-08
3.82948e-09
3.09742e-09
-0.0016516
-0.000278417
-7.7751e-08
-4.3924e-10
-7.21594e-08
-2.68598e-05
-0.000525264
-7.39391e-05
-1.2874e-09
3.4032e-09
8.64712e-05
1.11797e-05
-1.69936e-06
1.29207e-11
8.33695e-10
7.176e-06
2.96183e-05
-1.47407e-08
8.49828e-07
-4.69916e-05
-3.51354e-08
1.67915e-08
-5.51484e-10
-5.51722e-05
-1.1193e-10
-6.02346e-10
0.0192235
-1.44128e-09
5.377e-06
-3.06865e-10
-2.62088e-09
4.11417e-09
-8.72153e-12
-4.15541e-05
0.00124187
-6.15707e-05
-0.000457128
2.12709e-05
0.000281332
-0.000910674
-2.71917e-08
3.99756e-05
-0.0859424
9.05062e-11
1.39882e-06
0.0144035
-0.00153704
6.95185e-05
-1.93393e-05
-3.60438e-06
-2.64248e-12
0.000217433
-3.83067e-05
-0.00950369
-1.83362e-07
2.65693e-05
-1.97484e-05
7.75826e-09
1.38689e-05
-4.88705e-06
1.01282e-06
-4.72656e-06
-7.01618e-05
2.82095e-05
-0.000220664
-0.00661043
-9.71515e-06
-0.000130538
0.000104464
4.49557e-09
1.44204e-05
-3.45374e-12
-5.6255e-06
9.15047
6.11657e-06
-3.31054e-05
0.000328681
0.00204771
-8.87147e-10
-0.000345593
-0.000921655
-4.83587e-09
-2.74157e-05
4.54502e-10
1.59405e-05
3.02371e-08
-2.29876e-05
-0.00601013
1.26197e-10
-2.08641e-08
3.09887e-06
-2.95922e-10
0.0287401
-9.20945e-09
0.00110719
-4.73727e-10
-0.00108514
7.26501e-10
5.57257e-09
-0.000127722
-2.37591e-06
-2.47547e-05
-0.000582989
2.14333e-05
-1.96994e-10
-5.12456e-06
-1.28397e-08
8.76193e-08
-0.000489897
4.18805e-06
8.30351e-06
-5.33627e-06
6.03799e-11
-0.000310574
0.00036035
-8.0746e-13
-1.48172e-11
3.55864e-05
0.000527411
2.62165
4.03678e-05
1.99236e-05
7.65576e-07
1.09986e-10
-2.96158e-05
-4.11689e-05
3.80122e-09
4.74787e-05
0.0120511
0.00199353
0.27296
-6.94344e-06
7.20073e-09
7.02842e-09
-1.573e-08
6.88124e-10
-5.08113e-06
3.31916e-12
0.00199314
-4.40461e-10
2.23887e-06
-0.00357698
-4.7274e-06
4.63729e-06
1.36092e-05
3.79368e-06
-8.43218e-11
0.024717
2.23817e-05
5.78871e-06
8.7896e-09
1.31987e-08
0.00608664
2.06193e-05
1.09706e-06
-6.05515e-05
6.46738e-08
2.24219e-08
-0.0669418
-0.148601
1.3078e-08
1.36646e-05
-9.07865e-06
-1.00023e-09
2.76637e-05
-0.000542185
-2.50237e-05
-5.11905e-05
0.000932421
-1.34464e-05
3.34591e-09
0.00012701
-3.90252e-05
-9.71897e-10
-0.00639905
1.72236e-05
-6.31589e-07
2.60028e-06
-2.99047e-05
-3.66189e-07
-0.000815358
9.13935e-09
0.000668974
-4.12207e-08
0.00190057
-3.52186e-08
1.17992e-05
-1.55641e-08
-4.43814e-07
7.41202e-05
1.70549e-05
-0.00271437
-1.1861
-1.44995e-05
4.52103e-06
-8.53602e-08
-3.64371e-08
-6.11399e-10
-3.70013e-06
-8.5318e-08
1.91458e-05
-5.10588e-08
5.04481e-08
-1.18139e-05
-8.04378e-08
-4.50032e-10
-8.62687e-11
-13.1674
-1.59979e-08
2.9384e-05
-5.21238e-08
0.00344354
-6.70247e-06
0.000131011
-4.53549e-10
-2.54513e-05
-1.7833e-08
-7.72282e-09
6.59869e-11
-0.0001555
-9.97049e-09
-0.00342631
3.23598e-10
-2.4838e-05
3.9241e-06
-4.62323e-08
1.81564e-05
-3.29031e-05
9.92555e-06
1.72877e-08
-3.06009e-06
-5.3008e-05
1.44213e-05
4.33305e-08
2.19396e-08
0.00180003
-5.20127e-06
-4.34718e-08
0.00109538
0.00253446
-6.535e-08
-0.0126777
2.49741e-09
0.000502055
-2.49681e-08
1.09553e-10
3.43865e-08
1.82163e-09
0.00264329
-6.23895e-09
7.04315e-07
-0.00226155
0.000127146
0.00664091
2.52042e-06
-0.000173098
-8.47708e-10
0.00190449
-0.151
-4.0762e-10
0.000488841
-2.93038e-08
2.78993e-05
-0.000133277
-0.00368558
-1.3023e-08
0.0355531
-2.80888e-10
-0.000172138
-3.98444e-05
5.61649e-06
-3.16905e-05
2.10672e-06
-0.000375366
-1.74134e-05
-5.39526e-11
-5.64507e-05
-1.14507e-05
-8.32733e-05
1.1784e-05
-0.00010725
7.95278e-10
-0.000749385
-2.37069e-10
-2.83989e-08
1.16047e-09
-0.00208801
1.25096e-09
2.49174e-05
0.000126691
0.00010287
-2.33719e-05
-0.000799399
1.67797e-06
7.53928e-05
-2.76343e-08
-5.019e-12
1.30787e-09
-5.91938e-08
1.15239e-07
0.00259801
8.50988e-06
7.90261e-10
-6.15743e-11
-5.8679e-06
-2.25791e-05
-8.37714e-06
5.52038e-06
-0.000176105
-16.8717
0.00282378
0.0026978
2.78037e-05
2.00872e-08
1.99698e-10
0.000122867
0.000187096
-4.29221e-10
-0.00672165
-0.000527746
-5.27344e-05
-2.14834e-08
-0.000716276
-3.73423e-05
-7.07638e-09
2.53102e-05
8.84706e-09
-2.19542e-09
3.1613e-05
3.57232e-06
-1.01128e-05
-4.33083e-08
4.40451e-10
4.77772e-06
-2.85046e-08
-8.1232e-06
-3.30396e-06
-1.16641e-08
1.78848e-05
-1.61201e-08
0.000596256
-1.45616e-08
1.77233e-09
3.41342e-08
-7.83658e-05
0.0156256
-4.65318e-10
-3.82055e-05
-0.00144969
-6.01352e-10
-4.86884e-10
1.2474e-08
-2.15477e-05
-1.21982e-05
-2.02157e-05
-2.26365e-08
5.64039e-10
0.00199331
-0.00214993
2.24366e-06
1.47532e-05
-3.13577e-09
1.29566e-08
0.000165623
-2.06968e-08
9.14122e-06
0.00061411
-6.69059e-11
-3.69318e-05
-9.97009e-10
-2.16857e-05
0.000209125
1.28396e-06
-1.19399e-05
4.55744e-09
4.08788e-05
-8.78362e-06
0.00455114
-0.0276104
2.3555e-05
-8.26804e-10
1.28558e-07
-0.00134319
0.000127173
5.365e-07
4.05698e-05
-9.29594e-09
5.98727e-08
-3.03065e-08
5.42739e-06
-1.58388e-07
-0.00133258
-0.000237926
-9.14897e-07
-3.63211e-05
-7.81865e-06
1.80159e-07
1.73918e-05
0.000119685
-2.96104e-10
2.15788e-09
3.71927e-05
-4.61937e-09
0.00115806
0.0005402
-1.06823e-10
3.19257e-05
-0.00696873
-1.20931e-07
-4.27693e-06
3.35012e-09
-1.8951e-09
1.66076e-06
0.000513442
-0.00791935
-4.85739e-05
2.86248e-07
-5.09184e-09
-0.000111811
6.60069e-11
4.47072e-05
-1.65333e-08
5.51662e-06
6.26634e-06
-0.0526442
-0.000291617
0.000322635
1.04273e-09
-6.52455e-05
2.01192e-05
1.59751e-05
-2.96788e-05
0.000126937
-2.40051e-08
-2.60088e-05
2.40927e-05
-0.0417993
0.000829488
-2.13094e-06
-3.00484e-05
-1.14193e-05
0.000143389
-2.72024e-06
-3.60264e-08
-2.40544e-05
-1.67309e-06
0.00700139
1.70433e-08
0.000736081
-1.54791e-05
-3.98554e-09
1.6784e-09
0.000166616
-1.4708e-07
-0.0567715
-1.32406e-06
-0.000158402
0.0841709
2.64979e-05
-4.08727e-08
0.000636962
1.20077e-05
-1.53735e-08
-0.00023498
0.0455521
-3.42688
1.2772e-08
0.0009772
1.53407e-09
5.0259e-05
7.13643e-10
-3.27015e-06
1.7065e-09
-8.40256e-08
-5.09848e-11
6.46539e-06
1.91711e-05
-4.05559e-06
5.63937e-06
-5.18448e-05
-2.5248e-08
0.000297575
-2.26124e-06
2.29087e-05
2.70446e-06
6.03889e-05
-8.48421e-10
-5.99998e-11
-0.00858518
-4.88881e-08
2.05179e-05
-9.31075e-06
-0.00562697
7.71052e-06
2.14242e-05
-5.09187e-05
0.000109023
9.58473e-10
-8.4377e-05
2.44357e-05
-2.66735e-07
-1.99199e-08
4.95348e-05
-2.22724e-09
-6.52857e-10
1.73323e-09
-0.000165692
-4.60317e-10
1.90065e-07
0.000119434
7.5536e-08
-1.36918e-09
-6.56115e-08
-2.90385e-11
-5.20164e-08
2.24408e-09
-3.83724e-06
-3.54676e-06
-3.28138e-05
-5.76172e-11
0.0751356
0.00186052
-2.47335e-09
5.43729e-06
-4.48379e-08
1.69764e-08
3.36595e-07
0.00034868
4.41469e-07
-3.65035e-05
-6.64412e-05
-8.56936e-10
-2.45852e-05
-0.000127933
3.29189e-06
-3.43691e-09
-3.92458e-06
-1.39911e-06
6.6301
-7.63586e-06
-5.2341e-11
0.00882424
-0.00012102
-4.93104e-09
0.00048867
3.01118e-09
7.12493e-07
0.0951662
3.56139e-05
0.12457
-5.22501e-10
3.69284
-6.24301e-06
-0.00100196
4.27422e-05
-1.791e-10
8.68356e-09
-2.76663e-07
-3.13896e-08
-3.58384e-05
9.10397e-07
-1.87659e-05
-3.42364e-05
1.65761e-08
1.76018e-05
4.83668e-13
-2.71012e-05
-3.51457e-05
-0.000984418
-0.019196
7.38719e-10
-1.4446e-09
-2.53725e-05
-7.13998e-06
2.41025e-05
0.00244722
-4.85872e-05
-1.28158e-08
0.0496591
0.000445272
5.99691e-10
-5.30121e-10
1.75455e-07
6.13543e-11
-1.24853e-06
0.000463725
1.93337e-10
2.69939e-06
-7.56355e-06
-4.85234e-10
0.000251243
-2.37045e-06
1.71083e-05
1.05169e-06
1.81826e-09
-0.00198643
6.14415e-11
-4.50938e-06
1.98184e-09
0.000161921
2.60168e-09
1.4277e-05
-2.44863e-10
5.40827e-05
4.00961e-06
9.82636e-08
-5.83976e-12
2.99998e-05
-0.00884034
0.00255326
-7.99087e-06
0.00167838
-2.59435e-09
-8.09555e-10
1.89746e-05
2.40502e-05
0.0188161
0.000280314
-9.21189e-08
3.04583e-06
-2.58009e-05
-4.94263e-13
-2.24151e-06
7.45837e-08
0.000784025
-6.06427e-08
-5.03095e-10
-2.62809e-09
5.78914e-10
2.68621e-05
-6.44549e-05
0.0137705
-0.000799305
-1.22417e-05
7.90275e-06
1.23125e-08
2.00058e-09
1.64454e-09
0.00442001
8.47689e-10
-1.74692e-05
-3.47382e-10
2.30113e-07
2.13972e-05
-2.8842e-05
-8.60698e-06
-6.24586e-06
4.06499e-07
-4.62288e-10
0.000988162
0.0788145
5.00335e-05
0.000233328
-3.98875e-08
-2.90792e-08
-6.25675e-06
-4.67743e-08
-4.09526e-05
-3.88258e-10
-0.000241817
1.16803e-07
2.48407e-05
3.95718e-08
-3.02894e-09
-2.96321e-06
9.96762e-07
5.73965e-06
-1.806e-09
-3.27068e-08
0.000481384
9.46418e-06
-5.46854e-05
0.00938083
4.00294e-09
1.31651e-05
-0.0277032
9.03967e-06
-1.0298e-05
-3.65799e-05
0.0016417
-0.00553107
-1.18111e-05
1.58353e-05
0.0117337
-8.84379e-06
0.00020375
2.71754e-06
5.39161e-05
2.30579e-08
-0.00421575
7.54056e-10
7.15126e-09
-5.78832e-05
0.00062629
-1.07817e-05
-4.27001e-08
-9.6513e-06
-0.00181779
9.77128e-07
-6.80619e-05
-0.000353948
-1.02563e-09
3.38405e-05
6.14113e-05
-0.000158783
-4.0661e-05
-3.26551e-08
1.25075e-07
-1.19342e-05
0.000261958
-5.949e-06
0.000957483
-0.000808246
7.75543e-07
3.37959e-05
-4.8973e-08
-1.81823e-06
6.64764e-10
-3.8437e-08
-9.5252e-06
-3.15175e-09
6.88869e-08
-6.89964e-09
-5.29965e-08
-0.000432851
-0.00032282
4.58158e-05
1.41899e-05
0.00259944
5.91442e-08
3.48835e-05
1.01643e-10
-1.55511e-09
-1.51095e-06
0.00494217
3.94119e-10
-7.72395e-11
-0.000223929
-0.00509182
-9.55775e-08
-7.82209e-06
0.0853043
-0.00114789
-1.17735e-07
-0.00113245
-3.04114e-09
4.81135e-08
5.11609e-06
1.80865e-10
0.00133994
-0.000391452
2.71735e-09
0.000484786
2.01649e-06
2.81343e-09
-4.02063e-11
5.04235e-08
-1.03819e-10
-2.62148e-09
-3.88942e-05
-1.41531e-10
-4.74096e-05
-2.07939e-05
7.77959e-10
1.31276e-06
-8.40833e-11
5.5964e-05
-0.00290645
3.29615e-05
9.93573e-06
-1.28814e-05
4.57975e-06
3.7594e-06
-9.3721e-12
-9.92966e-06
1.14376e-08
-0.00092902
-0.0247422
0.00109837
-2.82637e-05
-2.52302e-05
-0.92752
-5.74725e-05
5.46127e-12
-0.00439947
4.05243e-05
-4.51259e-09
-2.4714e-05
-4.08374e-09
-4.50823e-07
0.0316822
-0.000556039
3.40695e-05
-1.07764e-05
-1.63607e-06
0.000608817
1.34298e-05
-1.91687e-08
-0.000222041
-0.00831456
6.39886e-05
-0.000503593
-4.45083e-09
-0.00122549
-0.00298655
-1.05564e-09
2.75931e-06
-1.4045e-11
0.000126551
-0.00166383
-3.22555e-06
2.48904e-09
-1.21927e-09
7.73663e-05
0.00189225
4.82741e-11
-7.03637e-08
0.0257329
8.45573e-10
0.000582656
-9.98361e-05
2.27314e-05
-1.97293e-06
0.000639526
-2.54384e-05
-3.46195e-06
-0.000524129
-0.000111811
-1.46995e-06
-9.23844e-08
-1.86246e-09
0.000494609
3.60883e-10
3.33163e-05
0.0056405
-5.78345e-06
8.22413e-08
1.18252e-05
-2.68037e-06
-1.99438e-05
0.000160377
-3.74255e-10
2.15353e-06
-4.97754e-06
-4.77531e-08
-1.99806e-06
3.576e-06
9.32091e-06
-0.00333957
1.77018e-09
-7.56715e-08
-6.60935e-08
5.09893e-08
-2.49081e-09
4.31866e-12
-0.000247999
-2.06709e-05
-3.0306e-06
-2.67454e-08
-0.000186742
-4.89549e-10
-4.34888e-09
5.89279e-05
-0.000116062
6.3724e-05
2.02544e-05
-1.37466e-08
-3.1474e-10
-0.000186498
0.01087
-1.09585
8.84712e-09
-0.000995403
-0.00011151
-9.03335e-06
2.02521e-08
0.00128797
-8.18517e-06
3.48617e-10
9.90309e-06
0.00359162
1.66584e-06
-1.41326e-06
-1.15416e-05
-1.42152e-09
-1.52923e-06
0.000299416
-6.0276e-06
0.00031668
-4.02203e-06
0.00140815
0.00220121
0.00095501
3.85158e-06
-2.41288e-11
1.00098e-05
-1.4529e-05
1.62656e-06
-1.18142e-05
9.577e-06
-2.37433e-10
-1.26869e-05
-5.90077e-07
-2.85184e-06
-5.72526e-07
-7.75041e-06
-6.54778e-10
0.00182209
-2.32843e-08
-2.44672e-05
0.00978903
1.09107e-07
-1.66268e-06
-8.56279e-06
8.38453e-10
-2.1962e-10
-1.60379e-09
-7.61697e-06
-5.13203e-05
7.25496e-09
-4.55394e-05
-2.10561e-08
2.2789e-05
-1.17997e-05
-3.75874e-06
-0.00152072
-2.45051e-07
-1.35042e-05
-9.72038e-06
6.18614e-05
-6.48357e-05
3.82664e-05
-1.57154e-06
5.81013e-06
1.30138e-10
-5.02759e-06
0.00105916
2.47137e-05
0.00708175
-5.50567e-09
-9.21111e-11
0.0042617
-1.66592e-09
2.27282e-05
-4.50141e-11
-1.31252e-05
3.41566e-07
6.13152e-06
1.62862e-06
-1.0629e-06
0.00162257
-0.00877426
-4.29052e-09
-2.25807e-09
0.000125624
3.62842e-06
2.68081e-10
-0.00484024
1.00301e-05
-5.96215e-07
4.21807e-05
1.37693e-05
2.2298e-08
-0.0011754
5.99354e-05
-1.35495e-05
-6.86663e-05
-1.24994e-05
-1.48682e-05
-1.89103e-06
6.15419e-06
-1.0581e-05
4.70851e-09
-5.60567e-08
-5.1504e-10
6.80036e-06
8.13064e-06
-4.84385e-10
9.93118e-08
-1.54864e-05
1.09255e-05
-8.3063e-05
-0.00208641
7.22802e-05
0.00012241
0.00140608
0.0207852
1.71648e-08
-6.69816e-06
-9.22757e-06
1.1708e-05
1.9466e-09
-1.01907e-05
-3.17719e-09
-1.08346e-05
-8.72164e-06
0.00307148
-9.57288e-06
-0.000143447
-6.78055e-06
-0.00166577
-0.000868697
4.17787e-06
3.75065e-05
1.79472e-09
4.45934e-06
-4.44189e-06
-3.26748e-07
-0.000213341
-1.12978e-09
6.21496e-05
-5.20765e-07
-9.8527e-06
-0.000728594
6.39405e-07
0.000118545
-1.19543e-09
-0.0577903
0.00843797
-9.53054e-06
-2.25594e-05
-0.000128306
9.43121e-09
0.000419485
4.2087e-07
1.35713e-07
-4.0303e-10
1.43767e-06
-0.000110657
0.00142246
0.00179853
-1.87594e-08
-1.88833e-05
6.20764e-08
0.000829474
-6.59389e-08
6.4911e-06
5.25375e-05
5.89991e-06
5.62419e-05
0.000265372
-1.39057e-05
-1.19625e-08
0.000115553
-1.06843e-05
-2.5954e-05
2.21794e-06
-2.65948e-10
3.34758e-10
-3.36858e-05
-1.34811e-05
-0.000293574
-1.92501e-08
9.43478e-05
5.92091e-11
-7.24514e-06
3.12606e-09
-4.70167e-08
1.07236e-10
-8.5089e-08
-1.91502e-05
-0.000717614
-1.3884e-08
-3.40228e-09
-6.95204e-06
-4.35569e-05
6.13828e-06
-4.47644e-06
9.78597e-05
9.08083e-06
6.22523e-10
4.05216e-05
-1.38982e-07
1.56527e-05
-6.98919e-06
5.38325e-08
-3.67734e-10
-6.33878e-10
7.77075e-09
6.04509e-05
-1.09673e-07
-9.1775e-10
-0.404467
0.00519597
-1.72158e-10
4.10563e-09
-3.86487e-10
0.0218444
0.0237691
-6.9105e-06
0.010056
-2.51717e-06
3.60682e-05
-4.55512e-05
0.000713591
-3.08928e-11
-4.10628e-11
-7.95947e-06
-0.000228874
4.09133e-05
-5.0353e-08
0.00281923
-4.80815e-05
5.56037e-05
-1.79711e-07
1.3607e-05
-3.10905e-06
2.17686e-10
3.00006e-05
0.00338335
-3.83301e-07
3.84007e-09
2.64674e-09
-0.00208208
-0.000100952
0.00301985
6.93e-06
-0.000464925
-8.17431e-08
2.44118e-06
4.55064e-08
-7.96578e-06
1.07992e-07
6.45941e-06
0.0421834
-0.000353452