/*--------------------------------*- C++ -*----------------------------------*\
| =========                 |                                                 |
| \\      /  F ield         | OpenFOAM: The Open Source CFD Toolbox           |
|  \\    /   O peration     | Version:  v2012                                 |
|   \\  /    A nd           | Website:  www.openfoam.com                      |
|    \\/     M anipulation  |                                                 |
\*---------------------------------------------------------------------------*/
FoamFile
{
    version     2.0;
    format      ascii;
    class       volVectorField;
    location    "400";
    object      ddt0(U);
}
// * * * * * * * * * * * * * * * * * * * * * * * * * * * * * * * * * * * * * //

dimensions      [0 1 -2 0 0 0 0];


internalField   nonuniform List<vector> 
15335
(
(-1.94367e-06 7.06847e-08 0)
(-1.29635e-07 -1.30218e-05 1.68944e-23)
(3.53727e-06 2.99431e-07 -1.07801e-22)
(-1.98644e-06 6.66502e-07 4.7833e-24)
(3.65163e-06 -5.17443e-06 -1.18875e-22)
(-2.92419e-07 3.00801e-07 2.14922e-23)
(-1.31567e-06 -1.34365e-06 0)
(8.24172e-06 -1.91898e-05 -8.00525e-23)
(-2.36291e-07 -5.11522e-07 5.16453e-24)
(-1.88869e-06 9.59388e-08 0)
(3.49682e-06 4.23652e-07 9.26488e-23)
(1.57954e-07 -8.03203e-08 7.68014e-24)
(4.12317e-06 -6.35183e-06 7.49381e-23)
(-5.99214e-06 -8.12927e-08 -3.15195e-23)
(2.12407e-06 -3.97775e-06 0)
(-2.1885e-05 -1.91795e-05 -1.50499e-22)
(2.23582e-08 -3.29981e-09 7.59296e-24)
(3.50592e-06 2.28027e-06 -3.36811e-24)
(4.08976e-09 -3.65239e-08 -1.56132e-23)
(-0.00050144 0.000106014 -6.54304e-23)
(-2.99195e-06 2.06352e-06 0)
(-3.06054e-06 1.91898e-06 0)
(-1.47285e-06 -1.82771e-06 -1.59661e-23)
(-3.433e-08 -2.21335e-08 4.3876e-24)
(2.94344e-06 2.09441e-06 0)
(6.29143e-07 -5.70862e-06 -8.68078e-23)
(1.15676e-06 1.24505e-07 1.18923e-22)
(-3.0982e-08 -5.72836e-06 6.39519e-23)
(1.77964e-06 -1.09297e-05 6.61446e-23)
(-3.96873e-07 7.75486e-07 6.4226e-23)
(2.17377e-06 3.29594e-07 5.35864e-23)
(1.81457e-06 5.95259e-06 -8.35274e-24)
(-8.10378e-10 2.85398e-07 -5.74082e-24)
(-2.94699e-07 1.49038e-07 2.97274e-23)
(-1.79685e-07 -7.09798e-09 2.34495e-24)
(3.91853e-07 -6.98785e-06 -3.15753e-23)
(3.21401e-06 1.61038e-06 4.06939e-23)
(-0.000399288 -0.000249897 -5.4114e-22)
(1.67319e-06 -6.869e-07 -5.07694e-24)
(-1.74409e-06 2.16814e-06 0)
(8.14082e-06 -2.098e-06 -4.61564e-24)
(-3.39041e-06 -6.78891e-06 4.31343e-23)
(-2.00559e-07 1.33135e-07 0)
(2.69145e-07 -1.40035e-07 -7.08313e-24)
(2.65742e-06 5.68949e-07 1.49185e-23)
(-5.26087e-08 -1.90766e-09 0)
(-6.41361e-05 -0.000240004 -9.32813e-25)
(-2.23442e-06 -8.48054e-06 -1.13935e-23)
(-6.10598e-06 3.93537e-10 6.07181e-24)
(-7.97109e-07 -2.3625e-07 1.0696e-23)
(-3.57899e-08 -2.595e-08 0)
(-5.38917e-07 -5.75314e-06 -2.53701e-23)
(-2.22e-06 2.25732e-05 9.91373e-23)
(1.13061e-08 2.51145e-07 -1.41541e-23)
(-1.0572e-07 -1.15927e-07 -7.1412e-24)
(-9.94249e-07 -1.10862e-06 0)
(-1.52174e-05 1.25398e-05 0)
(-5.98456e-07 -5.71696e-06 -6.97896e-26)
(1.51321e-05 -2.48525e-06 -1.15404e-22)
(3.7202e-06 3.96954e-07 1.99738e-22)
(4.34131e-06 -1.96603e-06 7.61766e-26)
(-2.08537e-06 -7.95588e-06 -1.1838e-23)
(-1.96295e-06 1.94849e-07 -6.35812e-26)
(1.50786e-07 1.18411e-06 -2.52252e-23)
(-5.22815e-08 -7.93364e-08 0)
(1.40832e-07 -7.75298e-08 2.34562e-24)
(-4.33461e-06 -5.21684e-06 0)
(7.70757e-07 5.35926e-06 1.6959e-23)
(1.67331e-09 -1.14123e-07 -3.82672e-24)
(-3.42898e-09 -1.19813e-08 1.36995e-23)
(1.62056e-07 -5.10177e-07 3.96463e-23)
(-3.92984e-07 -3.47326e-07 0)
(1.78286e-06 1.92807e-06 0)
(2.74327e-06 -2.98101e-06 0)
(2.88028e-06 3.44595e-06 4.39758e-23)
(3.75701e-06 2.44717e-06 -3.7974e-23)
(8.0152e-06 2.29455e-08 1.04013e-23)
(1.14793e-07 -3.00596e-06 2.08502e-23)
(5.71664e-06 1.34373e-06 2.13977e-23)
(-1.89579e-08 3.1512e-07 -1.37567e-23)
(8.96405e-08 2.69453e-07 -7.78381e-23)
(4.31428e-06 5.11013e-08 0)
(8.07931e-07 9.88059e-07 1.78701e-23)
(4.72876e-06 -2.62398e-06 0)
(2.0467e-06 5.98096e-07 0)
(-5.855e-08 -5.00712e-10 1.65262e-23)
(1.10222e-08 -2.8735e-08 6.97062e-24)
(2.47057e-07 -1.17199e-07 0)
(-6.62883e-07 6.41167e-07 2.89276e-23)
(-3.81477e-06 -2.38741e-06 2.07936e-23)
(8.17402e-08 -1.43233e-06 1.53381e-22)
(-2.55117e-07 -8.63588e-07 2.85256e-24)
(1.50202e-07 -8.16081e-08 7.10111e-24)
(-0.00010898 -0.000230743 -6.78682e-23)
(1.54448e-05 -3.98975e-06 0)
(-4.41687e-08 -4.21865e-07 3.37044e-25)
(-5.64886e-08 2.53009e-09 0)
(-6.54854e-07 -6.78212e-07 2.03095e-23)
(-5.56647e-08 -6.36595e-08 0)
(-5.14643e-09 2.69127e-07 0)
(-1.57534e-07 1.10581e-07 -7.13407e-24)
(3.39412e-06 2.67317e-06 4.15386e-23)
(8.21479e-06 -6.944e-06 6.75824e-23)
(1.09717e-06 -1.14221e-07 -8.5873e-24)
(3.95304e-08 -1.52553e-07 0)
(-1.06063e-07 -4.877e-07 0)
(-9.34199e-08 -1.16554e-07 -6.42624e-24)
(4.23668e-07 2.45334e-06 0)
(1.60309e-05 -4.08126e-05 0)
(-2.67789e-06 -1.16962e-06 5.69883e-24)
(-4.89439e-06 -1.6222e-06 -1.88591e-23)
(-4.84396e-08 5.55489e-07 2.0903e-23)
(-9.68121e-08 2.12098e-07 0)
(1.63416e-07 -8.6802e-08 4.24288e-25)
(-6.76708e-06 -2.44532e-05 0)
(-6.18642e-07 5.50132e-07 -2.66806e-23)
(2.08765e-07 -4.55078e-07 1.52851e-25)
(0.000226725 -0.000373473 -2.47212e-22)
(6.87437e-07 -1.58396e-06 -1.64249e-22)
(-1.81211e-06 -4.37979e-06 -4.88148e-23)
(1.36943e-07 -6.97062e-07 8.07577e-23)
(3.53295e-06 -9.31665e-06 -2.50663e-24)
(1.92721e-06 -3.09864e-06 0)
(-2.79968e-06 -1.47627e-05 0)
(-3.34413e-08 2.4606e-07 -2.62598e-23)
(-1.59995e-07 1.36709e-07 -3.06619e-23)
(-1.15467e-05 9.31095e-06 2.06292e-23)
(-9.53027e-09 1.4542e-07 0)
(9.99724e-07 -6.64829e-08 0)
(-1.50269e-07 -2.01308e-07 0)
(-1.75801e-06 -2.0758e-06 -9.0226e-23)
(2.89733e-06 7.00738e-07 0)
(-5.0569e-08 -4.19479e-09 0)
(-4.21333e-06 3.68829e-07 0)
(1.78908e-07 -2.19394e-06 5.86786e-23)
(-4.902e-08 -2.25753e-09 2.05575e-23)
(7.20076e-07 1.08326e-06 0)
(-4.2151e-06 -1.51637e-05 0)
(-3.03283e-06 4.92534e-07 -2.42917e-24)
(1.39274e-05 2.22579e-05 1.16254e-22)
(-1.13513e-07 -1.2385e-06 2.81891e-24)
(-5.5925e-06 -2.87172e-06 -5.60871e-23)
(-7.09955e-07 -1.54615e-06 9.41912e-24)
(9.67879e-10 -2.26789e-09 -7.49942e-24)
(6.22112e-06 1.63139e-06 1.80922e-23)
(0.000974817 0.000238547 1.09806e-22)
(2.96875e-06 -2.74976e-06 -5.06024e-24)
(1.64681e-06 -3.45164e-05 5.03967e-23)
(-5.18572e-07 -3.33581e-06 -6.35305e-23)
(1.30966e-06 1.50417e-06 8.43798e-24)
(-4.99708e-08 -3.30373e-07 4.73378e-24)
(-5.73126e-07 1.50123e-06 -4.56401e-24)
(-1.60181e-07 1.18401e-07 -1.42798e-23)
(-1.15215e-08 -3.68433e-07 0)
(-7.7742e-06 -4.049e-07 -9.53557e-24)
(2.41161e-08 2.87855e-07 4.08504e-23)
(6.23618e-06 1.81992e-06 2.23144e-24)
(1.55012e-06 -4.54239e-07 0)
(-2.57374e-05 -4.68363e-05 4.3409e-23)
(1.28306e-06 -1.62991e-06 -6.029e-23)
(4.20296e-08 3.2869e-07 -5.77666e-23)
(-4.22606e-07 1.68646e-06 -2.62422e-23)
(-2.56064e-06 -1.3364e-05 -3.37716e-24)
(6.59107e-08 -6.71937e-07 0)
(2.28136e-06 -6.68008e-07 0)
(5.38961e-06 4.23674e-07 -6.4029e-24)
(5.35644e-06 5.3711e-07 -8.51636e-24)
(-3.82918e-08 -1.48703e-08 1.85742e-23)
(-0.000151471 -7.52926e-05 8.08164e-24)
(8.74327e-06 -3.19493e-05 9.78468e-25)
(-0.000375846 -0.000354579 6.98338e-23)
(1.10588e-05 -2.0333e-05 -1.97249e-23)
(5.54993e-06 2.26364e-06 -1.04269e-23)
(2.06042e-06 1.97678e-06 2.16399e-23)
(3.71052e-06 6.39687e-07 -4.25447e-23)
(2.57356e-08 3.2359e-07 2.33303e-23)
(-2.20877e-08 1.69704e-07 0)
(-6.58753e-06 -1.36443e-05 3.49518e-23)
(-0.000164326 0.000603435 -1.31154e-22)
(5.45477e-06 -9.17043e-06 -2.40226e-24)
(3.59389e-06 2.48352e-08 5.82357e-23)
(-0.000140989 -0.00047014 1.48102e-23)
(4.50099e-06 -2.32998e-06 0)
(4.77008e-08 -6.54758e-07 0)
(8.07417e-08 -6.88135e-07 0)
(6.11299e-06 1.92459e-07 1.98477e-23)
(-5.35297e-08 -4.76195e-07 -7.00345e-26)
(-1.78464e-06 7.85866e-07 -4.89458e-24)
(2.18587e-06 -2.8329e-06 0)
(-5.59065e-07 -2.44916e-06 6.81123e-23)
(4.95209e-07 -1.8644e-07 5.3949e-23)
(1.31748e-05 1.04115e-05 -1.39182e-22)
(2.04793e-07 -1.26773e-07 6.55385e-24)
(3.71976e-06 2.91783e-06 -5.66512e-23)
(2.20174e-06 2.84997e-06 -7.60299e-23)
(1.28771e-05 -6.74468e-06 0)
(-1.02548e-07 1.77995e-07 -9.95405e-24)
(3.31115e-06 6.73324e-07 0)
(-2.08548e-07 1.74214e-07 -1.63592e-23)
(3.09821e-06 -7.48423e-06 1.3726e-22)
(-6.15304e-07 -7.50705e-07 8.18143e-24)
(-5.01571e-06 -6.9982e-07 -8.87152e-24)
(-1.71167e-06 -9.24355e-07 2.22604e-23)
(1.05206e-06 -6.53159e-07 -1.60295e-22)
(3.47149e-06 4.2205e-08 0)
(-1.59311e-07 -3.18236e-06 0)
(-2.74196e-08 1.7772e-07 0)
(3.23972e-06 1.25141e-06 1.58834e-25)
(-6.73125e-07 1.87253e-06 -5.74422e-25)
(-1.09934e-06 -4.69006e-08 7.47656e-24)
(-1.09219e-06 -1.66292e-06 4.2334e-23)
(-1.87872e-07 1.13142e-07 0)
(-7.8204e-06 -5.30186e-07 3.01152e-24)
(-4.35736e-07 7.53093e-07 -4.04383e-23)
(1.44111e-06 -5.52609e-06 0)
(2.77294e-06 3.14605e-07 -2.84665e-23)
(3.68293e-06 3.95323e-07 -1.07135e-22)
(-7.32018e-07 1.99172e-06 0)
(2.13601e-06 -3.70212e-07 0)
(1.83259e-05 -8.97102e-06 -2.35004e-25)
(-7.18126e-08 2.59115e-07 0)
(-1.26789e-07 4.29881e-08 2.20888e-23)
(-4.85971e-08 -5.01474e-07 1.19133e-23)
(2.38928e-07 -1.13911e-07 7.69353e-24)
(2.84032e-06 -1.59998e-06 0)
(-1.56714e-06 -9.68055e-06 0)
(-5.97671e-08 -6.03597e-08 6.68812e-24)
(2.55787e-06 -2.40499e-07 8.8366e-25)
(3.71776e-08 -7.71415e-07 -4.0311e-23)
(9.53906e-06 -1.14434e-05 0)
(-6.05246e-08 9.52229e-09 -1.54949e-23)
(-4.87077e-08 -2.04108e-08 -8.52369e-24)
(-6.11708e-06 -2.81973e-09 0)
(3.73492e-06 -1.43664e-05 -2.64359e-23)
(-9.04325e-05 6.58634e-05 1.07458e-22)
(-4.8757e-07 -9.76044e-07 -4.72933e-24)
(2.89291e-06 7.78973e-07 6.74869e-23)
(2.03519e-06 -5.41462e-07 0)
(-5.02181e-08 1.27742e-07 -3.29805e-26)
(-3.89636e-06 -7.50444e-07 2.65213e-23)
(6.42516e-06 -3.9489e-06 -2.0689e-24)
(-2.19246e-06 -7.08061e-07 0)
(1.47744e-06 -2.8772e-06 0)
(6.94167e-08 -5.94608e-07 0)
(8.76066e-07 -6.41137e-07 1.33254e-22)
(-7.21029e-08 2.84412e-08 0)
(-4.92788e-07 2.69793e-07 -1.99057e-23)
(6.20132e-07 -3.22826e-07 0)
(-5.67327e-06 7.76446e-07 3.68502e-23)
(-5.93969e-06 1.12251e-06 -3.78547e-23)
(3.39804e-06 8.62729e-09 0)
(-0.000124491 -7.64473e-05 -1.12486e-23)
(-5.08765e-08 -1.31017e-08 1.79945e-23)
(-3.48738e-08 -1.58175e-08 -1.89681e-23)
(1.02879e-07 -6.88509e-07 -1.21429e-24)
(2.84776e-05 -4.92921e-05 0)
(-3.75852e-07 -1.85841e-06 -3.14382e-24)
(6.16489e-07 -2.52528e-06 -5.92669e-23)
(-4.49277e-09 -1.38711e-08 -1.44876e-23)
(-4.61166e-07 -3.94973e-06 -5.09182e-23)
(3.87612e-07 2.22369e-07 -6.27278e-23)
(1.08114e-08 2.85754e-07 0)
(-4.13665e-08 -2.25562e-08 1.19858e-23)
(-4.81237e-08 2.67379e-07 0)
(-1.27684e-08 -1.19598e-07 1.05501e-26)
(-9.07816e-10 -1.29277e-08 -1.15371e-23)
(1.81432e-06 -1.85367e-06 -1.64297e-23)
(-3.02405e-07 -8.87301e-07 -1.42431e-24)
(2.00318e-06 -4.32876e-07 6.57815e-24)
(-1.3685e-08 2.75544e-07 0)
(1.75904e-06 -4.15739e-06 6.36096e-23)
(6.03768e-06 2.33419e-07 0)
(-7.33239e-08 -7.55414e-07 -7.99645e-25)
(-6.21579e-08 9.32024e-09 2.70313e-23)
(-3.69002e-06 -7.22443e-07 -3.3857e-23)
(-5.29111e-07 6.67104e-07 -1.59308e-23)
(-3.31227e-07 2.34592e-07 -3.85209e-23)
(1.67943e-06 4.90085e-06 -2.59819e-23)
(-1.67037e-07 1.23882e-06 2.52999e-23)
(2.40605e-07 -7.82815e-07 4.08262e-23)
(-4.27591e-06 3.12055e-07 1.41027e-23)
(7.84777e-07 2.84711e-06 0)
(-5.26194e-08 -4.19825e-08 1.08535e-23)
(-3.70228e-07 -1.80891e-06 1.1049e-23)
(2.00684e-07 -1.90049e-07 -1.27703e-23)
(1.30147e-06 1.70701e-06 -1.28233e-22)
(6.47816e-06 1.21437e-06 0)
(1.22238e-07 -2.77755e-07 0)
(-4.35612e-07 9.25941e-07 0)
(-2.56842e-07 -2.09796e-07 0)
(5.16095e-06 4.6015e-07 4.29972e-26)
(1.37388e-07 -1.08194e-07 -5.9724e-24)
(-4.78992e-06 3.95798e-06 -1.53397e-23)
(1.28687e-06 1.12291e-06 0)
(-2.96272e-07 -2.70333e-07 -4.27943e-24)
(0.00738449 -0.00203816 -7.08789e-23)
(-4.24562e-08 -3.02304e-08 0)
(-7.29454e-07 -9.04253e-06 1.98294e-23)
(-1.75062e-07 -1.99689e-08 0)
(4.42934e-07 -2.13124e-06 9.78345e-23)
(-8.05392e-08 2.9317e-07 1.23333e-25)
(6.51805e-06 -3.78358e-06 0)
(1.50291e-07 -1.17084e-07 3.65513e-23)
(1.31595e-05 6.09407e-06 -2.80753e-25)
(-4.70272e-08 -5.89611e-09 1.61646e-23)
(6.76125e-06 1.23373e-06 -7.84164e-23)
(5.08353e-06 6.03545e-07 1.8771e-25)
(-3.22734e-08 1.77209e-07 0)
(2.88959e-07 1.36655e-06 -4.47604e-23)
(-2.17577e-07 1.16356e-06 3.93661e-23)
(3.40376e-06 -2.18147e-06 -9.07528e-23)
(6.3713e-09 -1.3303e-07 -2.50399e-24)
(5.46725e-06 -4.26803e-06 2.84377e-24)
(1.21087e-06 -1.31572e-05 1.49608e-23)
(-1.69241e-06 1.07451e-06 2.44207e-23)
(-1.25251e-07 2.25718e-07 0)
(-1.28281e-07 3.65613e-07 6.30539e-23)
(1.09569e-06 -5.13394e-06 3.11387e-23)
(0.000100278 -1.46752e-05 0)
(5.49032e-06 -1.3553e-05 4.27463e-23)
(1.44415e-05 -9.70819e-06 3.36488e-22)
(-4.75794e-08 -9.83592e-08 1.29209e-23)
(0.0002473 1.7684e-05 0)
(1.50465e-06 2.01789e-06 0)
(-2.13759e-07 -5.45495e-07 2.43829e-24)
(-7.60871e-06 -7.45889e-07 0)
(2.96685e-06 -2.3942e-06 8.19173e-23)
(1.80494e-05 -1.77555e-05 0)
(1.11582e-07 -2.00179e-07 -4.61169e-24)
(-1.31949e-07 -3.1107e-07 0)
(-1.16632e-08 3.11054e-07 -2.56932e-23)
(5.8501e-09 -4.27484e-07 3.89664e-23)
(-2.63057e-07 6.6872e-07 9.32108e-24)
(3.851e-06 -8.70534e-06 -4.5973e-24)
(-4.9414e-06 -2.52853e-06 0)
(6.85185e-06 -4.95137e-06 -6.21758e-23)
(-1.72084e-06 -1.27102e-06 -2.32128e-23)
(-3.84714e-06 -8.53009e-07 2.94813e-23)
(1.61519e-07 4.97142e-07 0)
(1.4195e-06 6.71317e-07 0)
(-1.15617e-06 -5.62157e-07 0)
(3.73921e-06 -8.55355e-07 3.483e-24)
(-9.25297e-08 1.62377e-07 0)
(3.63955e-06 -9.44579e-07 -1.25145e-23)
(2.78482e-07 -1.47524e-07 0)
(-1.00273e-07 1.20083e-06 0)
(-3.00653e-07 1.902e-07 1.5423e-23)
(3.90215e-05 6.96821e-05 -2.36833e-23)
(-5.79572e-08 -4.23239e-08 -9.53863e-24)
(2.45267e-07 -9.14919e-07 1.19947e-23)
(6.29273e-06 1.46059e-06 2.16372e-23)
(3.57581e-06 -1.99531e-06 9.71656e-23)
(-4.56914e-07 -3.64482e-07 0)
(-0.000532661 -0.000695754 0)
(3.09982e-06 -5.09885e-07 -3.68466e-23)
(-1.16738e-07 3.78e-08 -5.29761e-23)
(1.44879e-07 1.77117e-06 0)
(-6.85713e-07 -8.75682e-07 -1.70248e-23)
(5.74058e-07 -3.01856e-07 -1.3114e-23)
(5.60329e-07 -1.53133e-06 0)
(5.14598e-08 -2.19288e-07 -3.98066e-24)
(-1.92442e-07 -6.61474e-07 0)
(1.71089e-07 -2.12273e-07 1.0758e-23)
(-5.77346e-06 -9.80379e-06 9.58616e-23)
(-4.80577e-07 1.74257e-06 2.18237e-23)
(0.000280779 0.000149201 3.80989e-23)
(-2.33688e-05 -3.4732e-05 -2.07588e-23)
(-3.53581e-08 -6.0699e-07 9.72805e-24)
(-1.51302e-07 -2.82491e-07 -1.47015e-24)
(-4.7577e-08 -4.18078e-09 0)
(1.08141e-05 1.98692e-06 0)
(-8.51329e-07 -2.85352e-07 -1.50847e-23)
(-5.5084e-07 -7.05665e-07 -1.79417e-23)
(-7.48735e-07 3.88151e-08 -4.19322e-23)
(-1.11999e-07 2.09148e-07 0)
(8.21169e-07 -6.29684e-06 0)
(1.85451e-07 -7.0162e-06 0)
(2.39061e-07 -1.39184e-07 4.42242e-24)
(-0.000117154 0.000156075 4.04157e-22)
(-7.5781e-06 -8.34033e-07 -5.64551e-24)
(-8.68389e-08 1.63663e-07 0)
(-2.51835e-07 -2.86727e-07 0)
(1.55616e-06 1.15809e-06 7.53253e-23)
(-6.07781e-06 -6.41369e-06 0)
(-6.92474e-08 -4.9056e-07 7.69717e-26)
(-5.98782e-08 1.63185e-08 -1.38208e-23)
(-2.33609e-07 9.13932e-07 0)
(1.49769e-06 2.56353e-06 -2.14113e-23)
(7.96808e-06 1.68174e-06 -2.60991e-23)
(3.06384e-06 5.6824e-07 0)
(-1.37432e-07 1.85494e-07 0)
(-5.75717e-07 6.185e-07 -8.06028e-24)
(-5.95186e-08 1.78936e-08 0)
(7.56304e-06 1.42961e-06 0)
(1.73563e-06 1.60701e-06 0)
(1.8969e-06 -7.46641e-06 2.86623e-25)
(-1.06491e-05 4.87339e-05 8.37882e-23)
(2.94418e-07 -1.03069e-07 1.79421e-23)
(-4.0602e-06 3.93851e-06 2.83482e-24)
(-9.42603e-07 -6.50333e-06 4.5863e-24)
(7.06182e-07 -1.69022e-06 4.83677e-23)
(1.02402e-06 -1.30117e-06 -6.66846e-23)
(1.00386e-06 -2.63612e-06 -1.62772e-22)
(1.17822e-07 -1.92933e-07 3.60678e-24)
(-1.59839e-07 -1.73934e-07 -1.25314e-24)
(5.37257e-07 -1.00704e-06 0)
(1.19453e-05 2.86115e-08 -1.74309e-22)
(-0.000535994 0.000154693 1.83349e-22)
(-5.16357e-05 -7.99063e-06 0)
(1.55977e-06 2.08468e-06 4.57015e-23)
(4.63536e-06 -4.84396e-06 -4.3533e-23)
(-3.69918e-07 1.70436e-06 -5.50438e-24)
(1.79357e-06 2.27167e-06 0)
(-5.10844e-06 -1.68314e-06 -5.88372e-24)
(7.62872e-06 5.02978e-07 -1.40026e-24)
(9.2028e-07 -5.14504e-06 0)
(1.40676e-06 2.11107e-06 0)
(-1.94562e-07 -2.08154e-07 0)
(-5.01166e-05 3.92777e-05 0)
(-1.02823e-06 -1.41612e-06 0)
(-8.95669e-07 1.27936e-06 -3.13009e-23)
(3.75755e-06 3.5358e-08 4.07764e-23)
(-4.10549e-06 -1.40467e-05 -2.74501e-23)
(-6.29808e-08 5.60685e-09 1.10762e-23)
(-5.16627e-06 -1.96186e-06 0)
(-2.39517e-05 2.37716e-05 -1.06792e-23)
(3.6165e-06 -4.5516e-07 2.78711e-23)
(4.09984e-06 -3.57634e-06 1.29998e-22)
(5.42258e-08 -3.49326e-07 0)
(3.14606e-06 1.71893e-07 -7.38716e-24)
(-1.45178e-08 5.29718e-06 -9.36146e-24)
(-5.23507e-06 -1.23245e-05 0)
(-2.04392e-06 -8.80535e-08 -5.18875e-23)
(-2.5706e-06 3.48283e-06 0)
(-5.93492e-06 1.43031e-07 -2.62442e-23)
(1.98461e-06 5.78207e-07 -9.18612e-25)
(6.09925e-06 -4.59243e-06 7.63508e-24)
(4.29407e-06 3.71777e-08 4.54036e-23)
(-5.55952e-09 -2.05151e-08 1.70164e-23)
(-1.69772e-07 -1.97883e-07 0)
(-4.42492e-07 -7.36621e-06 3.41538e-23)
(1.87927e-06 -2.54618e-06 -4.4169e-23)
(-1.56339e-07 -1.13845e-07 -1.77215e-23)
(3.15158e-06 -9.22359e-06 -1.29473e-23)
(4.55016e-07 -5.77545e-07 -1.43403e-23)
(1.0284e-06 5.71283e-06 0)
(-0.000435264 -0.000182407 1.37974e-23)
(3.84946e-06 -3.29835e-07 -2.61423e-23)
(2.13047e-06 -7.12392e-07 4.55845e-23)
(1.52313e-06 -2.71898e-06 -3.67791e-24)
(3.2261e-06 -4.77716e-07 -2.04732e-23)
(-5.66611e-06 -1.06223e-05 -9.04231e-23)
(-6.75523e-07 -1.03673e-06 0)
(-7.13969e-07 -1.59247e-07 5.94623e-24)
(1.00947e-06 5.12591e-06 4.11959e-24)
(1.4413e-06 4.86725e-06 -4.44629e-24)
(-2.26619e-07 1.73233e-07 4.74399e-24)
(-3.18323e-06 1.55816e-06 0)
(1.2198e-06 -3.18543e-06 -1.00899e-23)
(1.83996e-06 -6.91267e-07 -3.99149e-23)
(6.23731e-06 -4.61647e-06 1.82303e-24)
(-1.31507e-05 -1.73091e-06 0)
(1.57133e-06 -6.61992e-06 5.11257e-23)
(-1.21826e-06 -6.59975e-06 -8.17846e-24)
(5.60337e-07 -3.41113e-07 2.89697e-23)
(-1.97821e-07 -5.32429e-07 -2.29472e-24)
(-5.58865e-08 -3.20944e-07 6.85264e-24)
(-1.99434e-07 1.59366e-07 1.72547e-23)
(-4.50238e-06 7.48792e-08 0)
(-4.59164e-07 -1.35075e-05 -1.44975e-23)
(7.41992e-06 1.18995e-06 -9.73181e-24)
(9.57815e-07 -1.15775e-05 -1.40627e-23)
(-5.72202e-06 -4.42942e-06 0)
(-1.51266e-07 2.0134e-07 -3.99002e-24)
(-2.57753e-08 2.07141e-07 1.54081e-23)
(5.75453e-10 -1.47598e-07 0)
(3.52917e-06 -2.70518e-05 -4.86432e-23)
(1.51196e-08 -6.588e-06 1.79396e-23)
(1.26494e-06 -2.59071e-06 0)
(7.50034e-06 -3.0147e-05 5.16072e-23)
(2.76793e-06 -5.42025e-06 -5.92751e-23)
(1.23391e-05 -1.8916e-05 -1.80374e-23)
(2.04421e-07 -2.49505e-07 -4.69829e-24)
(-1.41249e-08 1.00465e-06 0)
(-5.39492e-08 8.65729e-07 0)
(-4.92134e-08 -3.8921e-08 0)
(-2.82561e-09 3.21086e-07 -2.76419e-23)
(-3.21677e-06 -1.38104e-05 5.24766e-24)
(-1.60947e-07 -1.14622e-07 0)
(6.30759e-06 -1.53509e-06 -1.81713e-23)
(-1.10914e-08 -2.70408e-08 0)
(4.11606e-07 1.54269e-06 -6.67125e-23)
(-7.16111e-08 -7.4467e-08 -1.74807e-23)
(-2.09408e-05 2.41905e-05 0)
(-3.32543e-05 1.22346e-05 -2.5975e-22)
(-3.11107e-09 2.83853e-07 -8.7889e-25)
(3.14485e-07 -1.50715e-07 0)
(-1.15826e-06 -1.55691e-06 -2.84737e-23)
(-1.15382e-06 1.44323e-06 0)
(4.4937e-07 1.30675e-06 9.59701e-23)
(3.76671e-06 -3.86766e-06 -3.90892e-23)
(1.36008e-07 -1.72007e-07 -1.83968e-24)
(-3.68588e-07 -1.08154e-05 2.26751e-23)
(1.38149e-07 -7.4994e-08 -6.23168e-24)
(-1.96136e-06 -1.67879e-07 3.88162e-23)
(-1.73255e-07 -2.32618e-07 7.53018e-25)
(-1.48069e-07 6.79946e-08 0)
(3.78256e-06 9.34788e-08 5.67075e-24)
(-1.87825e-07 -2.05231e-07 -5.52029e-24)
(-2.4402e-06 1.8662e-06 -1.52735e-24)
(4.56863e-06 8.25833e-06 1.66252e-22)
(-5.42339e-08 -2.69271e-10 0)
(1.78171e-08 3.3773e-07 0)
(4.14833e-06 7.93393e-08 7.73883e-23)
(-2.70472e-06 -1.91047e-05 -2.60594e-24)
(6.27369e-06 2.85862e-06 -4.59746e-23)
(-3.0739e-08 -3.3367e-07 9.21773e-25)
(-1.7629e-07 -7.3748e-07 -8.47955e-24)
(-4.06932e-08 -2.00124e-07 -6.97738e-24)
(-2.69814e-05 0.000260846 3.83446e-22)
(1.07267e-05 1.00108e-05 7.47562e-23)
(-9.84359e-09 4.45624e-08 2.41339e-23)
(9.5388e-07 -2.32922e-06 -2.31396e-23)
(1.34264e-05 1.03856e-05 0)
(4.90743e-06 -2.36932e-06 -5.66654e-25)
(3.19618e-06 2.52974e-06 0)
(-2.06065e-07 4.04858e-07 -2.6216e-23)
(-3.30227e-06 -1.28077e-05 1.83153e-23)
(3.88503e-06 -8.78825e-06 0)
(9.91442e-07 1.38424e-06 -4.26226e-24)
(4.1309e-06 1.37026e-07 2.04419e-23)
(1.99912e-07 -2.03649e-07 0)
(-4.01839e-06 -6.00232e-06 -1.91716e-23)
(-5.00561e-06 4.31292e-06 -1.73573e-24)
(0.000395923 0.000188327 2.82139e-22)
(4.94631e-07 -1.33429e-05 -3.87076e-23)
(-2.95273e-06 1.92926e-06 -2.02118e-23)
(-8.28674e-05 3.45509e-05 -5.65677e-23)
(-1.94264e-06 2.34798e-06 0)
(6.57616e-06 -1.19727e-06 0)
(3.97218e-06 -1.85262e-06 1.01066e-23)
(-4.8697e-06 -1.89579e-06 0)
(-1.97494e-07 -1.95846e-07 -5.54683e-25)
(9.65889e-08 -2.98231e-07 0)
(-4.84558e-07 -7.89565e-07 -1.96511e-23)
(-4.10041e-08 1.30021e-08 2.1916e-23)
(1.72696e-07 -7.03688e-06 6.73406e-23)
(-4.64186e-08 -4.27809e-07 7.14464e-23)
(5.27029e-05 3.49718e-05 3.31673e-23)
(8.83011e-08 1.13737e-06 -6.71722e-24)
(1.59316e-07 1.0392e-06 -8.4597e-24)
(6.76857e-06 -2.07097e-05 -4.47713e-23)
(-5.91912e-06 2.67909e-07 0)
(7.14052e-06 9.85624e-07 0)
(-7.27443e-06 1.17932e-06 -5.20296e-23)
(3.82659e-06 -1.21679e-06 9.50421e-23)
(2.66128e-06 -1.16958e-05 0)
(-2.20604e-08 1.7951e-07 -3.1068e-23)
(-3.47076e-08 -3.76646e-07 -1.15894e-25)
(-2.0586e-09 -1.99436e-08 -9.00798e-25)
(-1.3901e-06 -4.23251e-07 0)
(-5.57123e-06 -1.36929e-08 2.71265e-25)
(-5.05331e-08 -1.6119e-07 2.06388e-24)
(1.9508e-07 -2.48842e-07 0)
(2.57706e-07 -1.19265e-06 1.7596e-23)
(7.24681e-06 -1.29656e-05 -5.62217e-25)
(-1.02406e-06 -2.41331e-06 -4.60486e-23)
(2.09168e-05 -4.88844e-06 0)
(5.78372e-08 1.61501e-06 -6.1871e-23)
(-9.12846e-07 -8.43366e-07 -2.96413e-24)
(-2.13096e-07 -4.60139e-08 -2.6972e-24)
(-2.73425e-07 5.76904e-07 -1.94895e-23)
(-3.06537e-08 3.3376e-07 7.27951e-24)
(-1.77321e-06 1.01101e-06 -4.1316e-24)
(4.359e-06 -8.68243e-06 -1.69162e-22)
(-4.68499e-07 -8.18419e-07 0)
(1.46695e-05 -1.21331e-05 -5.48427e-25)
(-1.46735e-07 6.29661e-08 0)
(6.82124e-08 -5.75873e-07 0)
(8.71112e-07 1.57122e-06 1.70004e-23)
(-5.45465e-08 -3.06528e-08 0)
(-1.69673e-06 -1.87e-06 0)
(9.8769e-08 5.06641e-06 -2.85748e-23)
(3.965e-06 2.30556e-06 5.30982e-23)
(3.93355e-06 3.22047e-08 0)
(-6.01432e-08 2.40952e-07 -3.2252e-23)
(-2.80768e-07 -2.83569e-07 4.13219e-26)
(7.50536e-08 9.05746e-07 3.37657e-23)
(2.59974e-06 -3.43556e-06 0)
(1.28472e-05 -8.87596e-06 6.24069e-23)
(-8.13176e-07 -5.06809e-07 1.49655e-23)
(-7.27117e-09 -1.01837e-08 1.3206e-23)
(-4.72486e-08 -2.39726e-09 -1.86588e-23)
(-7.19196e-09 3.40228e-07 2.98181e-23)
(-7.20939e-06 -4.98608e-06 -2.65157e-23)
(2.72833e-06 -4.5792e-06 -1.44444e-23)
(-3.87207e-06 -3.04801e-05 -2.68936e-23)
(-1.9525e-06 2.58569e-06 -2.32507e-23)
(-2.07856e-07 -2.47807e-07 -2.92973e-24)
(1.28777e-05 4.07365e-06 0)
(2.19271e-07 -1.46022e-07 -6.2007e-24)
(-1.61774e-07 -2.14767e-07 7.62815e-25)
(-1.90618e-06 3.95715e-06 -1.09594e-22)
(-2.26858e-07 8.74321e-08 0)
(5.39271e-08 -4.28582e-07 -8.7225e-24)
(6.1833e-06 1.44074e-06 -7.3968e-24)
(-6.60828e-08 -8.5724e-08 2.58728e-23)
(-0.000205268 -2.14246e-06 0)
(9.38611e-06 1.11473e-05 -6.0304e-23)
(-4.19515e-06 -7.80613e-08 -4.0001e-24)
(8.67002e-06 3.90096e-06 1.50919e-23)
(-9.57087e-07 5.27847e-07 -5.29294e-24)
(3.10408e-06 -9.35454e-06 0)
(-1.01772e-07 -6.51575e-07 6.76474e-24)
(-4.40574e-06 -6.23847e-06 1.90183e-24)
(1.00589e-06 -5.82513e-06 3.28053e-23)
(-6.28757e-07 -3.92963e-07 0)
(-4.6116e-08 1.1524e-07 0)
(-4.73364e-07 -7.23078e-07 -2.28902e-24)
(1.80929e-06 1.40876e-08 0)
(-2.19339e-06 5.47236e-06 3.24319e-23)
(8.60071e-08 -5.18672e-07 0)
(-1.19036e-08 1.20423e-08 0)
(-0.000372922 -0.000702437 -1.77053e-22)
(-8.60786e-08 1.44594e-07 1.1879e-23)
(7.54342e-08 -1.47495e-07 7.5651e-25)
(8.9674e-07 1.64251e-06 7.0534e-23)
(-1.17368e-07 1.26079e-06 0)
(1.83324e-07 -1.35428e-06 5.97771e-26)
(2.91799e-06 -1.05853e-05 0)
(1.20662e-07 -3.3271e-07 -1.05002e-23)
(-7.23246e-08 1.05191e-07 2.00258e-24)
(3.59491e-08 -3.194e-08 6.94981e-24)
(-1.47979e-06 -1.38605e-07 0)
(-1.31299e-08 4.8953e-08 -2.43379e-23)
(-2.24685e-06 3.31193e-06 0)
(-2.49402e-07 -6.1376e-07 1.8413e-24)
(-5.39193e-07 1.08524e-06 0)
(4.42111e-06 3.10097e-07 -7.02809e-23)
(-3.00758e-08 -2.96104e-09 0)
(-2.53015e-07 -2.45024e-07 0)
(4.35024e-06 2.64207e-07 0)
(-1.4962e-06 7.39174e-08 2.87123e-24)
(3.64655e-06 1.77037e-05 5.5322e-24)
(-2.00959e-06 -1.4934e-06 -9.41797e-23)
(-2.81405e-07 -1.82759e-07 1.09941e-23)
(4.81306e-06 -3.63093e-06 4.81178e-23)
(-3.28174e-08 1.31298e-07 0)
(-3.45938e-07 -6.84632e-06 9.52677e-24)
(-9.90003e-06 -2.41111e-05 0)
(1.07307e-05 8.84445e-06 -9.44445e-25)
(6.84117e-07 -2.6733e-06 0)
(8.00673e-07 1.77569e-07 4.4041e-23)
(3.09276e-06 -2.15954e-06 -9.835e-23)
(-5.75118e-06 5.45768e-06 0)
(1.17077e-06 -1.28775e-06 5.30306e-23)
(5.42755e-09 -3.08817e-08 0)
(2.06511e-06 -7.34432e-08 -2.48923e-24)
(-4.05014e-06 2.00578e-05 -2.66954e-23)
(0.000382918 0.000168854 2.24071e-23)
(3.63649e-07 1.58179e-06 4.15768e-23)
(5.27641e-06 2.43807e-06 -1.37874e-22)
(-1.24251e-07 2.07539e-07 1.04978e-23)
(7.93155e-06 2.46711e-06 6.32002e-23)
(-2.36358e-08 -4.00162e-07 -6.49632e-24)
(2.69034e-07 -1.42893e-05 6.73456e-23)
(-5.50372e-08 -5.64494e-08 0)
(-6.56503e-08 -1.3276e-07 -7.59958e-24)
(4.68033e-07 5.1334e-07 5.20634e-23)
(-1.16734e-06 3.36557e-07 0)
(1.24449e-08 3.0329e-07 0)
(3.08074e-07 -1.85739e-07 -2.42521e-23)
(-6.43061e-08 -1.24583e-07 -2.76518e-24)
(-1.01411e-05 3.54813e-05 9.48837e-24)
(1.79901e-05 -5.20525e-06 0)
(-9.49701e-07 -3.6335e-07 -1.43242e-23)
(4.04822e-06 3.51753e-07 -6.88732e-23)
(0.000332354 -0.000375784 0)
(6.55395e-06 -9.97838e-07 1.91606e-24)
(-2.957e-08 1.31254e-07 1.97173e-26)
(6.99684e-06 1.31744e-06 0)
(-2.85569e-07 4.1696e-07 1.43436e-23)
(-4.53084e-08 -2.61369e-08 -7.01836e-24)
(3.44057e-07 -3.38282e-06 0)
(-1.14048e-06 1.36464e-07 0)
(-5.44342e-07 9.81508e-07 4.15564e-23)
(2.78675e-06 1.98873e-06 0)
(5.72938e-08 -4.25462e-07 2.31514e-25)
(-1.59122e-06 1.01123e-07 1.28228e-24)
(-7.15285e-08 1.83109e-06 -3.40957e-23)
(-2.40416e-07 2.14533e-07 -3.21679e-23)
(-3.52078e-08 -4.67816e-09 -9.8758e-24)
(-1.18246e-07 -6.59092e-06 -1.24855e-23)
(1.22013e-06 2.5997e-06 9.78161e-23)
(-6.10566e-08 -7.07047e-08 6.01991e-24)
(-4.38033e-08 -5.64763e-08 9.97501e-24)
(7.84886e-07 3.41569e-06 8.07967e-23)
(-8.99082e-08 -3.70613e-08 1.99175e-23)
(-5.82694e-07 -7.35222e-07 0)
(-2.10933e-06 -1.25346e-06 4.12439e-23)
(1.63893e-06 -1.69583e-06 4.24093e-23)
(-9.76285e-07 -2.78569e-06 0)
(-1.47e-07 -1.41209e-07 0)
(-6.24512e-07 -1.07929e-06 1.47508e-23)
(-7.79109e-06 1.16417e-06 -3.31297e-24)
(-5.54557e-08 -2.7978e-07 0)
(-3.10006e-11 2.85042e-07 2.69869e-23)
(-5.33765e-06 1.82867e-06 -4.52318e-23)
(5.95509e-08 -5.02232e-07 -1.04099e-24)
(-2.23367e-07 1.47155e-07 0)
(0.000381879 0.00053717 -1.52193e-24)
(2.59965e-06 2.02787e-06 0)
(3.84675e-08 -6.0347e-07 0)
(1.37361e-05 -8.19279e-06 0)
(2.99802e-06 -5.44738e-06 0)
(5.18674e-08 -6.09969e-07 -2.42955e-23)
(-8.10463e-08 5.19971e-08 4.5491e-24)
(2.17468e-06 6.66146e-06 0)
(-9.79983e-08 9.46095e-08 -5.92915e-24)
(-2.6852e-07 -2.64655e-07 7.7389e-26)
(3.80701e-06 -1.39653e-06 0)
(-2.44356e-08 1.01416e-08 0)
(-5.83371e-08 -1.72442e-07 -4.28065e-24)
(-6.70616e-07 -4.46064e-06 -4.04739e-23)
(1.16973e-05 2.3081e-05 0)
(4.73317e-06 -2.54066e-06 -1.59886e-22)
(-2.25532e-06 2.35149e-06 5.89719e-23)
(-3.962e-06 -1.07591e-05 0)
(-4.9832e-08 1.71183e-07 0)
(1.13797e-06 2.74167e-06 1.60147e-24)
(-6.65425e-05 2.06303e-05 5.40676e-23)
(7.06104e-08 -3.74049e-07 -1.38689e-23)
(2.16632e-05 -6.52986e-06 7.52411e-25)
(3.11223e-06 1.24957e-05 -2.43192e-23)
(1.46274e-05 1.0707e-05 0)
(8.73535e-06 -3.88802e-06 2.69055e-24)
(-8.76214e-09 -4.0233e-07 -1.91369e-23)
(4.89679e-06 1.24574e-07 0)
(6.18906e-07 2.5832e-06 -1.06759e-22)
(8.37825e-05 -0.000197669 0)
(-5.29202e-06 2.0952e-06 3.31469e-23)
(-1.96041e-07 -5.93252e-07 0)
(-1.11836e-05 -1.12298e-06 -2.59559e-23)
(6.93259e-07 1.07246e-06 -5.73088e-23)
(-0.000367752 -0.000147622 -9.66594e-23)
(8.01785e-08 -6.57311e-08 2.25664e-25)
(-4.08809e-07 -2.30921e-06 0)
(5.81953e-06 1.9776e-06 0)
(5.68975e-07 1.03834e-06 -1.20172e-22)
(-8.52801e-08 -4.14804e-07 4.90008e-25)
(-7.00142e-06 1.20084e-06 3.9966e-23)
(1.01007e-05 -3.11098e-06 1.19055e-22)
(-5.37654e-06 4.51048e-07 -2.80276e-23)
(-1.74933e-07 3.4906e-07 -2.06487e-23)
(-1.17588e-05 2.93541e-05 0)
(-2.53548e-07 -2.3536e-06 0)
(-5.81521e-06 -3.37108e-06 1.83847e-23)
(2.93004e-06 -4.99869e-07 -1.51749e-22)
(-8.32316e-08 -2.1178e-07 -7.1711e-24)
(2.67528e-07 -1.47553e-07 -1.62632e-23)
(1.33239e-05 1.41908e-05 -9.43059e-23)
(-5.90254e-06 -2.0922e-08 0)
(-4.97906e-06 5.68861e-07 0)
(2.82901e-08 -4.11905e-07 4.967e-25)
(4.81855e-06 8.95405e-08 1.5371e-23)
(-4.72027e-08 -5.69832e-09 -1.98167e-23)
(-4.948e-05 -3.91328e-06 0)
(3.19144e-07 -2.03428e-07 0)
(-6.58541e-07 -3.28383e-07 5.04583e-24)
(3.98287e-06 2.17713e-06 6.74511e-23)
(-6.16177e-08 -7.42439e-08 -6.30734e-24)
(-2.22755e-06 -1.81202e-06 0)
(1.05248e-07 -3.66882e-07 6.49867e-24)
(-3.88512e-06 -1.33379e-06 0)
(-6.38681e-07 1.19522e-06 -4.11977e-24)
(-2.3704e-07 1.69018e-06 -7.48076e-25)
(3.1677e-06 -6.75961e-07 -1.50622e-22)
(-8.3656e-10 1.04e-07 0)
(-1.70068e-07 -9.19319e-08 0)
(2.45032e-05 5.75034e-07 1.68109e-23)
(1.57893e-06 5.98241e-07 -3.63166e-23)
(2.05883e-07 -2.39654e-07 5.8296e-24)
(-6.80569e-08 2.40201e-08 0)
(-1.12565e-06 6.01206e-09 1.70635e-24)
(4.74869e-06 6.14176e-07 3.09382e-23)
(-6.62665e-07 -7.73948e-08 1.2811e-23)
(3.45496e-06 -9.02662e-08 8.96906e-24)
(-9.60288e-07 -4.08847e-06 0)
(-6.35759e-08 -4.97963e-07 -2.12931e-23)
(-7.83641e-09 3.47369e-07 4.80114e-25)
(2.10632e-06 -2.79894e-06 0)
(-1.43718e-05 -1.92273e-06 -1.00885e-23)
(-2.49092e-06 2.35535e-06 -4.80902e-23)
(1.19634e-07 -3.16681e-07 1.96716e-26)
(-1.23307e-07 1.78172e-06 0)
(8.10693e-08 -1.01577e-06 1.18115e-23)
(-2.40604e-07 1.47308e-07 1.80878e-23)
(-9.50053e-09 -1.03321e-08 1.1661e-23)
(6.53878e-08 -4.68216e-07 6.86962e-24)
(9.06331e-05 6.89854e-05 0)
(6.52876e-06 2.04145e-05 -2.72732e-24)
(3.29582e-06 -2.33498e-06 1.90285e-23)
(-4.4728e-08 -1.15106e-08 -2.07516e-24)
(4.21663e-06 7.7468e-08 -9.66391e-23)
(-6.17452e-06 -4.36508e-06 0)