/*--------------------------------*- C++ -*----------------------------------*\
| =========                 |                                                 |
| \\      /  F ield         | OpenFOAM: The Open Source CFD Toolbox           |
|  \\    /   O peration     | Version:  v2012                                 |
|   \\  /    A nd           | Website:  www.openfoam.com                      |
|    \\/     M anipulation  |                                                 |
\*---------------------------------------------------------------------------*/
FoamFile
{
    version     2.0;
    format      ascii;
    class       volScalarField;
    location    "400";
    object      ddt0(k);
}
// * * * * * * * * * * * * * * * * * * * * * * * * * * * * * * * * * * * * * //

dimensions      [0 2 -3 0 0 0 0];


internalField   nonuniform List<scalar> 
15335
(
1.454e-07
-3.9666e-08
-4.10344e-08
5.75639e-09
2.5599e-08
-1.08993e-09
1.89579e-08
-3.20217e-06
4.22278e-10
1.52172e-07
-4.61581e-08
4.39227e-11
1.96619e-08
1.65862e-07
6.12169e-08
-0.000143633
-1.85604e-11
4.08098e-07
-9.5613e-13
2.26917e-05
1.28779e-07
1.17873e-07
2.47794e-08
-2.97578e-12
1.3484e-07
1.24829e-07
2.30287e-08
-1.04766e-07
-4.00015e-09
5.3125e-10
-1.51649e-08
-7.87165e-07
-1.46106e-09
-2.36794e-10
5.16799e-11
1.49158e-06
1.64444e-06
0.00210638
-3.05091e-07
1.98792e-07
2.48489e-08
1.1177e-05
-3.51294e-10
1.35479e-10
-4.63948e-08
-3.94039e-12
1.21056e-06
7.30663e-07
3.04139e-07
-3.71217e-10
-3.4775e-12
2.64703e-08
7.52358e-06
3.82873e-09
-3.26781e-11
4.06427e-09
-3.81087e-07
9.29826e-08
-3.36106e-09
-5.49772e-08
-4.55677e-07
4.36377e-07
-7.41322e-08
-2.78226e-10
4.69384e-13
4.05725e-11
3.59124e-06
-6.1534e-07
1.2886e-11
-1.66258e-12
-1.12123e-09
2.47961e-10
4.58389e-08
-4.82422e-07
1.17524e-06
1.48231e-07
1.4044e-07
-2.63056e-08
4.56534e-07
7.71411e-10
1.04497e-07
2.26085e-08
6.74413e-08
5.78465e-07
-1.11243e-08
-5.08059e-12
-1.04419e-12
1.79115e-10
-7.63707e-11
-6.22324e-08
1.11092e-07
-1.00456e-08
1.48842e-11
9.99738e-06
-7.71377e-10
-5.3378e-11
-6.43077e-12
5.5773e-09
5.16033e-12
-9.23259e-11
-4.16806e-10
1.94419e-07
3.78104e-06
-9.71808e-09
-1.21928e-11
4.96457e-10
-2.96085e-11
-1.69902e-07
1.33781e-09
-5.52547e-08
-1.80328e-07
1.67212e-08
1.98734e-11
3.75644e-11
7.05661e-05
-1.64657e-10
-1.1927e-09
1.2558e-06
9.66983e-08
4.76456e-06
1.16075e-07
-2.45357e-06
-4.83496e-07
3.56815e-06
-9.44054e-11
3.40057e-10
1.2113e-07
1.02479e-09
-4.1563e-09
-4.33678e-11
-6.66807e-08
-4.81327e-08
2.77667e-12
4.8292e-08
-2.73597e-08
2.94733e-14
7.58034e-08
2.07826e-07
8.152e-08
-6.51958e-06
-7.02641e-09
-8.6293e-08
-1.45193e-07
-2.3338e-11
7.40832e-08
0.00392152
-4.79914e-07
9.57069e-09
1.42882e-06
6.00121e-08
-1.42239e-10
-3.50242e-07
2.42591e-10
-5.61142e-11
-8.62058e-08
6.09275e-10
5.21648e-07
-2.56803e-07
2.21688e-07
-4.23402e-07
-9.77108e-10
6.38882e-09
3.26464e-06
-3.09158e-09
-3.22978e-07
-1.96808e-07
-2.17039e-07
-4.58714e-12
-0.000126138
2.10016e-06
-0.0067226
-1.2377e-05
3.66464e-07
5.84516e-08
-1.59528e-07
4.30986e-10
3.25293e-12
3.26415e-06
0.000917626
-3.51881e-06
-2.71426e-07
7.43314e-05
-4.51362e-07
5.61826e-10
4.24753e-10
-3.45095e-07
-1.68235e-10
-8.5773e-09
-4.78674e-07
-9.67225e-08
3.98995e-08
2.24126e-07
-2.32468e-10
-6.89847e-08
-6.9382e-06
-4.46478e-07
-2.65571e-11
-7.90124e-08
-2.23326e-10
2.80196e-08
7.80466e-08
-4.24375e-08
1.86428e-07
1.461e-08
-5.68676e-08
-4.99672e-09
2.28595e-12
-8.68313e-07
-1.9359e-08
-4.87936e-09
-4.36775e-07
-1.6424e-10
-1.42287e-07
-4.81846e-10
-6.86778e-07
-2.40189e-07
-4.7169e-08
-3.63502e-07
-1.48039e-08
3.0832e-06
1.32633e-10
3.12744e-11
4.14776e-11
6.33139e-11
1.38277e-06
-5.44386e-06
-2.21378e-12
-1.18595e-07
9.7938e-10
-4.20229e-06
-5.18062e-12
6.99641e-12
3.21119e-07
6.16783e-07
3.82899e-06
2.00552e-07
-1.54314e-07
-1.28973e-08
7.34566e-12
-4.83571e-06
8.2607e-08
-1.64872e-07
-4.73965e-07
1.74198e-10
2.10134e-08
-4.91239e-12
8.95559e-10
2.89987e-08
-4.33368e-07
-4.76462e-07
-4.73986e-08
4.36529e-06
3.49668e-12
-5.52236e-12
-1.34198e-09
-5.86663e-07
-9.33941e-09
-1.41751e-07
-2.60998e-12
-1.86192e-08
1.74753e-10
-8.74179e-10
-5.14127e-12
-7.81503e-10
1.00929e-11
-4.22854e-12
-2.80707e-07
-2.31703e-07
-2.77643e-07
1.99296e-12
1.19454e-07
-3.11137e-07
-1.91795e-07
-5.73623e-12
-5.06839e-08
-2.3821e-10
2.72663e-10
1.73277e-07
1.44854e-08
5.02349e-10
2.024e-07
2.4258e-07
-8.73239e-12
-3.38379e-09
-1.31622e-10
8.22215e-08
4.9762e-07
1.12438e-10
-2.33304e-10
-1.4752e-09
-1.93075e-07
8.07791e-12
1.22945e-07
5.54438e-07
1.79698e-10
-0.00347917
-4.40734e-12
-8.91808e-08
4.97353e-11
-1.17604e-07
-6.36065e-12
1.65853e-07
-1.68933e-07
-2.73079e-06
1.40449e-12
1.05729e-06
-1.96781e-07
5.29351e-12
2.02483e-06
9.28871e-09
-1.47625e-07
3.6786e-12
1.31532e-07
2.93878e-06
2.26147e-06
-6.0368e-13
5.35739e-10
-2.95906e-07
1.01843e-05
9.8331e-07
2.06095e-07
-1.62111e-12
-1.75131e-06
1.75713e-07
1.99093e-10
-1.29282e-07
-1.54668e-07
-3.19539e-06
2.51852e-11
-2.63741e-10
-3.08897e-11
-2.35789e-07
4.45382e-11
-1.61977e-07
2.48272e-07
2.52765e-06
1.15091e-07
-5.87699e-08
2.13832e-08
3.40819e-08
-7.11468e-09
-3.20253e-10
-5.95181e-12
-3.23937e-08
2.29063e-10
1.30295e-09
-2.25312e-10
-5.63655e-06
5.80643e-12
9.23269e-08
1.29525e-08
-1.37629e-07
1.34814e-10
-0.00867101
-4.62536e-08
2.60986e-11
-1.54783e-07
-6.28993e-08
-2.19409e-10
3.20087e-08
8.52542e-11
-5.92012e-09
-1.70607e-10
2.88334e-08
-2.47356e-08
-3.92877e-06
2.15843e-07
7.62894e-09
9.94182e-11
-1.47314e-12
-3.65816e-06
-4.50228e-10
-1.44694e-08
-2.42621e-07
3.29679e-10
7.04226e-06
5.99512e-07
4.06468e-11
-2.32416e-05
-1.80035e-07
-1.15163e-12
1.5816e-10
3.06147e-08
1.55172e-06
-1.52748e-10
-7.73739e-12
-1.65015e-08
4.49331e-07
-2.52343e-08
-6.11699e-08
7.04762e-10
-4.00689e-10
-7.67257e-12
-4.09322e-08
1.58529e-06
3.13603e-06
-6.10475e-07
1.4693e-10
8.29349e-07
-2.93948e-07
3.64506e-08
2.15133e-08
1.19361e-07
1.79968e-11
3.36329e-11
7.63692e-09
-2.0581e-06
-3.15284e-05
-1.55287e-06
3.72642e-07
-2.70596e-08
4.27813e-09
1.24033e-06
-1.87026e-07
1.33977e-08
-3.10678e-07
1.35586e-07
3.90702e-10
2.33123e-06
-7.7811e-08
1.80249e-08
-6.29732e-08
3.28614e-06
-5.09734e-12
-1.39542e-07
-5.33299e-06
1.64128e-08
-2.64685e-07
1.22921e-10
-3.34383e-08
9.53706e-09
-8.7953e-06
1.17023e-07
-1.49464e-07
3.47232e-07
-3.28934e-07
3.17502e-08
-7.31404e-08
-4.185e-13
-1.01389e-11
2.97139e-07
-1.57012e-07
3.35116e-11
-1.59084e-07
2.04429e-10
-3.10232e-07
-5.6676e-05
2.13342e-08
-7.14943e-09
1.79117e-05
-4.80899e-08
-1.26901e-06
2.17368e-07
-4.7113e-10
1.63763e-07
2.70423e-07
-2.87156e-10
1.16092e-07
-4.79959e-07
2.58257e-08
1.3612e-07
4.73699e-05
5.00831e-07
-2.56315e-07
2.22627e-10
1.1143e-10
1.2618e-10
-3.14441e-10
5.27554e-08
3.03992e-06
3.33808e-08
-1.06061e-07
6.21149e-06
7.99567e-10
-1.85484e-11
2.10954e-12
-6.42011e-07
3.96502e-07
-1.52011e-07
3.93695e-09
1.19295e-06
-9.89569e-07
-5.79576e-11
8.01126e-08
4.48567e-10
-7.56793e-12
5.07392e-10
3.93164e-07
4.04912e-11
-3.65096e-07
9.50605e-13
-1.36711e-09
2.32409e-12
-9.71721e-06
0.000121553
1.14798e-09
1.03801e-10
1.16576e-08
1.3499e-08
-2.19444e-08
-2.74874e-07
-6.09087e-11
8.39003e-08
4.275e-11
1.18545e-07
4.09839e-10
-3.15725e-12
-5.59501e-08
-5.40499e-10
2.63057e-08
-1.52502e-06
-1.88855e-12
2.90273e-09
-7.25253e-08
2.69182e-06
-7.1158e-07
-3.98042e-11
8.07731e-10
1.1901e-11
-0.000146987
-1.58374e-06
-3.02892e-13
-1.33152e-07
-1.6434e-06
-4.34577e-07
1.76281e-07
5.60471e-11
6.64342e-07
1.10958e-06
6.85709e-08
-7.17769e-08
-3.52121e-11
4.7891e-07
7.91939e-07
-0.000150342
-7.48643e-08
1.58268e-07
2.75853e-06
2.0912e-07
-3.33683e-07
-4.56132e-07
7.47816e-08
9.62943e-11
2.21064e-10
3.56012e-08
-1.10548e-12
4.91246e-07
-3.3056e-08
-1.40442e-06
-3.24068e-08
-3.19458e-08
-7.04165e-05
-4.18303e-07
5.79269e-07
7.21887e-08
-4.99098e-07
-2.1727e-07
-6.84883e-12
-2.07442e-10
-3.76546e-12
-1.93319e-08
-3.26085e-07
2.3541e-11
-2.32218e-11
6.02763e-08
2.23203e-07
-5.36952e-06
-2.66308e-08
1.66492e-07
-2.06585e-07
5.37444e-11
3.22223e-10
2.41816e-09
-6.00268e-09
1.30879e-08
4.27602e-08
5.95206e-06
-1.33584e-11
-3.72921e-10
1.21603e-07
-8.14427e-12
-4.16538e-07
1.42427e-07
4.03433e-07
-6.70794e-08
1.01714e-10
6.77567e-11
3.32739e-11
-1.04625e-08
-1.39928e-05
-3.70822e-09
6.17689e-14
5.93821e-13
1.40851e-09
2.84739e-06
-7.69428e-09
7.61997e-08
2.10108e-07
-7.84537e-11
6.58219e-07
-1.53976e-10
5.19546e-11
-1.72078e-06
-9.74855e-11
-1.28321e-10
-1.65686e-08
3.77113e-12
5.18775e-06
-1.6231e-06
2.19921e-08
-9.02236e-07
-2.71972e-07
1.25449e-06
3.07059e-10
9.04515e-07
2.94479e-07
4.9037e-10
2.05113e-09
3.83676e-08
-3.04505e-09
-1.69018e-06
-1.73206e-09
-1.32491e-13
-0.000228043
-2.6711e-11
-8.13267e-11
9.42516e-08
-2.12017e-08
-1.5999e-08
1.43166e-08
3.95196e-11
-3.54483e-12
-3.08638e-12
-9.57704e-10
-1.7974e-13
-2.82844e-08
-3.62368e-09
1.60708e-08
-5.97961e-08
-6.1288e-12
-2.39275e-12
-6.59528e-08
-7.18193e-09
6.51202e-07
-2.05139e-07
-8.4691e-10
-1.35941e-07
1.09579e-11
-2.21721e-07
-4.02485e-07
-1.59423e-06
-6.54294e-07
8.19076e-08
-1.43893e-07
7.19649e-07
1.31198e-05
-1.4365e-12
-1.21053e-08
3.57752e-07
2.60604e-06
-5.32855e-09
4.47813e-07
-1.32589e-11
1.78126e-05
2.47961e-10
1.80447e-06
-2.76946e-12
2.27978e-11
-4.41655e-07
-7.147e-08
1.27375e-10
-9.49482e-11
2.23846e-11
-1.0547e-06
-1.40069e-08
-7.44025e-09
-6.37284e-08
-3.78746e-06
-3.45838e-07
1.05819e-11
5.70376e-07
8.3531e-10
4.92507e-12
-6.03414e-08
-1.64839e-09
3.28859e-10
5.64667e-08
-8.74898e-11
4.81236e-09
-7.02223e-08
-6.03369e-10
-6.93758e-12
-2.8459e-07
-1.51926e-05
4.36002e-12
3.058e-12
1.3148e-07
7.99092e-12
-1.89541e-07
-6.69499e-07
1.09366e-07
2.79925e-08
2.60459e-11
9.75507e-08
-4.5659e-07
6.52107e-09
-2.30623e-10
-9.1049e-07
1.55957e-10
-3.93812e-10
0.00560177
6.06285e-08
3.50216e-10
-1.84295e-07
-1.23292e-06
1.04523e-10
3.2349e-11
-9.65862e-07
-8.52998e-11
1.5113e-10
-1.52626e-08
2.28086e-13
2.27343e-11
1.99669e-08
-2.31608e-06
1.64782e-08
1.95489e-07
3.36121e-06
2.03942e-12
2.2069e-07
4.10423e-06
-5.17612e-10
1.41182e-09
-2.87386e-07
9.63759e-09
-1.05506e-07
1.18499e-08
-4.26466e-08
-1.24906e-06
3.99056e-06
-6.69503e-07
3.99762e-10
-8.98585e-07
-5.13753e-07
0.000204336
-9.00363e-12
-3.56208e-09
3.97063e-07
1.27311e-08
-1.47423e-10
1.28274e-07
7.87846e-09
3.94771e-07
2.20821e-10
0.000127592
-8.42532e-08
-3.97018e-07
-3.86181e-08
-2.79751e-11
2.13828e-10
2.02085e-06
3.20701e-07
3.65291e-07
-4.17893e-10
-4.9372e-08
-6.16423e-12
-2.07362e-06
-1.18446e-10
4.34012e-10
4.78923e-07
2.29817e-12
-9.52581e-08
-8.21433e-11
3.11907e-08
-1.00642e-09
5.71532e-09
1.96165e-08
1.18302e-09
4.01645e-11
1.53483e-09
1.64353e-08
-3.9967e-11
-6.18213e-12
5.51216e-10
-1.68775e-07
2.93258e-08
-1.34209e-07
1.50815e-07
1.41258e-10
-8.42003e-10
1.86518e-07
-1.79766e-06
1.83159e-07
6.42982e-11
-3.60703e-08
1.09945e-08
-4.59455e-10
2.93687e-12
-3.5571e-10
2.42395e-05
9.47981e-07
1.85242e-08
4.15402e-12
-6.88547e-08
2.8853e-06
1.88473e-10
-7.679e-11
-1.00989e-07
6.75614e-12
8.51657e-07
4.95782e-07
1.44481e-10
-4.46461e-10
1.43942e-09
9.99069e-11
-3.82499e-10
2.08566e-12
6.92653e-07
-1.37168e-07
-9.32124e-09
5.50736e-09
1.02039e-09
2.59704e-11
4.76849e-12
6.11501e-07
-2.02629e-06
9.28647e-08
1.12807e-10
-6.20179e-10
1.6016e-08
-2.31198e-10
-9.6184e-08
2.1667e-10
-6.72168e-08
1.03931e-05
5.04924e-08
-6.18081e-10
-1.67087e-11
1.53781e-06
-3.48702e-07
-5.70799e-11
3.69811e-08
3.16576e-13
-3.73612e-07
-1.26761e-10
-7.04577e-11
-1.99738e-10
1.74411e-12
1.79381e-08
-1.19126e-09
3.61248e-12
8.5003e-06
-9.53389e-09
1.37916e-06
-3.94806e-08
2.32174e-08
-4.15165e-12
1.2096e-06
2.69145e-07
-0.000221664
1.63062e-11
5.0399e-09
2.29099e-09
1.73063e-08
2.99466e-08
-1.97123e-06
1.1284e-12
2.24357e-09
-4.82199e-09
1.81439e-10
2.19959e-09
-1.429e-11
-1.82837e-10
-3.00447e-07
1.35212e-06
-2.80384e-10
-2.14022e-07
-8.50686e-06
-7.94719e-12
8.6827e-10
4.2652e-08
-3.89207e-06
5.23808e-07
3.58937e-12
7.00046e-09
-9.02135e-10
-5.27943e-07
1.51778e-07
-6.15777e-08
-1.1868e-06
-3.52235e-11
5.88111e-08
-5.7542e-11
-2.4472e-07
9.12545e-10
-5.24193e-07
-3.53737e-06
-5.82611e-10
-3.55333e-13
-3.77969e-11
3.9814e-07
2.79288e-05
-2.91444e-10
3.29998e-11
-1.52861e-08
-2.125e-11
7.45279e-07
-3.03431e-06
3.30069e-12
-3.30951e-11
4.87939e-07
-1.68949e-10
-2.171e-07
0.0521174
2.03184e-10
-7.26354e-11
3.40228e-08
1.9674e-10
8.066e-09
1.48987e-08
-3.04987e-07
1.63104e-10
4.58534e-12
-2.51728e-07
3.57496e-11
3.2577e-11
-3.83051e-09
2.77519e-08
9.45506e-11
-1.80226e-05
-1.26144e-11
-1.05596e-10
-4.03588e-10
-2.78161e-07
1.62523e-08
1.61569e-10
-3.61849e-09
-2.10578e-07
1.5008e-11
3.73168e-08
-6.1963e-12
-1.23766e-07
-4.07028e-10
-1.66023e-08
-2.38061e-10
-1.17141e-05
-6.68182e-08
4.33877e-11
1.43899e-10
-3.69538e-07
2.83412e-10
-4.48053e-07
-1.08305e-05
4.18892e-10
1.23965e-10
-1.97022e-07
1.60912e-05
7.48306e-11
-4.28489e-08
-1.46173e-10
7.83363e-06
1.34748e-07
-1.12331e-13
1.26262e-06
4.84221e-11
4.04616e-09
1.70463e-06
3.44507e-06
-4.82185e-11
3.48312e-07
-4.74505e-12
-2.73363e-07
1.15043e-09
2.23421e-10
3.79293e-09
-6.2856e-08
-8.2538e-08
5.37904e-07
-1.29875e-07
4.82226e-06
3.92825e-08
-5.55756e-07
-5.77328e-12
7.89597e-07
2.82778e-05
-2.71608e-09
-7.05128e-07
5.17802e-07
7.80591e-13
-1.04475e-07
-5.75563e-08
-1.66876e-07
4.22251e-08
5.74928e-06
-6.41803e-11
-3.81152e-06
8.95127e-10
-1.88109e-07
-1.2146e-11
-4.10171e-07
-4.41327e-12
-3.32208e-07
-1.19173e-07
5.82619e-08
3.43236e-08
-1.33215e-07
-5.61173e-07
3.31523e-13
4.61624e-07
3.15814e-08
2.4133e-06
-3.11593e-12
-1.70731e-07
-1.13965e-11
1.00421e-08
-1.29401e-08
1.77538e-07
-2.18969e-07
-1.76407e-13
1.55143e-07
-1.46498e-07
3.21855e-09
4.10681e-06
1.18032e-06
1.42798e-05
-1.94666e-12
5.67513e-07
1.61843e-08
2.98438e-09
1.05037e-08
1.73724e-12
1.49841e-10
1.2796e-10
-9.52377e-12
1.03132e-10
9.19899e-06
5.65733e-09
-9.97088e-07
-1.62234e-08
1.15e-09
1.40823e-10
-3.67029e-08
3.64099e-06
-5.20807e-12
-5.32076e-09
3.56548e-07
1.86352e-05
6.53072e-07
7.95443e-09
4.67645e-08
5.26099e-06
-3.38302e-11
-9.72934e-11
3.98381e-06
-5.72329e-12
-2.65279e-07
-6.70984e-12
-6.11344e-13
-9.45283e-08
1.40798e-07
1.01201e-06
-4.91783e-07
1.12625e-08
-7.00965e-12
1.67783e-11
-6.83875e-09
-1.13409e-07
-1.87391e-07
-6.13624e-08
-1.7749e-13
1.79733e-10
9.15788e-12
-1.0229e-09
-4.41294e-10
-6.93756e-10
5.52958e-12
-5.86428e-10
-2.99792e-09
9.69619e-12
-9.98521e-11
-1.15966e-07
5.07388e-08
-6.24054e-10
-1.41738e-07
3.91365e-10
1.37171e-12
5.50747e-08
-4.03267e-06
2.63256e-10
-3.02087e-08
9.54738e-08
1.24355e-06
6.0025e-12
-7.88196e-06
-2.78201e-06
-4.418e-07
-1.76736e-07
-2.14302e-08
2.68117e-07
0.000120012
-3.8861e-10
-3.63007e-10
-3.38353e-07
-3.79571e-07
1.0979e-10
1.91773e-12
6.05949e-08
-2.0778e-08
4.06473e-07
-7.55922e-14
-3.33354e-09
-2.59515e-07
7.05101e-08
-2.9629e-07
3.17376e-11
-8.32014e-12
1.19143e-07
7.21209e-08
-1.91302e-10
9.90168e-05
0.000137153
-2.80897e-07
-1.55869e-06
7.47178e-10
-1.12509e-10
4.16025e-08
3.03717e-05
1.95015e-07
2.49458e-08
-1.91388e-09
1.32292e-07
-6.55149e-08
2.20615e-08
-1.20396e-11
2.20857e-12
4.10077e-07
7.01432e-09
-1.29566e-14
1.3842e-07
-1.42252e-09
-3.12679e-11
-2.52359e-13
-2.01491e-08
3.88529e-09
-2.03314e-07
-7.36659e-12
1.63332e-10
-3.4288e-08
1.7671e-06
1.51619e-09
3.00761e-06
1.09136e-08
8.93254e-11
-8.47035e-12
-1.31676e-07
-2.53115e-07
1.27381e-06
1.35174e-07
-1.46164e-07
-1.72712e-05
-1.06792e-10
-2.84057e-07
1.26063e-08
1.09537e-07
-6.82246e-08
-4.9715e-10
1.56619e-08
3.74394e-08
7.34007e-08
3.95824e-09
7.02873e-13
-5.58282e-09
7.4524e-10
7.08056e-07
1.47746e-08
-7.21613e-08
-1.10417e-10
3.25096e-06
-2.38215e-07
2.826e-09
1.31836e-07
-1.45075e-06
1.7802e-10
-1.07419e-07
8.09074e-08
-1.53411e-05
-3.58992e-06
-1.27251e-07
3.28092e-10
8.43814e-08
2.45198e-07
1.65187e-05
-2.09887e-08
-7.91987e-08
3.70591e-07
-6.42285e-06
1.999e-10
6.20796e-10
1.66177e-11
6.83844e-12
3.36924e-12
-2.76923e-06
4.8245e-09
5.04845e-12
-5.66191e-10
1.17889e-06
-1.67726e-11
-1.77888e-07
-1.27266e-07
-1.60735e-06
-4.9317e-08
-1.40141e-11
-2.32919e-06
-9.46373e-11
6.29522e-08
-2.03906e-13
2.44495e-07
-6.34974e-08
-3.06973e-07
-4.91334e-07
-3.61161e-09
2.26126e-06
-1.84277e-07
7.5849e-09
-3.90576e-08
0.000191575
2.01348e-07
-8.92654e-08
-1.27085e-07
-3.17556e-10
-3.92901e-08
4.57837e-09
-3.02242e-13
-2.24311e-08
3.19707e-06
2.31974e-07
-2.89378e-11
1.4802e-09
6.86393e-13
-4.83709e-08
-1.96407e-07
-1.73766e-10
-2.26018e-11
-6.21006e-07
-2.20053e-10
-6.28087e-12
-5.44805e-13
-1.94033e-08
0.000302958
-1.27366e-07
9.37651e-11
2.50618e-07
-9.96037e-13
2.68329e-10
-3.72257e-07
-4.54965e-11
-4.29131e-07
-1.73612e-07
3.94389e-11
1.17716e-10
7.09875e-10
-2.71812e-11
-3.22865e-11
-2.15241e-07
5.27906e-07
6.26803e-10
-6.15222e-12
-2.55157e-10
1.23248e-07
4.8037e-06
-3.14202e-08
-4.63035e-12
-3.02798e-11
6.77621e-08
9.31283e-09
-3.97137e-08
7.96052e-14
1.19028e-11
2.26178e-09
-8.93956e-08
-3.59214e-10
3.38606e-08
6.25347e-09
-3.36363e-10
1.66502e-10
-7.95164e-12
4.33591e-08
2.04431e-11
-1.4955e-11
5.08143e-06
-3.03782e-11
6.71248e-08
-4.38274e-12
7.70791e-11
-1.65646e-11
1.285e-13
1.13815e-06
-0.000108358
-8.35183e-08
4.73067e-06
4.33393e-09
3.00246e-08
-1.93055e-08
-5.95363e-10
1.34673e-07
-8.26924e-06
1.27481e-12
1.19031e-07
-2.9283e-05
-5.41934e-07
-2.88695e-06
4.38566e-08
-2.91484e-07
-4.29126e-13
6.46457e-07
2.08462e-07
-1.74686e-06
-1.89434e-08
1.53132e-07
-4.7617e-08
-1.62461e-10
-4.63052e-09
7.56759e-09
4.02215e-08
-2.93318e-07
-2.86847e-08
-1.136e-07
-6.1318e-08
-3.81934e-06
-5.58318e-08
-9.53556e-08
9.00868e-08
1.59767e-10
-3.04093e-07
-1.04541e-13
1.24439e-07
0.0128857
2.08263e-08
2.92343e-06
-1.03007e-08
5.38863e-07
-7.99788e-12
-3.78241e-06
6.09774e-08
-2.82042e-11
-6.17629e-09
5.89262e-12
-7.31362e-09
5.59476e-10
1.42712e-08
-9.77621e-06
1.79892e-12
-6.46655e-10
3.909e-08
3.55126e-10
7.67805e-06
-2.41608e-10
-4.62349e-08
-7.52205e-12
-3.49056e-08
-6.17635e-12
-1.52533e-10
-8.74729e-08
-1.80282e-07
-1.36117e-08
-3.66098e-07
-7.09378e-09
-1.1542e-11
-4.15333e-07
1.59708e-10
-7.48214e-11
-5.75575e-08
2.37647e-07
-6.6686e-08
-4.59641e-07
8.42448e-13
-7.51518e-07
-4.87383e-09
1.3728e-12
-2.04386e-13
-2.47196e-06
-1.58528e-06
0.000147736
-1.99692e-07
9.63477e-08
1.33773e-07
-2.20274e-12
2.69493e-08
1.46109e-06
-1.72831e-11
2.32459e-07
1.22036e-06
-3.7015e-07
-0.000748698
3.73205e-08
-2.23997e-10
2.64595e-10
1.73464e-10
8.77027e-12
3.8996e-08
-1.3412e-14
-1.69626e-06
-5.99122e-12
4.46335e-07
-2.2176e-07
-4.39961e-07
-2.51673e-07
2.38272e-09
9.42461e-08
-1.41302e-12
-6.10271e-07
-1.87699e-08
-5.31527e-08
3.0907e-10
-3.11072e-10
-0.000225461
-1.53391e-06
4.57582e-07
-2.45586e-09
-9.13324e-12
6.18724e-10
-0.000115298
-0.000500412
1.13625e-10
5.67418e-08
-3.43886e-07
-1.04099e-11
1.26179e-09
8.20732e-09
1.84446e-08
-6.28745e-09
-4.58655e-07
-2.06513e-07
-3.81083e-11
7.13372e-08
-2.50557e-07
-1.75227e-11
-5.58053e-07
-5.92365e-09
-8.9918e-08
-1.77559e-08
1.80701e-08
-5.11228e-09
-2.658e-07
-2.0862e-10
-2.28833e-06
2.55143e-10
-3.28339e-06
-2.52119e-10
-7.0986e-08
4.32168e-11
-7.3382e-08
-4.41962e-08
-6.14056e-08
-8.17444e-05
-0.00186038
-5.54298e-09
3.23901e-07
-4.44395e-10
-3.68803e-10
-8.14178e-12
-4.15747e-07
7.69831e-11
9.07652e-08
1.07995e-08
-1.76569e-09
-2.20703e-07
8.89323e-10
-6.92738e-12
-1.54735e-12
0.00350753
2.67822e-10
-9.50467e-09
7.40162e-10
8.54443e-09
1.95927e-07
1.21393e-07
-8.15663e-12
-3.18879e-07
1.06905e-10
-2.08242e-10
1.95154e-11
2.89418e-06
2.43392e-10
3.6071e-07
4.84107e-12
3.94788e-08
3.10051e-07
2.13374e-10
3.19239e-06
2.55594e-06
8.14686e-08
7.89663e-11
-1.10192e-07
-3.61851e-08
9.62157e-05
-1.55227e-10
8.14742e-11
8.87668e-07
-2.02251e-07
2.45581e-10
6.77749e-07
-3.23501e-07
-4.21114e-10
3.00423e-07
1.04613e-11
-3.81347e-08
-1.48815e-10
1.80406e-13
1.66687e-10
-1.26452e-11
5.37188e-08
2.13328e-10
-1.3959e-09
-9.33446e-07
1.07713e-07
2.16337e-06
4.02947e-07
-5.676e-09
-9.82791e-12
5.49834e-07
-2.01758e-05
1.06074e-13
-2.30796e-08
-5.8156e-10
-4.3834e-08
-6.76354e-08
-1.93872e-06
3.24768e-10
6.46443e-06
-3.96394e-12
9.00905e-08
3.55666e-07
3.74129e-08
1.31258e-07
2.71524e-08
-3.86284e-07
-5.24759e-09
3.20611e-12
4.0182e-09
5.99861e-07
1.1567e-08
-2.61662e-08
-1.63619e-07
1.47832e-11
-2.36891e-07
-3.49503e-12
8.11775e-11
-1.78985e-10
-2.54802e-07
-1.77219e-11
1.48965e-07
-2.71321e-07
3.46954e-08
1.59086e-08
-5.339e-08
4.09167e-07
-9.41435e-09
1.3427e-10
-1.20626e-13
-1.4195e-11
1.3516e-10
-8.87377e-11
-5.65006e-08
-3.31212e-09
1.60768e-11
-3.92896e-12
3.00825e-08
-3.24124e-08
1.6132e-07
2.36157e-08
1.50888e-06
-0.0143153
2.88159e-07
2.16898e-07
-1.76823e-07
2.49431e-10
1.79064e-11
-2.93923e-08
2.97562e-08
-4.53904e-12
-0.000117404
9.16982e-10
-1.77568e-07
-5.7702e-10
-1.53387e-07
9.37756e-07
3.23486e-10
-3.13513e-08
6.2608e-10
4.4261e-11
-2.48014e-06
-1.30723e-07
-9.29974e-08
-4.88214e-10
6.17712e-12
-2.45102e-07
-1.92622e-10
-6.69306e-09
-1.83712e-07
-2.89392e-10
-2.73765e-06
1.61521e-10
2.24418e-08
3.53863e-10
-1.43307e-11
3.42805e-10
5.43333e-08
0.000137375
-7.09768e-12
2.18311e-08
4.69404e-06
-9.37975e-12
-5.56223e-12
1.42737e-09
-6.91477e-08
-3.90439e-07
3.14421e-06
-5.1596e-10
7.06434e-13
1.39723e-06
3.53374e-06
-1.67892e-07
4.94427e-07
-5.63572e-11
-4.3239e-11
1.80047e-07
-9.45665e-11
4.66041e-08
1.46701e-06
-6.28614e-13
-2.36696e-07
-6.72754e-11
2.33183e-09
8.17673e-08
-8.22219e-10
7.26918e-08
-2.54009e-10
-7.70715e-07
4.69442e-08
1.08765e-06
-2.23629e-06
4.45423e-08
-1.24554e-11
-6.43094e-10
-1.11961e-06
8.93593e-06
1.97708e-10
-8.30995e-07
-1.87524e-10
-2.01409e-11
1.25274e-10
3.0748e-07
-2.22176e-10
-2.61424e-08
6.44396e-08
-6.93656e-08
1.78216e-06
-4.46853e-07
7.40354e-10
-4.31251e-09
2.145e-08
-3.46308e-12
3.4183e-11
2.26404e-08
4.76201e-11
1.70898e-07
-4.44022e-09
-1.65946e-12
1.42233e-08
5.95311e-05
6.32567e-10
3.13941e-08
2.79823e-11
-2.45834e-11
3.82391e-09
-1.40143e-08
-2.52363e-06
-5.2603e-06
2.76559e-10
-2.63305e-11
1.30823e-08
7.37203e-13
2.09557e-07
2.83967e-10
4.66632e-06
-2.15328e-07
0.00260683
-1.11565e-07
-1.017e-07
2.33486e-11
-2.27095e-07
1.49541e-08
1.47894e-08
1.01917e-06
1.42056e-07
-1.52337e-10
2.20849e-07
1.4749e-07
-2.59105e-06
5.03114e-08
-2.22838e-07
2.71463e-06
-1.79967e-07
4.48681e-07
1.08163e-07
9.92812e-10
2.64328e-07
-1.56942e-07
1.45357e-06
-8.29353e-10
1.03432e-06
3.22765e-06
-1.44438e-11
-9.85732e-12
-4.48403e-06
-5.74656e-10
-1.68117e-06
-2.77097e-07
1.18809e-09
1.08176e-05
1.73015e-07
2.13413e-10
1.66515e-07
-1.74691e-06
-1.0403e-10
-7.10565e-06
7.4461e-06
0.000376714
-1.33595e-10
-4.11836e-06
1.54761e-11
2.55179e-07
2.00248e-11
-3.32112e-07
2.68353e-11
-3.6483e-10
-5.84129e-13
-6.11161e-08
3.77044e-06
-2.829e-07
1.65856e-08
4.90804e-09
1.55029e-09
3.5784e-07
-1.66167e-07
1.03106e-07
-7.13869e-08
3.40981e-07
4.97034e-10
1.1782e-12
3.64074e-06
4.39975e-10
4.80792e-08
-4.28551e-07
-4.89604e-07
8.03724e-08
-6.02646e-07
-4.20055e-08
-2.79164e-06
2.52838e-11
3.39215e-08
2.16726e-07
6.31713e-10
-3.01743e-10
-1.70518e-08
1.54117e-11
-8.34129e-12
-1.43578e-11
-5.25921e-08
-6.12532e-12
7.55884e-10
7.36157e-07
2.17966e-10
-2.394e-11
1.84046e-10
-4.53277e-13
-1.33579e-09
2.79638e-11
-4.35111e-07
1.57284e-07
2.02275e-07
-4.18579e-13
1.01555e-05
-5.1372e-06
-3.08926e-11
-2.03887e-09
-8.18206e-08
-1.33101e-10
-3.92837e-10
-7.37769e-09
-1.37827e-07
-9.46275e-09
-6.09708e-07
1.26739e-11
3.55094e-06
4.29571e-08
2.86343e-07
1.16799e-11
1.81993e-07
-3.44969e-08
0.00385353
-6.15341e-08
1.39939e-11
4.54883e-06
-2.38706e-07
-4.2753e-09
1.69471e-07
-9.87936e-12
-2.3851e-08
-9.75533e-06
4.16578e-08
-0.000445948
-7.03373e-12
-0.0340646
-5.07565e-10
-5.77299e-07
2.93172e-08
-1.28057e-12
1.00419e-10
-5.9855e-11
4.97189e-10
-2.60876e-07
3.742e-10
3.59296e-08
-2.91096e-06
2.45346e-10
1.50919e-07
-1.35445e-13
-3.14041e-07
-1.28197e-07
5.48309e-06
4.40701e-06
8.99073e-12
-3.14113e-11
-5.41628e-09
8.94981e-08
-1.02488e-06
4.40916e-07
-2.7422e-07
-6.25102e-10
-3.53217e-06
8.51296e-09
7.68535e-12
-7.16619e-12
-4.75541e-10
7.80919e-13
-1.38715e-07
1.68825e-08
1.13676e-12
4.01049e-09
-1.86881e-07
-5.39986e-12
2.87211e-07
3.65428e-07
3.47751e-08
-3.94687e-08
1.10751e-11
3.7116e-07
4.68245e-13
-4.4215e-07
-1.29793e-11
8.20945e-08
-8.48607e-12
-2.92056e-09
-3.65359e-12
2.81012e-07
6.89794e-08
-1.33996e-10
-1.69194e-13
1.26889e-10
1.0403e-05
7.72655e-07
-4.08931e-07
1.92412e-07
-4.17811e-11
-5.83965e-11
1.17204e-07
1.11724e-07
4.206e-07
2.50686e-07
-9.70367e-10
6.67421e-08
2.16064e-07
1.55546e-14
-1.6225e-07
2.91444e-10
-5.83431e-09
6.91815e-10
-1.03188e-11
4.24578e-11
-1.93576e-10
2.55016e-09
-1.34894e-08
0.0012864
3.34151e-07
2.04284e-06
7.1699e-08
1.11909e-09
-5.16356e-11
2.81719e-11
-0.000143647
2.19472e-11
-7.28796e-09
-5.74199e-12
-1.10967e-10
-1.59633e-09
2.84445e-06
-2.42803e-07
-7.77245e-08
1.28202e-08
-1.67671e-11
-1.26901e-07
4.90294e-06
2.37573e-07
-2.95958e-08
-7.73759e-10
-4.81886e-08
-4.85752e-07
2.21868e-10
4.47045e-08
6.94801e-12
-2.24004e-07
-1.71379e-10
9.84805e-08
2.2884e-10
-3.11555e-11
-1.90598e-07
-1.61376e-08
7.74102e-08
-1.26306e-11
1.79417e-10
-1.58116e-08
8.50491e-08
-9.54696e-09
1.88019e-07
-1.75706e-10
-1.38018e-08
-4.80978e-06
4.23315e-09
-5.36286e-09
1.40288e-06
1.34322e-05
-1.05364e-06
4.44388e-08
-2.23877e-07
3.06987e-06
-4.88314e-07
4.59896e-08
4.506e-08
5.27583e-06
7.49503e-10
-1.50666e-06
1.18886e-11
-9.46042e-11
-1.06595e-07
2.25674e-08
-4.65773e-07
-6.46217e-10
-3.45916e-07
-1.3268e-06
2.51221e-07
-5.99354e-08
4.03291e-09
-1.22271e-11
-7.73623e-07
2.42741e-07
-2.03936e-08
6.4054e-07
-3.82823e-10
1.30795e-09
4.9391e-08
-1.54211e-07
-1.89511e-07
4.07378e-07
-1.00507e-06
2.49585e-07
-3.47276e-08
-6.41653e-10
-9.13482e-09
8.79507e-12
-2.2829e-10
-1.02181e-08
3.70017e-11
-6.40064e-10
1.63922e-08
-4.74524e-10
-5.67655e-08
-5.03896e-08
7.83671e-07
-6.58083e-08
2.32671e-07
-1.55155e-10
-5.97025e-07
-9.42726e-11
1.45613e-10
-1.7875e-07
-1.62024e-05
5.0575e-12
-3.47202e-13
-1.01514e-07
-4.32995e-07
3.52027e-10
-1.546e-07
0.0330134
-5.62699e-07
-3.98621e-10
-4.38417e-06
-1.81576e-11
-6.13959e-10
-4.38504e-08
-4.99357e-12
4.48274e-07
-2.11603e-09
1.96194e-11
1.39359e-07
2.69592e-07
1.87446e-11
-6.1342e-13
-1.36303e-11
-1.13102e-12
3.53513e-11
4.93839e-09
1.65258e-12
-1.14734e-07
1.18571e-07
8.60415e-12
2.43765e-07
-1.75537e-11
3.7322e-06
4.80544e-07
-7.38613e-07
1.02943e-07
9.74919e-07
-3.21048e-09
-4.80742e-08
-3.195e-13
4.70748e-08
7.71109e-10
-9.801e-07
-6.19395e-06
9.47352e-09
1.24273e-06
2.03084e-09
-1.45771e-05
-1.63761e-07
6.93981e-11
4.01189e-08
1.7776e-07
1.87682e-10
1.69856e-07
-2.61078e-11
-1.57518e-07
8.60353e-06
-2.82865e-07
-5.03912e-09
4.61687e-08
5.90696e-08
-1.85773e-09
4.93709e-08
1.18161e-10
-1.13129e-08
-2.73994e-06
3.29048e-07
-2.5883e-07
1.86722e-10
-3.5159e-08
-9.00662e-06
-1.50775e-11
-3.81054e-07
5.47233e-12
2.02542e-08
-4.87448e-07
2.03639e-07
3.92077e-11
-3.25359e-11
-1.22648e-08
-2.72528e-06
-3.3154e-13
-2.58431e-11
4.60969e-06
8.54728e-12
1.49739e-08
-2.94353e-08
-2.05517e-08
-1.46075e-07
4.30721e-08
3.59849e-07
-5.584e-08
2.13175e-08
-5.41511e-08
-2.78264e-07
-6.82092e-10
3.57811e-11
-4.17146e-09
8.7952e-12
1.21893e-08
1.67325e-05
-3.29383e-09
9.73713e-10
9.29992e-08
-1.69665e-07
9.43849e-07
6.15232e-08
-4.24384e-12
-1.89446e-07
-3.93792e-07
-2.48176e-11
-1.88388e-07
-2.86227e-07
-7.43533e-08
-7.47781e-06
1.87658e-11
-3.27368e-10
2.26261e-10
3.15651e-10
2.10272e-11
1.31921e-13
-9.02919e-08
-1.69192e-08
-1.08511e-07
-4.77172e-10
-1.40477e-07
-5.42119e-12
-6.86732e-11
2.97304e-07
-1.91036e-07
-1.82647e-07
-6.50225e-07
-1.83505e-10
1.40116e-12
7.83096e-09
2.24657e-06
-0.00576856
3.07812e-10
-3.04535e-05
-3.96938e-09
3.29791e-06
4.30614e-12
1.19926e-07
-1.92756e-07
5.11077e-12
-7.18898e-08
-1.88811e-06
1.73666e-08
1.91255e-07
4.39871e-08
-2.10485e-11
1.79648e-07
1.3645e-07
4.2463e-06
3.86435e-07
-1.41932e-07
2.51983e-06
7.78685e-07
6.36113e-07
2.81503e-07
2.32941e-13
-6.20584e-08
-3.33613e-07
-1.18915e-07
3.10783e-08
-4.66755e-08
-1.12357e-11
1.48495e-07
-1.03892e-09
-4.88462e-08
4.95258e-10
-1.57195e-07
-7.55108e-12
-4.25138e-06
6.31602e-10
-9.77048e-09
-0.000124449
-2.51714e-11
-1.39737e-07
5.43388e-09
1.28414e-11
-2.72811e-12
-1.73206e-11
-3.23081e-07
4.69526e-07
1.07273e-10
-1.89856e-08
1.9972e-10
3.44756e-06
-8.13387e-08
-4.4682e-07
7.77435e-09
-3.21978e-10
-2.28738e-07
7.52027e-09
1.27785e-07
-3.83957e-08
-8.18447e-07
-1.84763e-07
3.83523e-06
1.69034e-12
-4.47829e-07
-5.13209e-09
1.49882e-07
1.30339e-05
2.88153e-10
-2.33122e-12
8.64318e-07
-1.87611e-11
1.9661e-07
5.37347e-12
-1.67222e-07
-2.28681e-09
-3.98624e-09
-4.99881e-08
-3.56645e-07
3.59665e-07
0.000134062
-2.36581e-11
-7.78155e-12
-9.1621e-08
2.39551e-08
-2.91639e-11
-1.76906e-06
-7.47193e-08
-2.54003e-08
-8.94027e-08
-1.3882e-07
4.17776e-10
-4.9896e-09
5.66396e-06
-3.78381e-07
-3.60503e-08
5.21952e-07
-2.95892e-07
2.35307e-07
3.18383e-07
-9.53007e-09
-6.92239e-10
1.81179e-10
-1.01686e-11
-3.44526e-07
7.19261e-08
-7.65808e-12
-2.76366e-10
-6.97907e-08
1.5392e-08
-2.93494e-08
2.24976e-06
4.7153e-08
1.29635e-07
7.0233e-07
2.22941e-06
-3.208e-09
1.02224e-07
-3.49275e-07
9.25305e-08
-2.84635e-12
-2.33051e-07
-1.50864e-11
2.0139e-08
-4.65239e-07
-4.412e-06
1.00291e-07
4.03951e-06
-7.97819e-10
-8.51401e-07
4.1816e-06
-3.77598e-08
1.83925e-09
1.19633e-10
-3.73913e-09
1.26006e-07
-2.86756e-09
-2.69353e-08
-2.30697e-11
8.23741e-09
-2.29445e-09
1.24672e-07
-6.32247e-07
-3.81898e-09
1.23889e-08
-8.4536e-12
-4.63013e-06
-0.0001727
4.62855e-08
1.51574e-07
-1.60505e-07
-4.65461e-11
-9.05111e-08
2.68471e-07
-2.82253e-10
-6.03241e-12
4.40589e-08
1.47789e-06
2.13258e-07
1.87922e-05
-9.91628e-11
8.87726e-08
4.92199e-11
1.81485e-07
3.25265e-10
-5.46332e-08
7.29245e-08
2.28317e-07
4.18018e-08
1.6666e-07
-1.10332e-07
-1.44666e-10
-9.74355e-08
-1.78323e-07
1.41447e-07
3.05928e-07
5.21681e-12
6.82473e-12
-8.86006e-09
-1.24355e-07
-3.2351e-07
-6.76271e-10
-9.12989e-08
-3.42049e-12
-2.0704e-07
4.24388e-11
-2.00357e-10
2.1278e-12
-3.46491e-10
-3.11015e-07
-3.32845e-08
2.8766e-10
-1.99173e-11
2.35315e-07
-3.69873e-09
3.60567e-08
-3.40266e-09
-2.56832e-08
-2.23593e-07
7.32337e-12
-2.11942e-08
4.01237e-10
-2.53668e-07
1.74047e-07
2.65896e-09
-5.11508e-12
-3.0093e-11
9.03817e-11
3.62554e-07
-1.36419e-10
-1.61982e-11
0.00288514
6.33621e-07
1.15538e-12
-1.0388e-11
1.47894e-11
8.92531e-07
8.75402e-07