/*--------------------------------*- C++ -*----------------------------------*\
| =========                 |                                                 |
| \\      /  F ield         | OpenFOAM: The Open Source CFD Toolbox           |
|  \\    /   O peration     | Version:  v2012                                 |
|   \\  /    A nd           | Website:  www.openfoam.com                      |
|    \\/     M anipulation  |                                                 |
\*---------------------------------------------------------------------------*/
FoamFile
{
    version     2.0;
    format      ascii;
    class       surfaceScalarField;
    location    "400";
    object      ddtCorrDdt0(phi);
}
// * * * * * * * * * * * * * * * * * * * * * * * * * * * * * * * * * * * * * //

dimensions      [0 3 -2 0 0 0 0];
oriented        oriented;


internalField   nonuniform List<scalar> 
22717
(
-2.018e-08
-6.49868e-08
8.51404e-08
1.61133e-06
-1.13735e-06
-4.73691e-07
1.70445e-07
-1.99559e-07
2.96427e-08
2.07632e-07
-3.77415e-07
1.70121e-07
4.33323e-08
2.89193e-07
-3.32603e-07
-5.04007e-08
4.63476e-08
4.18771e-09
-2.94921e-07
2.37363e-07
5.72411e-08
1.11944e-06
-3.3004e-06
2.18261e-06
7.77435e-08
-1.26967e-07
4.97902e-08
-9.45189e-08
7.42383e-08
1.92662e-07
-2.19726e-08
7.03341e-09
-5.46985e-08
4.75268e-07
-4.29579e-07
-3.30658e-08
2.85753e-07
-2.52487e-07
3.08912e-07
-3.31386e-07
2.24911e-08
-5.16744e-07
1.3069e-06
-7.89994e-07
-6.49392e-09
1.71584e-07
-3.25171e-07
1.53918e-07
1.82533e-08
-6.04757e-09
-1.21288e-08
-2.83796e-05
3.96916e-05
-1.13049e-05
1.30036e-07
8.8367e-08
-2.18401e-07
2.55904e-07
-1.25898e-07
2.32255e-08
-3.18253e-07
2.72972e-08
-1.17462e-08
-1.55858e-08
-4.03073e-07
1.51233e-07
2.50858e-07
-4.40172e-07
6.17701e-07
-1.78397e-07
-2.70099e-08
2.84607e-08
2.56105e-07
-6.99002e-07
9.26826e-07
-7.37978e-07
-1.87385e-07
2.7016e-08
1.558e-07
-1.81893e-07
-1.26251e-07
1.261e-07
2.5438e-07
2.77292e-07
-5.31888e-07
-1.86572e-08
-1.46921e-07
7.01153e-08
4.63881e-08
-1.16719e-07
4.21718e-08
-8.06712e-08
3.82682e-08
2.92294e-07
6.01095e-07
-8.92093e-07
3.88553e-07
-9.41036e-08
2.64656e-05
-1.27428e-05
-1.37187e-05
5.72714e-08
-1.11747e-07
5.41517e-08
1.69073e-07
-9.91564e-08
-6.79183e-08
6.55651e-07
1.07946e-07
-7.63234e-07
5.33009e-07
-3.66538e-07
-1.66333e-07
7.5188e-09
-8.46586e-08
7.71082e-08
8.1548e-08
-3.30146e-08
-4.84627e-08
1.34871e-07
1.35214e-08
-1.48464e-07
5.43435e-09
1.76448e-08
-2.29916e-08
-7.43485e-07
1.48093e-05
-1.40518e-05
-7.08104e-07
5.6211e-07
1.46503e-07
-3.19977e-07
2.87032e-07
-2.25522e-07
5.87287e-08
1.66052e-07
1.84042e-08
8.90866e-09
3.12738e-07
-4.38562e-07
1.26001e-07
1.88212e-06
-2.39866e-06
-1.47255e-07
5.80587e-08
-5.02769e-08
-7.73116e-09
1.1419e-07
-2.63332e-07
1.49393e-07
8.6276e-07
-2.09593e-06
1.23758e-06
3.97216e-07
-8.46054e-08
3.05408e-07
4.94591e-07
-7.96807e-07
-1.76518e-07
1.99848e-07
-2.30048e-08
1.44118e-07
1.32279e-07
-2.76352e-07
-6.04342e-07
-1.0369e-07
-1.89855e-08
-2.70322e-07
2.88792e-07
-3.76044e-08
2.62912e-07
-2.26782e-07
4.65443e-08
-2.54181e-08
-2.1247e-08
5.33978e-08
-4.65015e-08
-5.82895e-07
9.35054e-08
4.87474e-07
-1.65083e-07
4.19211e-07
-5.38431e-08
3.70839e-08
1.67914e-08
-7.84391e-09
6.2511e-09
1.52754e-09
5.6475e-08
-9.42097e-08
3.75254e-08
-1.62096e-07
9.18155e-08
6.96652e-08
-3.94233e-07
-8.42072e-09
-3.21015e-07
8.64737e-08
2.34513e-07
5.89491e-09
3.61114e-07
-3.67138e-07
-2.97177e-07
2.05827e-07
9.1251e-08
8.1397e-07
-1.58203e-07
3.80081e-07
-3.06852e-07
-7.25774e-08
4.71681e-07
-1.69604e-07
-3.01978e-07
1.65735e-07
-1.68608e-07
3.0028e-09
2.79361e-08
-2.37669e-08
-4.00391e-09
-2.07469e-07
2.06616e-07
-1.30284e-08
5.65512e-08
-4.33872e-08
3.29942e-07
-6.08003e-07
2.77905e-07
-6.29509e-08
-6.60573e-08
-2.74842e-08
3.29846e-08
1.19668e-08
6.2554e-09
-1.45175e-07
2.44758e-07
-9.89682e-08
2.36922e-07
2.53167e-07
-4.90294e-07
-8.40467e-08
-9.52323e-10
8.69306e-08
1.92719e-07
-3.38874e-08
-1.59375e-07
-5.8961e-08
4.63715e-08
1.25265e-08
1.32325e-05
-8.06672e-06
-5.16833e-06
8.74208e-07
-5.66206e-07
9.95664e-08
-1.12018e-07
1.25043e-08
-3.5661e-08
2.28338e-08
1.29674e-08
5.20428e-08
-1.83703e-07
1.31536e-07
-4.97963e-08
2.14435e-08
2.82188e-08
1.58218e-07
8.12512e-09
-9.00676e-08
9.78425e-08
-1.25791e-07
-1.71476e-07
-1.12822e-06
5.05185e-07
6.22664e-07
1.90416e-07
-1.72544e-07
-1.75713e-08
-5.69281e-08
2.02232e-08
3.66516e-08
-2.84194e-08
1.06132e-07
4.86649e-08
9.44226e-09
-1.39675e-07
3.61127e-07
-2.21245e-07
-1.83055e-07
-2.24695e-06
2.42593e-06
-3.97186e-07
4.61485e-07
-6.37025e-08
-2.61846e-07
2.06593e-09
2.59619e-07
1.15571e-07
-9.51248e-08
-2.04061e-08
1.28065e-07
-8.41047e-08
-4.42117e-08
-6.65851e-09
-4.78693e-08
1.67208e-06
-3.6571e-07
7.20976e-08
-2.16985e-07
8.80622e-08
-3.14616e-08
-1.04468e-05
2.36839e-05
-1.94613e-08
-6.32765e-08
-4.20826e-08
5.75385e-07
-3.56252e-08
4.2968e-08
-4.35762e-09
1.57936e-07
4.51583e-07
-6.09524e-07
-2.35069e-07
-5.8874e-09
2.40758e-07
-9.57482e-07
-4.68229e-07
1.42541e-06
-8.08054e-08
-5.63314e-09
8.67056e-08
-6.7837e-08
8.00142e-08
-1.22511e-08
1.56456e-06
-7.0138e-07
5.17744e-08
1.84448e-08
-7.04604e-08
2.02545e-08
1.03278e-07
-4.80574e-08
-5.53172e-08
1.7539e-07
-7.9306e-08
-9.62075e-08
1.65373e-07
-3.0586e-08
2.55207e-08
-2.6055e-08
5.48734e-10
1.54402e-07
-5.14254e-07
3.63935e-07
2.05581e-07
1.74751e-07
2.52128e-08
-3.0528e-08
5.55883e-09
7.36536e-08
-8.65215e-08
2.84765e-07
6.4306e-07
3.36487e-07
-3.56145e-07
-1.51285e-06
2.63271e-06
6.63873e-09
1.85607e-07
7.24926e-07
-4.88028e-07
-4.69831e-08
-1.65796e-07
2.12171e-07
6.02488e-10
-7.03003e-09
1.69593e-07
-4.43523e-07
2.73693e-07
-1.37714e-05
4.0237e-05
-1.5007e-07
-1.70785e-07
1.89307e-06
-1.89278e-06
-8.14401e-08
-3.66094e-07
4.49994e-07
-1.18063e-07
1.47893e-07
-2.9652e-08
4.88754e-08
-9.03416e-08
4.14092e-08
5.48622e-08
9.12212e-08
-1.45903e-07
1.13373e-08
-7.97164e-08
-8.5762e-09
1.08144e-07
4.26525e-07
-4.90681e-07
6.39907e-08
1.50113e-07
-1.73768e-07
2.3623e-08
4.96435e-07
-3.65008e-07
-1.31574e-07
-1.85498e-08
7.55728e-08
3.07828e-06
-2.21203e-06
-8.66539e-07
1.31239e-08
-1.84399e-07
1.71263e-07
1.79554e-07
-3.00695e-08
-2.63686e-07
3.14338e-07
-5.09963e-08
1.50949e-07
-1.10828e-06
1.03666e-07
1.91381e-08
-1.23126e-07
8.17545e-08
-1.41353e-07
5.93735e-08
-2.44207e-07
2.85583e-07
-4.13955e-08
-2.58293e-07
1.39986e-08
-2.01648e-08
1.66557e-08
3.55616e-09
-1.61581e-05
8.14947e-06
8.00943e-06
-2.97399e-06
2.23473e-06
2.11383e-05
-4.21198e-06
-1.69292e-05
-1.08527e-06
2.75676e-06
3.28927e-07
-4.42564e-07
1.1358e-07
2.93632e-07
-2.5726e-08
-2.68152e-07
-7.98181e-08
3.39664e-07
-2.58175e-07
-9.91456e-08
-6.9472e-08
3.45946e-08
4.80891e-08
-8.25814e-08
-5.40241e-07
1.56662e-06
-1.02667e-06
1.81412e-05
2.99814e-06
6.25984e-07
-4.68018e-07
2.53021e-07
-3.31659e-07
-1.61578e-05
-1.60939e-07
3.05223e-07
1.14809e-07
2.40069e-09
-1.17278e-07
1.16349e-07
-1.35219e-09
-2.3227e-08
2.85123e-07
-2.61873e-07
-1.40152e-07
6.26235e-08
7.68386e-08
3.6842e-07
-1.60709e-07
-1.48596e-07
5.56213e-08
1.19745e-07
3.38048e-09
1.81865e-08
-2.1666e-08
-1.60581e-06
1.64518e-06
-4.83267e-08
3.00156e-08
2.98163e-08
-5.95456e-08
-4.42776e-07
4.92795e-08
2.07639e-09
-2.4133e-07
2.39001e-07
4.55338e-07
3.12645e-07
-7.66229e-07
-2.02063e-08
-7.63146e-08
9.63287e-08
-1.50393e-07
1.83842e-07
-3.35154e-08
8.60304e-08
-1.0657e-07
2.05409e-08
4.13632e-08
4.3521e-07
-1.32727e-07
1.84714e-07
5.5599e-07
-3.99735e-07
-3.19964e-07
1.88544e-07
1.32119e-07
6.72735e-08
-6.30662e-08
-4.06474e-09
1.56132e-07
-1.93813e-07
3.67395e-08
-4.97216e-07
2.10938e-07
2.86251e-07
1.00382e-07
-6.56335e-08
2.73269e-07
1.20678e-07
-3.9618e-07
2.38202e-07
-3.1915e-07
8.11946e-08
-4.37598e-08
2.24858e-07
-1.81424e-07
-2.86239e-07
1.89668e-07
9.70358e-08
7.80477e-09
6.9709e-08
-7.76242e-08
4.44056e-07
-1.78361e-08
-1.52405e-07
1.80145e-07
1.98935e-07
-5.49007e-07
3.40645e-07
6.90607e-08
2.0257e-07
1.63458e-08
1.29148e-07
-7.41819e-08
-1.93659e-07
3.22878e-07
-1.29362e-07
-1.17747e-06
-2.61825e-07
1.4441e-06
2.28512e-08
-1.03319e-07
-2.06292e-08
-3.89673e-08
5.95482e-08
-9.12312e-08
1.39726e-07
-4.80349e-08
-8.82096e-08
3.86273e-08
4.95103e-08
-3.86553e-08
3.93625e-07
-3.59403e-07
6.20383e-07
2.28481e-07
-8.50503e-07
-3.77413e-08
1.59893e-08
2.16476e-08
-1.5502e-07
1.55378e-07
1.41158e-07
-2.63859e-08
-1.15438e-07
-9.69022e-08
8.7952e-07
-7.8272e-07
-1.55473e-08
3.15276e-08
-1.58495e-08
-3.03582e-08
5.74079e-09
2.44693e-08
-2.93486e-07
-2.64367e-08
-8.48539e-07
1.25526e-06
-4.07703e-07
-2.88291e-06
-1.5729e-07
-7.84716e-09
1.66542e-07
-1.88965e-07
-3.0705e-07
1.13131e-07
5.33477e-08
1.59744e-08
-6.94023e-08
-2.52906e-07
2.54452e-07
-1.79131e-07
4.31953e-07
-2.52849e-07
3.73232e-08
-4.34811e-07
1.42486e-07
-1.48435e-07
-7.05283e-08
-4.47143e-08
1.15504e-07
4.07648e-08
2.64541e-08
4.70876e-09
-3.76746e-08
3.29666e-08
-1.43025e-07
-2.76301e-08
1.70812e-07
4.41286e-08
-3.06994e-07
4.36197e-07
-1.29435e-07
-4.65899e-07
1.58779e-07
1.85291e-07
-2.89568e-08
-8.01336e-06
5.9256e-06
2.0854e-06
2.59882e-08
-4.37095e-10
-1.77954e-09
-2.44696e-08
1.28066e-07
9.13775e-07
-2.423e-06
1.50687e-06
2.76631e-07
-2.70264e-07
-9.44945e-08
-8.73356e-08
1.81429e-07
-2.93498e-09
-4.96677e-09
-2.83467e-07
-2.1376e-07
1.90495e-08
-1.89823e-08
1.56531e-07
-1.66956e-07
1.03563e-08
1.4611e-08
5.29675e-09
-1.98734e-08
-9.91009e-08
4.88273e-08
-2.04709e-08
-3.34499e-08
-4.23895e-09
8.18477e-09
-3.95038e-09
-1.47954e-07
1.60968e-07
-2.33604e-08
-3.26804e-08
5.59764e-08
-3.01904e-08
8.08485e-08
3.31899e-10
-8.09067e-08
3.10749e-07
-1.8695e-09
2.39858e-07
-2.63104e-07
-1.89289e-08
-4.51938e-09
-3.1769e-08
1.626e-08
-1.0353e-07
1.59747e-07
-5.63092e-08
2.37265e-08
-2.06312e-07
1.82567e-07
-1.36455e-07
4.00202e-08
9.66357e-08
-5.32516e-07
5.19204e-07
1.36722e-08
-2.02172e-07
1.6397e-07
1.16727e-07
2.8566e-07
1.7667e-07
-1.93246e-07
1.66817e-08
3.02915e-08
-1.77655e-08
-1.26033e-08
-4.11426e-09
2.80362e-07
7.78966e-08
-3.19012e-08
-4.59067e-08
2.21602e-08
-1.39997e-07
4.72889e-07
2.34325e-08
1.21024e-08
-7.35248e-08
6.13496e-08
-1.05375e-07
-2.46142e-08
1.29304e-07
-8.45229e-08
1.18966e-07
-3.42806e-08
-2.61821e-07
3.39503e-09
-2.37787e-08
-3.53772e-08
4.026e-07
5.20927e-07
-9.2346e-07
-2.15577e-07
1.08751e-07
1.06573e-07
8.66333e-08
-9.51153e-08
8.4336e-09
0.000205367
2.43537e-08
-9.7751e-09
-1.19542e-06
6.45963e-07
5.49393e-07
7.13177e-08
-2.92149e-08
5.00812e-09
-9.95923e-08
-1.02312e-07
9.66798e-08
-4.82102e-07
3.0275e-07
6.46464e-09
-4.39817e-08
3.84903e-08
6.4343e-07
-1.23855e-06
5.94495e-07
-2.40787e-08
-8.42573e-10
2.50105e-08
-5.66623e-08
5.28393e-07
-2.18384e-07
-4.36294e-08
1.01354e-07
1.63845e-07
4.45488e-11
-1.64156e-07
2.6015e-07
-1.63914e-07
-9.55654e-08
-3.04496e-07
1.6761e-07
1.36852e-07
-4.12227e-08
5.08352e-08
-9.70193e-09
7.50172e-07
-4.19785e-07
-1.22337e-06
7.9813e-07
4.25271e-07
1.57305e-07
6.58408e-09
-4.13256e-08
-6.76928e-08
1.08964e-07
-1.73045e-07
5.01576e-08
1.22901e-07
4.28771e-07
-1.22089e-07
-3.06544e-07
1.24981e-05
-1.07086e-05
-1.78951e-06
6.87585e-08
-9.18148e-07
-3.0689e-07
-1.29671e-06
2.2663e-08
2.37859e-08
-1.34784e-05
1.34781e-05
1.67486e-07
-2.14652e-08
-1.45473e-07
1.09252e-07
-1.03429e-07
-5.95436e-09
4.64541e-07
-2.06008e-08
-2.9344e-07
1.83508e-07
1.0951e-07
-1.60943e-06
1.51286e-06
6.22379e-08
-2.12065e-08
-4.10015e-08
9.54962e-08
-4.65629e-08
1.59082e-07
-6.50599e-10
-4.43883e-08
5.20779e-08
1.58948e-07
4.08836e-08
-2.00609e-07
1.37013e-06
-2.1618e-07
-1.15358e-06
6.59367e-07
-4.52134e-07
-1.97311e-07
-6.12592e-07
-5.14844e-07
-9.16387e-08
-2.28413e-07
8.98507e-08
-1.9354e-07
-5.35634e-09
-2.10357e-08
9.56957e-08
-5.89125e-08
-3.692e-08
-5.12751e-08
1.6487e-07
-3.51948e-07
4.61757e-07
-1.09964e-07
-1.06474e-07
5.92719e-08
4.72852e-08
-5.0365e-07
1.51632e-07
-7.99393e-08
6.27679e-08
1.75328e-08
1.36926e-07
1.22957e-07
1.28358e-07
-5.81895e-08
-6.2667e-06
-4.35323e-06
1.06182e-05
-2.32484e-08
-1.39038e-08
3.74047e-08
-3.59415e-08
-1.86561e-07
3.56114e-07
-2.30807e-07
-7.34608e-08
-6.38088e-08
-9.87099e-08
6.04357e-06
-1.02581e-05
-1.73968e-07
1.59742e-07
1.36854e-08
2.99523e-08
-5.0756e-08
-3.05167e-07
1.72152e-07
1.32621e-07
1.77449e-07
-1.67929e-08
-1.61172e-07
-6.60869e-09
9.80894e-08
-9.16379e-08
-4.54416e-08
2.07907e-07
-1.62154e-07
5.48493e-08
-4.27666e-08
8.09791e-08
2.51599e-08
-1.05202e-07
3.09257e-08
4.69882e-08
1.12175e-06
-3.83636e-07
-7.3741e-07
-6.81619e-08
3.06685e-07
-2.09277e-05
8.009e-06
1.52931e-06
1.54871e-06
-3.93514e-09
8.53816e-08
9.31451e-10
7.34651e-08
-7.45705e-08
-3.10381e-08
1.15457e-08
1.9518e-08
6.78807e-07
-3.46545e-08
-5.01787e-08
-1.75388e-07
1.81739e-08
1.26356e-07
-1.44158e-07
-4.21284e-08
5.65814e-08
-1.42034e-08
-9.37164e-08
5.25326e-08
7.44904e-09
-4.44342e-07
-1.64586e-07
6.09188e-07
-6.76409e-08
-2.02496e-08
4.73997e-06
1.01121e-05
-1.48552e-05
4.09598e-07
5.47889e-08
-6.25634e-08
-4.38051e-08
8.97088e-08
-2.85278e-09
6.44212e-08
-1.1843e-07
5.43515e-08
1.79538e-07
-7.63932e-07
-7.08164e-08
-6.92303e-08
-2.35115e-08
-8.19936e-09
-1.51521e-09
1.1732e-07
2.8466e-07
8.5392e-09
6.38749e-07
1.9721e-07
-8.35797e-07
1.49951e-08
-1.07233e-07
5.43435e-08
5.30567e-08
-1.46137e-07
1.70186e-07
-3.36022e-08
1.0147e-08
8.15181e-07
-1.76489e-07
2.16933e-07
-1.09886e-08
-2.06228e-07
1.34039e-07
6.18384e-07
-7.51364e-07
-3.26977e-06
-2.99858e-06
-7.48224e-08
2.64611e-08
4.82403e-08
-8.57982e-07
2.41788e-07
6.18257e-07
2.48722e-07
1.22702e-07
-3.71373e-07
-2.78159e-07
2.32833e-07
-1.3504e-07
-1.4288e-07
1.96509e-07
-6.84313e-08
-1.48062e-07
1.59488e-08
4.66204e-08
-4.67282e-08
6.67273e-08
-1.95802e-08
4.60517e-08
1.61658e-07
1.17882e-06
-4.02528e-07
-7.75706e-07
9.21624e-06
6.83359e-06
-1.60467e-05
-3.8399e-06
4.55384e-06
-7.18236e-07
2.02076e-08
-2.3591e-07
2.20707e-07
5.30193e-07
-3.32251e-07
2.22849e-07
-3.08722e-07
4.68716e-08
-7.53921e-07
8.39435e-07
-8.54357e-08
5.27392e-08
3.76213e-07
2.57619e-08
1.41922e-07
6.11367e-08
-7.52435e-08
1.38631e-08
-2.38239e-06
3.44963e-06
-1.06599e-06
-2.529e-07
2.05726e-07
-2.83895e-07
2.73494e-07
1.1086e-08
1.88132e-07
-2.00384e-07
1.19016e-08
-1.00855e-06
-1.79546e-08
-3.87505e-07
6.40612e-07
2.08824e-06
-2.45641e-06
3.68481e-07
3.53845e-07
1.0751e-07
4.2821e-07
-2.00301e-07
-2.27727e-07
2.41992e-08
6.11409e-08
-8.5449e-08
1.7796e-07
-1.77907e-07
4.22597e-07
-2.02224e-07
-2.20197e-07
-1.07866e-06
1.57113e-07
9.22863e-07
7.51427e-08
1.75407e-08
-9.25793e-08
2.70035e-07
2.44828e-08
-2.9456e-07
3.14349e-07
-2.72386e-07
-4.20833e-08
8.57169e-08
-1.66593e-07
-1.00678e-08
3.6881e-07
-3.5801e-07
2.34072e-07
5.37415e-09
-2.39669e-07
-6.85731e-09
1.18579e-08
-5.08213e-09
2.83051e-08
7.48403e-08
5.6871e-07
-7.06899e-07
1.35488e-07
2.34088e-09
1.76356e-07
-1.7895e-07
2.71102e-08
5.29441e-08
-8.0063e-08
4.66669e-07
9.03366e-07
1.25021e-07
-7.22376e-09
-1.17618e-07
6.66681e-07
-2.88301e-07
-3.79182e-07
-7.44637e-06
-2.09352e-05
5.24624e-07
-1.70865e-07
-1.78884e-07
-1.28095e-07
1.09398e-07
-8.82594e-07
7.73959e-07
1.17775e-08
1.73813e-07
9.48643e-07
-3.85731e-08
-1.18063e-07
1.84811e-07
-1.26363e-07
4.13547e-07
-2.70949e-07
-1.42476e-07
1.92909e-07
2.20599e-07
-4.77031e-10
8.60303e-08
-8.54262e-08
1.2835e-07
1.27534e-07
1.86188e-07
-4.3704e-08
-2.71424e-07
9.26827e-08
4.21934e-07
-1.12329e-06
2.33682e-07
8.88901e-07
6.20487e-07
-4.47364e-07
-2.65923e-07
5.14767e-07
-9.68624e-08
9.03568e-08
9.88576e-08
1.07236e-08
5.64065e-08
-8.60122e-08
3.01156e-08
-3.6722e-09
8.98104e-08
2.91667e-07
3.03607e-07
-5.85355e-07
-7.25477e-07
-4.97702e-07
6.01411e-08
7.37363e-07
8.73848e-07
5.53604e-07
-4.61224e-07
-3.25129e-08
-7.44506e-08
1.4685e-08
-1.15339e-07
1.00546e-07
8.52261e-09
-4.9767e-08
-2.7407e-07
1.63208e-06
-1.36867e-06
-1.91422e-08
-4.25105e-07
-3.82248e-08
-1.38625e-07
1.763e-07
-1.58528e-06
1.31406e-06
-4.22947e-07
3.85516e-07
-1.37617e-06
5.37778e-07
8.40414e-07
-7.13134e-09
-5.88259e-08
6.60624e-08
4.99324e-09
2.2395e-08
1.1626e-07
-2.21234e-07
-3.2583e-08
1.45056e-08
1.79321e-08
-6.77237e-10
-1.63812e-07
1.64613e-07
-1.36675e-06
4.529e-07
9.13547e-07
-8.65246e-08
1.05816e-08
7.6243e-08
-4.12364e-07
1.50908e-07
2.61088e-07
4.37761e-09
8.40203e-09
-1.27835e-08
7.68645e-08
-6.76527e-08
-1.01758e-08
2.05777e-08
2.98558e-08
-5.05473e-08
8.20911e-07
1.26751e-06
-6.04473e-08
2.53463e-06
-2.46968e-06
5.66628e-09
1.53441e-07
-6.90431e-08
-5.85734e-09
-2.59834e-08
-2.85903e-07
2.2756e-09
-2.2172e-07
2.25131e-07
-3.20129e-09
3.32029e-07
9.66075e-08
-1.46402e-08
-4.70162e-08
6.19821e-08
-4.58002e-07
1.10419e-08
8.66679e-08
-1.14764e-08
6.39321e-08
-6.88497e-09
-5.63965e-08
5.77387e-09
-6.24654e-08
5.68735e-08
-5.588e-09
-1.06271e-07
7.09076e-08
3.47706e-08
2.33415e-07
-5.49686e-07
3.17817e-07
5.48768e-07
6.30165e-07
-1.61419e-08
-1.49434e-08
-1.74071e-08
-2.19221e-07
2.10308e-07
8.82322e-09
7.92392e-07
-1.71033e-06
9.18626e-07
-4.43903e-07
-2.52669e-07
6.96728e-07
-7.56442e-08
8.40958e-08
-8.37758e-09
-6.19446e-08
-6.506e-08
-6.25762e-08
7.38761e-08
-1.10811e-08
1.16246e-05
6.51684e-06
-1.49289e-06
8.94225e-07
5.98538e-07
-6.1478e-09
-1.8612e-08
2.48212e-08
-1.25664e-07
-3.28673e-08
-1.39104e-06
1.42372e-06
-3.32716e-07
1.71831e-07
-2.52637e-07
1.26811e-07
-1.64998e-07
5.18851e-08
1.12874e-07
-1.0964e-06
-2.70138e-07
8.48934e-07
-2.91074e-07
-5.57496e-07
-1.05746e-07
-5.6464e-09
1.11841e-07
2.17091e-07
1.67875e-08
5.01834e-08
-5.7083e-08
5.56488e-07
-9.12749e-08
-4.64806e-07
-1.44108e-07
-7.12708e-07
-2.76706e-05
4.0169e-05
-1.35341e-06
1.33851e-07
-4.55153e-08
-4.75468e-06
1.87264e-06
-2.20963e-07
1.10373e-07
1.10628e-07
-3.99906e-07
3.39611e-07
5.97505e-08
-1.1369e-07
2.46046e-07
1.44443e-07
-1.60754e-08
8.02785e-08
5.70185e-08
1.77234e-08
-7.47249e-08
-1.49336e-07
1.48011e-08
1.35328e-07
-1.73289e-08
-7.42043e-09
2.4797e-08
1.96232e-07
4.26676e-07
2.92573e-08
7.9722e-09
-3.84883e-08
-2.88679e-06
-7.56299e-07
-1.63458e-07
9.26757e-10
1.63344e-07
-1.62984e-07
7.06019e-08
9.21171e-08
4.58449e-07
-1.58198e-06
4.07083e-07
2.91358e-08
-3.69468e-07
-1.30852e-07
5.00184e-07
-3.19186e-07
-9.10256e-08
4.10111e-07
-5.32056e-07
3.62427e-07
1.70588e-07
-6.67254e-07
8.49502e-07
9.30642e-08
-7.84787e-08
3.97163e-08
5.65925e-08
-9.61544e-08
-1.11116e-08
-1.12076e-07
2.53146e-07
-1.40163e-07
4.05383e-07
1.6702e-09
3.37157e-08
-6.66617e-08
3.31426e-08
5.45764e-09
5.60064e-08
-6.131e-08
-1.19294e-07
1.43027e-07
-2.33276e-08
-1.2329e-06
-1.44191e-07
2.08258e-07
-4.05984e-08
-1.67288e-07
-3.20572e-07
1.13838e-06
-8.29195e-07
-4.71761e-08
-1.14335e-07
1.60861e-07
1.23565e-08
5.34937e-08
-6.59452e-08
-6.9742e-08
-1.09534e-08
-2.57822e-09
1.61648e-07
3.24977e-08
2.14724e-07
1.53725e-07
5.62883e-07
-5.21317e-07
-2.09504e-08
-1.28696e-07
3.54647e-07
-1.53039e-06
-5.3695e-08
5.96079e-08
-6.05278e-08
1.18318e-07
-5.7807e-08
1.09731e-07
-1.09221e-07
-3.76213e-10
1.13327e-08
1.89105e-08
3.3623e-07
-2.99044e-07
2.93639e-07
1.29039e-07
-1.13276e-07
2.85004e-07
8.46315e-09
1.96872e-07
-2.05336e-07
9.54378e-08
-7.24908e-08
9.82369e-08
-8.2243e-09
-2.94683e-07
7.93838e-08
2.15962e-07
-2.56461e-07
-7.48109e-08
1.37454e-08
-6.2719e-07
6.13841e-07
7.12048e-08
1.20462e-07
-1.9201e-07
6.77667e-09
-5.83901e-10
2.6231e-08
-1.03574e-09
1.72049e-07
-1.72477e-07
-4.99434e-07
9.16182e-07
-4.1711e-07
-3.33906e-08
6.07294e-07
-5.74031e-07
-1.62137e-06
4.98648e-07
1.12155e-06
-1.78166e-07
-4.28286e-08
7.92428e-08
5.28624e-09
-8.46086e-08
1.41557e-06
-5.17356e-07
-8.95914e-07
7.22869e-08
-4.22949e-08
7.15974e-08
-1.0579e-08
-9.36493e-08
-1.51055e-07
2.4467e-07
6.01426e-08
3.38023e-08
-9.38591e-08
1.03598e-07
-4.9506e-08
-5.4252e-08
-4.41724e-07
2.55157e-07
4.9717e-08
-2.90884e-08
-1.02451e-05
1.10573e-05
-8.12107e-07
-1.11271e-06
-3.80229e-07
-3.72842e-08
3.90674e-07
-8.34373e-07
4.91315e-08
-1.66247e-08
8.6561e-07
-5.15229e-09
1.07368e-07
-1.02703e-07
-8.41501e-08
6.40726e-07
3.65318e-07
2.53359e-07
1.86062e-07
-1.14896e-07
-7.06565e-08
5.26359e-08
-9.21272e-10
-1.29402e-07
1.47906e-07
-2.77489e-07
2.60474e-07
1.67027e-08
2.72595e-07
-3.66279e-07
-7.47636e-08
-1.99205e-08
6.67574e-09
3.59006e-09
-1.02239e-08
-2.84063e-05
3.76377e-05
-7.1788e-08
5.14566e-08
-4.65904e-08
4.09549e-09
-1.64175e-07
-1.25041e-07
7.21217e-09
-1.74381e-07
7.92304e-08
-6.99431e-08
-9.1717e-09
3.9809e-08
2.57631e-08
-6.53336e-08
1.53119e-08
7.9979e-09
-2.33303e-08
-2.64426e-07
2.15774e-08
2.42701e-07
2.22956e-08
-2.845e-08
2.87559e-07
-1.76537e-08
-9.5043e-08
-1.13682e-08
-2.49679e-08
-1.37653e-07
2.67529e-07
-2.5552e-07
-1.17003e-08
-1.76203e-08
5.16992e-09
1.23147e-08
-8.25319e-08
8.10925e-08
1.60906e-09
4.51618e-08
2.22431e-07
-3.09579e-07
3.64193e-07
-5.62996e-08
1.9883e-06
-1.2927e-06
-6.92532e-07
-9.55738e-08
1.96569e-07
-1.00989e-07
1.78789e-08
-1.0237e-07
-3.10996e-07
-6.56474e-08
1.41819e-08
5.16284e-08
-4.10576e-07
5.33272e-07
-1.29943e-06
-1.85096e-07
1.48245e-06
8.61295e-07
2.76255e-07
-1.41927e-07
-6.43154e-08
4.51497e-08
-1.25832e-07
-4.32549e-07
8.35397e-07
-1.58167e-07
-1.7593e-08
5.94976e-09
1.16149e-08
4.53446e-08
2.01059e-06
-5.57607e-07
-1.45027e-06
-2.61706e-05
7.8493e-06
1.83052e-05
6.03628e-08
3.74651e-07
-4.87599e-07
5.17372e-08
-2.93039e-07
9.70204e-08
-4.09594e-08
1.39417e-06
-1.63707e-08
-2.13362e-08
5.32659e-08
-1.93895e-08
2.8911e-08
-7.07698e-09
-2.19182e-08
-2.82209e-08
-1.84415e-08
-1.61159e-08
9.67795e-08
1.52036e-08
-7.64468e-08
6.12562e-08
3.07676e-08
2.25177e-08
-1.60492e-06
-9.82272e-07
6.38121e-07
-1.52557e-07
2.23503e-07
2.15831e-07
-2.13263e-07
-2.40196e-09
-1.36032e-05
-3.92707e-07
-7.37492e-09
-4.96414e-08
-5.01266e-07
1.31771e-07
-3.20087e-08
-1.11313e-07
-6.77125e-09
-2.37058e-08
-2.6176e-07
-6.37188e-08
3.25737e-07
-2.39915e-07
1.9604e-07
-4.63599e-08
2.28403e-07
-1.80882e-07
-1.92257e-07
1.82848e-07
9.07253e-09
4.30724e-08
6.04425e-08
-1.01834e-07
-1.61474e-07
1.47611e-07
-3.32234e-07
1.84005e-07
-9.33018e-08
1.24262e-07
-3.0606e-08
-9.09368e-09
-8.58785e-09
-1.41434e-08
-3.96513e-07
-2.35441e-07
-3.2193e-07
5.57889e-07
-3.27214e-08
-1.7062e-08
5.24756e-09
-2.84608e-08
-4.04346e-07
-1.28077e-07
5.07537e-08
-4.00034e-08
-1.07426e-08
-2.03056e-08
4.16248e-07
-8.04944e-08
-8.81847e-08
1.56529e-08
-5.51833e-08
-1.67295e-07
2.22747e-07
-5.93224e-08
1.60248e-07
-2.11338e-07
5.09448e-08
1.21862e-07
-5.00417e-07
3.78617e-07
7.40197e-08
-1.50889e-08
-5.86872e-08
-1.1163e-08
-1.52922e-07
-5.58945e-07
-3.09413e-08
5.90582e-07
2.01412e-08
-8.07115e-08
-8.24767e-08
1.16659e-05
-5.62508e-06
-1.97806e-07
5.72812e-09
3.77456e-08
-1.08242e-07
-5.20812e-07
9.7575e-07
1.52088e-07
4.16925e-07
-8.04544e-08
1.18402e-07
-6.24e-08
1.5808e-08
4.65562e-08
6.60294e-07
-4.66511e-07
-1.93553e-07
-3.31778e-08
-2.92296e-08
1.58817e-08
3.56542e-07
-5.52619e-07
1.95759e-07
1.41736e-08
-1.60757e-08
1.99839e-09
-4.7558e-08
-1.88962e-08
2.26645e-07
-4.88358e-07
1.08344e-06
-9.18517e-07
-1.72457e-07
1.17968e-07
-3.23464e-07
-2.13552e-08
1.31822e-07
-2.86897e-08
-8.72735e-07
9.01518e-07
1.00561e-07
-4.91546e-08
-5.16188e-08
7.06394e-08
1.06012e-07
-4.7554e-06
7.95593e-08
-3.68224e-08
-4.24113e-08
1.20113e-06
-3.93666e-07
-7.41666e-07
-1.25366e-06
6.4496e-07
6.09357e-07
-8.2396e-07
1.09496e-06
-2.71302e-07
-3.57467e-07
7.04721e-08
1.72512e-07
-2.68969e-07
9.66322e-08
8.67853e-08
2.48942e-07
-3.37157e-07
-1.05157e-06
-5.24694e-06
6.30103e-06
2.98337e-08
-5.8734e-07
1.51266e-08
-1.1934e-07
-3.47643e-07
-6.68242e-07
1.01676e-06
1.44123e-07
-1.14114e-07
2.55887e-05
-4.08539e-05
1.52523e-05
-3.46206e-08
3.03312e-08
4.38808e-09
-2.09493e-07
-7.70128e-08
-1.2005e-07
4.48885e-07
-1.09792e-07
-1.61156e-07
1.15874e-07
-5.36864e-08
9.17688e-08
-6.24118e-07
2.57432e-07
3.71363e-07
2.9008e-07
-3.89832e-08
-2.28705e-08
-1.49434e-07
1.28321e-06
-2.73106e-06
1.44665e-06
1.32257e-07
-7.66288e-08
1.84691e-07
2.40821e-07
-4.24949e-07
-1.70734e-07
3.9648e-08
1.30395e-07
7.06698e-08
-5.20694e-08
-1.86413e-08
-5.34548e-08
-1.84604e-07
1.60055e-06
2.09032e-08
3.03325e-07
-2.85113e-07
-1.83771e-08
6.89338e-08
1.77334e-08
-8.70707e-08
2.61449e-07
-8.89496e-08
3.38642e-09
-2.59862e-08
2.24402e-08
5.07231e-07
-4.34186e-06
3.47161e-08
4.64131e-08
-8.10704e-08
8.56037e-08
9.9815e-08
-2.22864e-07
-1.02187e-07
4.58289e-08
-1.11945e-07
1.7092e-07
-5.88652e-08
6.59329e-08
1.01479e-08
-7.57635e-08
-1.58147e-07
-2.90669e-08
2.50095e-07
-2.20831e-07
1.1211e-07
2.01989e-07
8.5867e-08
1.24042e-07
2.17299e-08
3.11075e-08
7.37928e-08
-2.08598e-08
-7.20943e-07
1.12417e-06
-3.27807e-07
2.09851e-08
7.44675e-08
-5.33576e-08
3.56873e-08
-3.08755e-08
2.03903e-07
2.0987e-08
-2.46554e-08
2.3764e-07
-2.13105e-07
-1.34543e-07
1.12188e-07
2.13836e-08
-2.76187e-08
-1.27412e-07
-1.94039e-07
-1.62001e-07
3.5616e-07
2.22135e-08
-1.13319e-07
-4.00423e-09
1.75977e-07
2.25326e-07
-3.14952e-08
9.8279e-07
-1.32829e-06
-1.98115e-07
1.76814e-07
6.49175e-08
1.45648e-08
-1.57551e-07
-1.12653e-07
-1.48255e-08
1.267e-07
-8.52353e-08
8.26263e-09
-1.54306e-09
-4.10118e-08
1.09849e-07
-1.2407e-06
-9.46734e-06
1.15309e-06
8.3511e-07
2.32255e-07
-5.31004e-07
2.98403e-07
-1.97519e-08
-6.20267e-09
-2.15642e-09
5.53943e-08
-5.54846e-07
-6.12614e-08
-1.83789e-09
6.29366e-08
-3.05282e-08
9.06152e-08
-2.79021e-07
1.76619e-08
2.61616e-07
-4.82273e-09
-7.93543e-08
4.76017e-07
-1.14873e-07
-3.18581e-07
-9.34867e-07
8.16554e-09
5.32633e-08
-6.15867e-08
8.69576e-09
6.12182e-08
-7.15912e-08
9.05439e-08
-9.10648e-08
4.93332e-08
4.1586e-08
3.83059e-08
5.76315e-08
-9.56668e-08
1.73017e-08
-1.28902e-08
-3.26848e-07
6.0939e-07
-2.8259e-07
1.44204e-07
-4.66662e-08
-9.7546e-08
-2.628e-07
1.51057e-07
-5.40516e-07
-8.20479e-08
4.68018e-08
-2.51151e-08
-6.59894e-09
5.31548e-08
7.58477e-08
-7.47799e-08
-8.09232e-10
-2.12096e-07
4.01783e-07
-1.89089e-07
2.15826e-06
-2.35215e-06
2.36983e-07
-1.08763e-07
1.67239e-07
-7.25129e-08
-9.45813e-08
1.89996e-08
-9.05081e-08
4.64127e-07
1.22673e-07
-7.63881e-08
4.30757e-07
-4.4018e-07
9.26361e-09
6.90963e-08
2.82579e-08
-3.47354e-08
7.35412e-08
-3.66458e-08
5.70024e-08
-9.8883e-08
1.80431e-07
-9.21572e-08
-8.85606e-08
-8.86743e-08
2.64504e-09
8.59069e-08
-1.635e-08
1.39963e-08
2.4219e-09
-1.1015e-08
4.55064e-07
-2.70384e-07
-5.64606e-08
-4.19845e-08
9.84763e-08
2.72355e-07
-1.58282e-07
-1.14015e-07
-5.63661e-09
1.47311e-07
2.15545e-07
7.29566e-08
-5.77681e-08
1.63454e-08
-7.24064e-08
2.21395e-07
-1.49357e-07
-6.56058e-09
1.49127e-08
8.73398e-08
9.29912e-08
2.98351e-08
1.09809e-07
-1.40117e-07
-2.21828e-08
2.79506e-08
-7.14547e-07
-5.11644e-07
1.22873e-06
2.17626e-07
8.19714e-07
-1.05562e-06
-5.31371e-06
5.31337e-06
-1.11698e-08
-2.23018e-07
-6.44252e-08
1.30385e-08
-1.38337e-08
8.05534e-10
3.67157e-06
8.84749e-08
4.30943e-07
7.32659e-08
1.00945e-06
1.05744e-07
-6.85745e-09
-2.19975e-07
-1.46548e-07
8.92557e-08
1.82873e-07
-1.66019e-06
1.25481e-06
-1.1743e-06
8.59898e-07
3.15746e-07
2.20389e-09
-1.52184e-07
3.32964e-08
1.18753e-07
3.11171e-07
-2.30832e-07
-8.03496e-08
-9.4509e-09
-8.42416e-08
9.37022e-08
4.64746e-07
1.4319e-06
2.66281e-08
-5.60993e-08
2.92905e-08
7.84437e-08
1.50386e-07
-2.27842e-07
-2.98559e-07
3.51462e-07
-4.24313e-07
-3.40144e-07
7.64777e-07
1.09826e-08
-1.04315e-07
5.47908e-08
-4.3087e-07
3.75986e-07
-1.6277e-05
-9.89323e-06
-9.39351e-08
3.14791e-08
-1.76257e-07
4.2856e-08
1.33657e-07
4.31894e-08
-8.55021e-07
8.12083e-07
2.70256e-06
-3.41608e-06
7.18791e-07
3.7186e-08
-1.57342e-08
1.01739e-07
-8.70229e-08
-1.45566e-08
7.35524e-08
3.47599e-08
-1.08126e-07
5.32278e-07
-3.60045e-07
-1.72373e-07
-5.3592e-09
2.11024e-07
-5.45536e-07
-5.09971e-07
1.05549e-06
3.32479e-07
3.3348e-07
8.94979e-09
6.18901e-08
6.8262e-08
-8.41691e-08
-2.76127e-07
-2.53816e-08
3.01877e-07
9.41003e-08
-9.45633e-08
5.38849e-10
6.63457e-08
-4.48833e-06
2.10699e-06
-1.00992e-09
2.88696e-08
-2.84392e-08
-4.38935e-10
-4.96699e-09
7.11575e-08
1.32917e-07
2.41894e-07
-7.08079e-07
7.78079e-07
-7.39744e-08
9.70792e-08
-1.9634e-08
-8.26632e-08
1.00847e-08
2.43488e-07
-2.53452e-07
5.40647e-08
8.87669e-09
-6.2899e-08
-1.07843e-06
4.27786e-07
6.48634e-07
1.8993e-06
-2.45658e-06
-1.95164e-08
3.63338e-08
-1.68051e-08
5.74666e-08
4.64777e-09
-6.20278e-08
-4.85011e-07
7.08411e-08
4.52609e-08
-1.8972e-09
-1.79875e-07
1.8168e-07
9.41191e-05
-3.00636e-05
-6.40739e-05
-1.17677e-07
-1.86027e-08
-7.74496e-08
-6.00474e-08
1.38941e-07
4.31379e-07
9.31947e-08
-6.66944e-08
6.73843e-08
-1.06668e-08
1.05202e-07
-9.36754e-08
-9.77981e-08
5.28994e-07
-8.9025e-08
2.78024e-07
-1.89249e-07
-5.33549e-08
6.14366e-08
1.76341e-08
3.29758e-07
3.28115e-08
-3.62617e-07
9.73728e-08
8.50186e-09
-5.77767e-08
9.6063e-08
-2.9043e-07
-1.5127e-07
2.37388e-07
-1.36561e-08
-2.32376e-07
8.30002e-08
-2.7578e-08
-5.53499e-08
-9.23308e-07
-6.47324e-06
7.3875e-06
5.57817e-09
-5.91414e-08
1.40346e-08
-9.06544e-08
1.26115e-07
-1.13144e-07
-1.15734e-08
1.66749e-08
2.57152e-07
-2.73865e-07
-1.62964e-07
-8.30694e-08
2.45069e-07
-1.36274e-07
-2.87876e-08
7.78522e-08
3.47141e-08
-1.11875e-07
-1.70733e-07
3.13701e-07
-1.43096e-07
-6.81199e-08
9.06752e-08
5.23347e-08
-1.51265e-08
-4.1889e-08
3.04202e-07
-2.1135e-07
-9.25906e-08
-2.04285e-08
-7.39921e-08
9.39314e-08
-1.64668e-07
-1.88142e-08
-2.81205e-08
-7.8276e-08
-3.76735e-07
1.36156e-07
3.39248e-08
-1.13284e-07
-6.26063e-08
-2.77279e-08
-9.17043e-08
1.19806e-07
-7.29146e-08
9.48482e-08
-1.35111e-08
-2.36537e-08
4.38051e-07
-4.14404e-07
-4.90956e-07
-5.8735e-07
-1.25653e-07
9.72583e-08
-6.88738e-08
3.83797e-08
3.06504e-08
1.28375e-07
-2.98966e-07
-2.60802e-07
1.35563e-06
-1.10498e-06
-8.86079e-08
3.52035e-08
-2.96257e-07
-5.82477e-07
8.78547e-07
1.03462e-07
2.25563e-06
-2.08657e-06
-1.67769e-07
-1.9852e-08
9.95216e-08
-7.94964e-08
2.69796e-08
-3.31018e-08
6.14336e-09
-1.25296e-07
6.77215e-07
-5.51621e-07
-4.86579e-08
-3.99756e-08
-6.05513e-07
6.7284e-08
5.24111e-07
-4.61229e-07
-6.39004e-08
-6.80402e-07
7.3523e-07
-1.08156e-07
3.09262e-08
1.36082e-08
-6.2517e-10
-2.15726e-08
-2.7695e-07
-5.22518e-08
1.16575e-07
-6.45718e-08
7.02049e-08
-1.31072e-08
-1.40902e-06
-4.90598e-07
4.45298e-07
-5.43991e-08
-3.90934e-07
2.91298e-07
-1.74928e-07
-1.16981e-07
-4.91443e-07
-2.80596e-08
-1.40445e-07
1.68419e-07
1.16767e-08
-7.70535e-07
7.612e-07
1.19926e-08
-7.08435e-08
2.27434e-07
4.33162e-07
-7.49902e-08
-5.33994e-07
2.41902e-07
2.92184e-07
-1.45402e-06
1.20923e-06
2.45257e-07
2.07404e-07
-2.65551e-07
5.71419e-08