/*--------------------------------*- C++ -*----------------------------------*\
| =========                 |                                                 |
| \\      /  F ield         | OpenFOAM: The Open Source CFD Toolbox           |
|  \\    /   O peration     | Version:  v2012                                 |
|   \\  /    A nd           | Website:  www.openfoam.com                      |
|    \\/     M anipulation  |                                                 |
\*---------------------------------------------------------------------------*/
FoamFile
{
    version     2.0;
    format      ascii;
    class       volScalarField;
    location    "400";
    object      k;
}
// * * * * * * * * * * * * * * * * * * * * * * * * * * * * * * * * * * * * * //

dimensions      [0 2 -2 0 0 0 0];


internalField   nonuniform List<scalar> 
15335
(
0.019137
0.00023764
0.0140365
0.000161862
0.0178519
0.000149164
0.000203246
0.000244774
0.000163835
0.0249752
0.017229
0.000156208
0.0189771
0.0123669
0.0898725
0.0102002
0.000172716
0.0616975
0.000146053
0.0115819
0.0642943
0.0656437
0.000203206
0.000146157
0.000219623
0.000184262
0.00484858
0.000184109
0.0340427
0.000153443
0.00572887
0.0902774
0.000149752
0.000149848
0.000149293
0.00039381
0.000345113
0.00226836
0.0245952
0.000207201
0.000227035
0.0055431
0.000149076
0.000161409
0.0204081
0.000146708
0.00659472
0.0769986
0.0212741
0.000155073
0.000146158
0.0921284
0.00560708
0.00014985
0.000150229
0.000199937
0.000178134
0.0921405
0.00579201
0.0174693
0.0464061
0.0771648
0.000163616
0.000156471
0.000149097
0.000155747
0.0245486
0.0912125
0.000148884
0.000145232
0.000169511
0.00015388
0.000219719
0.0510047
0.0365148
0.0537671
0.000231739
0.000198363
0.0736546
0.000149722
0.0321734
0.00310308
0.0326807
0.000220611
0.00521634
0.000147114
0.000145949
0.000161197
0.000153462
0.00024505
0.0297536
0.000193124
0.00015573
0.000495415
0.00815681
0.000155533
0.000146697
0.000164773
0.000146694
0.000149803
0.000149004
0.0560673
0.000626374
0.000188887
0.000153699
0.000163368
0.00015
0.000161052
0.000477654
0.000167347
0.0386135
0.000197395
0.000148477
0.000156414
0.00493587
0.00015335
0.000169517
0.000436617
0.0274964
0.00273707
0.030888
0.015951
0.0506781
0.0512632
0.000148945
0.000148885
0.000175429
0.000149241
0.000188603
0.000150163
0.048585
0.023924
0.000147439
0.000168911
0.000195575
0.00014717
0.034516
0.0456468
0.000163659
0.000241969
0.000192755
0.000246895
0.000170882
0.0001731
0.0604081
0.00818101
0.0490771
0.000460093
0.000195108
0.0362859
0.000156468
0.0911415
0.000148894
0.000155166
0.0455791
0.000149762
0.0822158
0.0204715
0.000446478
0.0842435
0.000149682
0.000158456
0.0565362
0.000174485
0.0252258
0.0185572
0.0234672
0.000146175
0.000618338
0.00884722
0.014366
0.00261108
0.0762522
0.00016819
0.000206012
0.000149727
0.000149528
0.0509718
0.036664
0.0112328
0.000207569
0.000647782
0.0501198
0.000166331
0.000166348
0.0277636
0.000160534
0.000161015
0.0486678
0.0507429
0.0151784
0.000225951
0.000160536
0.000212344
0.00150673
0.028288
0.000148583
0.023647
0.000149157
0.0222465
0.000164455
0.000168829
0.000166374
0.0163396
0.0185247
0.000199639
0.00014959
0.00016853
0.000159757
0.000158029
0.000174712
0.000148969
0.0476633
0.000153072
0.000209854
0.000168864
0.0141814
0.0916219
0.000197897
0.00021901
0.000148916
0.000148301
0.000161641
0.000159876
0.000201772
0.00654011
0.000147205
0.00774166
0.00017379
0.0517821
0.000147274
0.000146313
0.0240456
0.000215179
0.0231587
0.000172501
0.000212467
0.000197526
0.000149415
0.00508033
0.0743077
0.000167515
0.0484987
0.000166984
0.0200685
0.000147084
0.000151419
0.0185599
0.071105
0.0707571
0.0144668
0.0180172
0.000147065
0.000146204
0.000174069
0.0195698
0.000192743
0.0495122
0.000145037
0.000201961
0.00811225
0.000149777
0.000146666
0.000149088
0.000149236
0.000144966
0.0861386
0.0244576
0.0210837
0.000149141
0.0878545
0.0219206
0.0209105
0.000147268
0.0189826
0.000152631
0.000149832
0.000210176
0.000156034
0.000173479
0.00680483
0.0560722
0.000147829
0.000192417
0.00015909
0.0395391
0.0804889
0.000157697
0.000151872
0.000150919
0.0201271
0.000155858
0.000168085
0.000232253
0.000156738
0.00214652
0.000146743
0.000223563
0.000149273
0.0473488
0.000148997
0.075836
0.000187423
0.0513437
0.000147338
0.0727098
0.0236876
0.000149439
0.0357431
0.00015477
0.0482949
0.000149604
0.000221468
0.0473295
0.0445825
0.000148793
0.000149637
0.0765909
0.00871852
0.00020342
0.000234097
0.000148813
0.00347756
0.04748
0.00016335
0.0461866
0.0486707
0.0479419
0.000158121
0.000156278
0.000149722
0.000187412
0.000151079
0.000240022
0.000170212
0.00065316
0.000167102
0.023511
0.00438637
0.0236969
0.000199811
0.000208675
0.000148499
0.000208212
0.000163474
0.000154704
0.000149868
0.000233164
0.000146469
0.0286847
0.0571497
0.045998
0.000154162
0.00984926
0.0187281
0.000148316
0.000159594
0.00016626
0.00017931
0.000189989
0.000157451
0.000183168
0.000159066
0.0288791
0.00015944
0.014528
0.000410741
0.000182786
0.000155565
0.000147076
0.0462298
0.000155605
0.00016702
0.0911595
0.00014884
0.00518997
0.0906617
0.000159904
0.000241996
0.0479907
0.000148452
0.00015657
0.0299385
0.028743
0.000161021
0.000147186
0.000198138
0.000168502
0.000249016
0.0192869
0.000148832
0.000152872
0.000147175
0.000244893
0.0373911
0.000199666
0.00023413
0.000162886
0.000167421
0.0708767
0.000188974
0.000189536
0.0281608
0.000157712
0.000152683
0.00018966
0.0409566
0.027365
0.000213688
0.000226076
0.00022162
0.000158826
0.04441
0.0398444
0.000232835
0.0795005
0.0457454
0.000154835
0.000221475
0.000170432
0.000158376
0.0183248
0.0545169
0.000146632
0.000231816
0.0467694
0.0002083
0.0746894
0.000158108
0.00515955
0.0842218
0.00538254
0.0155846
0.084507
0.02361
0.000195562
0.0736924
0.0153613
0.000145116
0.000150002
0.00438063
0.0494751
0.000149298
0.000237188
0.000177721
0.000167591
0.0160711
0.000208962
0.000197636
0.0301484
0.0160116
0.0230776
0.00017321
0.000155111
0.0838222
0.0812039
0.000149251
0.0633832
0.0498472
0.000197287
0.0754578
0.000271074
0.000199839
0.0719067
0.000178728
0.000162567
0.00015913
0.000149172
0.00017176
0.0542075
0.000227539
0.000231254
0.0318478
0.000148862
0.000149644
0.000149724
0.000402342
0.0915843
0.0497074
0.000505718
0.00019846
0.00027438
0.000164149
0.0304294
0.000151636
0.000148191
0.000149714
0.024278
0.000149063
0.0525376
0.000145395
0.000151527
0.000147399
0.0466372
0.000233179
0.000149771
0.000162841
0.000199994
0.000158614
0.000156575
0.0772144
0.000158758
0.000229577
0.000155566
0.0194502
0.000152971
0.000148454
0.0149689
0.00015239
0.000163711
0.0462422
0.000147012
0.000149703
0.0178095
0.000365051
0.00259825
0.000154742
0.00016471
0.000151401
0.0345556
0.0520384
0.000149699
0.0477833
0.0472688
0.0520609
0.0541006
0.000149444
0.0329949
0.0814283
0.035345
0.0178687
0.000164397
0.0748329
0.000167804
0.00622272
0.000243884
0.06119
0.00921527
0.0589404
0.0525764
0.044362
0.000170011
0.000152807
0.000158664
0.000167366
0.000148137
0.00019595
0.00018329
0.020886
0.000198132
0.000190513
0.000312024
0.0713231
0.0834229
0.0458954
0.000221958
0.000199693
0.000149744
0.0001573
0.000145094
0.000161647
0.0717279
0.0001511
0.000163777
0.000185336
0.000243775
0.0301862
0.0102793
0.000205864
0.0240885
0.000149324
0.000150959
0.00014968
0.000160773
0.0240341
0.000168084
0.000212204
0.000148344
0.000168339
0.0400321
0.000147659
0.000167561
0.081442
0.0647429
0.0179819
0.000148852
0.000155967
0.000153101
0.0898302
0.0186592
0.000162294
0.000145466
0.000147212
0.00014962
0.0502182
0.000212227
0.000404359
0.0611241
0.000153578
0.000230467
0.000160791
0.000154625
0.0843188
0.000149146
0.000161009
0.0543418
0.000147436
0.0162726
0.0483324
0.00016379
0.000243429
0.0917745
0.0808218
0.000166674
0.0731541
0.00018452
0.000155654
0.000149191
0.000166981
0.000197742
0.0838958
0.000170769
0.000149591
0.0257112
0.000148613
0.000158823
0.0386027
0.000197204
0.000185894
0.0292561
0.000163279
0.000148362
0.000149686
0.000160003
0.000149589
0.0813714
0.000152663
0.000190037
0.0300049
0.000145905
0.000155258
0.0283363
0.000159999
0.000176228
0.0920635
0.000150965
0.000222176
0.000149217
0.0722715
0.000216386
0.0547831
0.000195252
0.0269136
0.0466632
0.000167997
0.0176081
0.000145707
0.000198261
0.000177241
0.00284131
0.000151668
0.0717786
0.000148544
0.0409801
0.000158648
0.000303491
0.000147322
0.00015096
0.000192735
0.000201321
0.000149091
0.000166475
0.000150768
0.000221586
0.00829816
0.000161972
0.0169905
0.00897546
0.0504489
0.000149278
0.0848594
0.000151655
0.000146261
0.000202502
0.000158112
0.000154389
0.0425858
0.000160432
0.000160172
0.000159131
0.000149397
0.00014586
0.0708671
0.0454785
0.000146719
0.000146407
0.000206828
0.000147215
0.0202779
0.000167378
0.0286584
0.0910735
0.000149202
0.000169075
0.0642425
0.000183744
0.00014978
0.000168759
0.000168881
0.000149011
0.0278103
0.0420673
0.000167096
0.0226135
0.00343661
0.000166476
0.000148877
0.081157
0.000148835
0.000155791
0.000208151
0.000149342
0.000151367
0.00020321
0.000419582
0.00312946
0.0587907
0.0485463
0.000149256
0.0538736
0.00803754
0.000172287
0.00369716
0.00144176
0.000234649
0.000237608
0.000183143
0.0457413
0.000161585
0.00950919
0.000169002
0.00016414
0.000177429
0.000192526
0.000328463
0.000153567
0.000175682
0.0779104
0.000157215
0.000159999
0.0441596
0.00713141
0.0232457
0.000149657
0.00128203
0.04858
0.0687916
0.0190847
0.000150775
0.000163354
0.000229811
0.0206228
0.0234502
0.000164503
0.0436291
0.000147161
0.000211603
0.000166155
0.000155205
0.0646711
0.000147267
0.0566366
0.000163277
0.000171525
0.000156839
0.0001584
0.00361744
0.000149235
0.000149235
0.00343855
0.0197361
0.000164088
0.000147063
0.000157217
0.0232623
0.000192041
0.00843096
0.0912052
0.000161746
0.000149553
0.0322769
0.000178175
0.0608862
0.000162586
0.000159737
0.000192998
0.000149152
0.00014751
0.000164214
0.00871457
0.000176497
0.000207589
0.00014689
0.0143314
0.0479043
0.00014948
0.000149044
0.000158067
0.000148473
0.0386331
0.000145355
0.000148574
0.000148894
0.000149298
0.00014986
0.00014862
0.000145442
0.0898884
0.000171101
0.000161829
0.00572943
0.000149177
0.000155845
0.000154535
0.0659916
0.000371046
0.0653947
0.000159132
0.000149352
0.00464331
0.000149702
0.0472305
0.000158156
0.000181477
0.00438251
0.0385787
0.000149248
0.000146912
0.0447193
0.0706128
0.000161533
0.000160722
0.000145799
0.000223855
0.000166741
0.000161845
0.000152806
0.000145257
0.0364359
0.000160594
0.000146352
0.000361586
0.00500362
0.00551853
0.0156518
0.000197885
0.000145748
0.0235152
0.000212078
0.00111784
0.000161757
0.000159121
0.000193593
0.000159995
0.00430177
0.000584985
0.000147294
0.000184003
0.00019318
0.000149418
0.000476203
0.000154466
0.000153302
0.0797162
0.0815378
0.000149373
0.0482514
0.00312417
0.00014847
0.000150951
0.000221233
0.000309932
0.000177193
0.000146632
0.000175271
0.000169421
0.0701948
0.0547139
0.0151071
0.000168802
0.000150708
0.0331448
0.000155103
0.000164126
0.000153007
0.0702911
0.000248485
0.000152807
0.000147961
0.000163026
0.0721831
0.0491244
0.000149239
0.000149018
0.0476035
0.000148433
0.000204318
0.00021677
0.000146552
0.000148577
0.0810412
0.000159464
0.0841354
0.0104732
0.000149921
0.000155255
0.000209184
0.000155591
0.000185601
0.000208532
0.00016174
0.000148565
0.000146605
0.0530131
0.000161301
0.000148646
0.0544994
0.0156087
0.000149805
0.000222233
0.000148261
0.000155301
0.000149528
0.0285744
0.0430778
0.000149487
0.000151059
0.073222
0.000158584
0.000184292
0.000153865
0.000168315
0.00014929
0.000165423
0.00014921
0.00138343
0.0496781
0.000152794
0.00016586
0.0508215
0.000155056
0.0656801
0.0123711
0.000163311
0.000148928
0.0753977
0.000235217
0.000148535
0.00024328
0.000149503
0.000337997
0.0248703
0.000149596
0.0820758
0.000148524
0.00640287
0.000182062
0.0395532
0.000166558
0.0202554
0.00014578
0.0770981
0.000148691
0.000158589
0.000527848
0.0470441
0.000163556
0.0909903
0.028086
0.000229365
0.0208331
0.0844117
0.00016351
0.0844959
0.0126903
0.000152943
0.000192649
0.000220598
0.000147431
0.00016304
0.000165134
0.000161967
0.00839101
0.00019581
0.000150551
0.000208753
0.000148944
0.000288407
0.000148512
0.0621112
0.000147086
0.0217878
0.0473806
0.000230145
0.00022229
0.0731798
0.00016146
0.000146674
0.000173764
0.00959747
0.000179513
0.000147165
0.000167462
0.000153726
0.000162057
0.000171374
0.0440633
0.0817611
0.000149763
0.0357766
0.000165654
0.000229719
0.0429807
0.0821059
0.000261632
0.000147205
0.000169698
0.0917653
0.000153273
0.00745873
0.00014733
0.00014888
0.000148607
0.000148423
0.000160312
0.000198331
0.000158433
0.0169792
0.000156403
0.000148708
0.000149352
0.0455933
0.000346727
0.00015349
0.000196992
0.0200472
0.0177158
0.0850114
0.00016004
0.000174997
0.0217305
0.000148529
0.000153638
0.000432388
0.000149684
0.0229501
0.000146733
0.000147937
0.022674
0.000165154
0.000207958
0.054329
0.000157498
0.000145871
0.000151537
0.000160164
0.0507063
0.0424332
0.0242015
0.000145129
0.000148594
0.000154326
0.000149423
0.000153119
0.000149428
0.000146308
0.000149241
0.000186815
0.000148612
0.000149339
0.000454434
0.044784
0.000153946
0.0477333
0.000150137
0.000153868
0.0249406
0.000231832
0.000157437
0.0500782
0.0200817
0.000196061
0.00014672
0.0024544
0.013878
0.000164738
0.0727037
0.0501104
0.0598558
0.000304757
0.000167248
0.000164792
0.0598112
0.0001785
0.000151915
0.000146747
0.0257149
0.0001901
0.0774881
0.000149387
0.000149228
0.0710793
0.000168446
0.0773519
0.000174079
0.000148446
0.000234604
0.0919829
0.000153718
0.000254765
0.00151351
0.000283232
0.00380735
0.000151077
0.000166408
0.000190571
0.0268932
0.0002059
0.017354
0.000149177
0.000203152
0.0453557
0.00521227
0.000149259
0.000148414
0.000235769
0.000187331
0.000149579
0.018907
0.000153038
0.000149876
0.000144188
0.0444374
0.00976522
0.0616376
0.000149796
0.000149592
6.72318e-05
0.000196679
0.000192366
0.000207574
0.000183446
0.000165934
0.000148697
0.0475694
0.00024435
0.0801646
0.0244813
0.000170805
0.000265796
0.000166713
0.0825182
0.000163954
0.0467029
0.0219445
0.000149943
0.000177427
0.00018331
0.0748684
0.000151899
0.000148949
0.00689029
0.000166126
0.084909
0.041212
0.018241
0.000162216
0.0524483
0.07239
0.00016677
0.0415878
0.00342462
0.00015126
0.023895
0.0216643
0.000212375
0.0540656
0.045596
0.000150065
0.0220258
0.000163044
0.0140083
0.000188324
0.0525553
0.000234201
0.00027693
0.000162654
0.000148821
0.000148659
0.000149651
0.000149892
0.0204354
0.0002241
0.000146533
0.000148709
0.0816249
0.000147212
0.0109802
0.0508132
0.00424069
0.000222257
0.000149797
0.0501413
0.000150215
0.0196299
0.000147504
0.0675521
0.0139652
0.000192811
0.0544157
0.000152693
0.0605437
0.0599484
0.0119559
0.0432483
0.0258463
0.0554887
0.0498327
0.0235588
0.00016317
0.0119068
0.000151037
0.000149608
0.000208724
0.0211088
0.0562739
0.000150193
0.000150653
0.00014628
0.000177645
0.000221674
0.000165309
0.000148489
0.000272225
0.000166494
0.00014837
0.000149183
0.000182053
0.000369694
0.0806283
0.000149902
0.000221676
0.000147673
0.00015749
0.026905
0.000149057
0.0634475
0.0291766
0.000166212
0.000174468
0.000176321
0.000149222
0.000149461
0.000200036
0.000201783
0.00017856
0.000145094
0.000166646
0.0147878
0.0199181
0.00604199
0.00015347
0.00015966
0.000237804
0.000177745
0.0455257
0.000149535
0.000148298
0.000182405
0.0818032
0.000164678
0.0315994
0.000208634
0.000163661
0.000151292
0.000147111
0.000197867
0.000152307
0.000159944
0.000195243
0.000149703
0.0597467
0.00014838
0.000148894
0.000160383
0.000149544
0.0807423
0.035382
0.019409
0.019832
0.01917
0.000192524
0.000172722
0.000154542
0.0214831
0.000242086
0.000147388
0.0207388
0.00351185
0.000332238
0.0455854
0.0324401
0.0511951
0.000149622
0.000333226
0.086888
0.000181307
0.00015376
0.0447811
0.00017178
0.000159323
0.000165978
0.000155906
0.0311359
0.0527224
0.00612388
0.0816013
0.000187267
0.000352724
0.0146287
0.000217109
0.000182431
0.000149488
0.0220643
0.000149505
0.0620061
0.00143843
0.0082548
0.0518104
0.000182654
0.000228107
0.00014774
0.0503345
0.000163364
0.000171727
0.0733811
0.000146756
0.000205372
0.000149759
0.0133517
0.00752004
0.000147449
0.000159508
0.00696081
0.000160066
0.000219722
0.000165671
0.000174422
0.000147322
0.000167191
0.000148475
0.000161669
0.000458658
0.053151
0.0070952
0.000476514
0.0193571
0.000158242
0.0521225
0.000149264
0.000161434
0.000180897
0.0598461
0.0144735
0.0555865
0.000147233
0.0446694
0.000182942
0.000147382
0.00014836
0.0531185
0.0549328
0.000402368
0.000168723
0.0167692
0.0196622
0.0001484
0.0746382
0.0794842
0.00016109
0.0461065
0.000228709
0.000192933
0.00409975
0.0123692
0.000148828
0.000149575
0.000161209
0.000148543
0.00908768
0.000149715
0.0119899
0.000146879
0.0819082
0.000161417
0.0540286
0.0801516
0.00017281
0.0580439
0.000149806
0.000309133
0.0188828
0.0281612
0.000159483
0.000148778
0.0203077
0.0455152
0.0817447
0.000171736
0.000149698
0.000157118
0.010639
0.00552252
0.00015322
0.000172697
0.0223796
0.000148513
0.00504134
0.000184119
0.0295643
0.000216837
0.000269494
0.0626033
0.000165624
0.000175025
0.076551
0.000148156
0.000427922
0.000174667
0.0464881
0.000155034
0.075373
0.000152847
0.000177719
0.000159316
0.0477017
0.000157784
0.0148088
0.000159559
0.0233465
0.000162486
0.000172013
0.00019405
0.0148887
0.0193678
0.000310553
0.000171803
0.0671591
0.000167297
0.000163626
0.000147486
0.0542603
0.000150199
0.0266371
0.000159635
0.000157245
0.0610439
0.000148902
0.000145038
0.000149751
0.000155587
0.000150029
0.0795105
0.000158828
0.00608805
0.0657784
0.000198736
0.00014854
0.0783225
0.000159507
0.000157308
0.000150823
0.0289103
0.000148848
0.000204934
0.000147838
0.0108658
0.0653384
0.000157663
0.0343291
0.0579416
0.0433465
0.000157918
0.0857107
0.000179143
0.0279918
0.000158946
0.000155267
0.000192752
0.0578868
0.000148829
0.0216465
0.000235036
0.0001554
0.000255962
0.000153951
0.000188076
0.000156888
0.00014623
0.000156293
0.000154954
0.000174901
0.000149223
0.000169329
0.000176358
0.0172961
0.000162648
0.0782307
0.000191472
0.000148605
0.000168975
0.000232548
0.000147343
0.00019157
0.00014921
0.0790484
0.000157032
0.00060983
0.000149382
0.000201289
0.000148315
0.000160154
0.0876654
0.0693847
0.0189668
0.0189156
0.000198036
0.000176977
0.000151759
0.000165973
0.0854769
0.0083528
0.0242817
0.0103287
0.000148107
0.00037427
0.000148328
0.000157814
0.000156987
0.000172357
0.000152205
0.0482593
0.000301247
0.000190794
0.0134769
0.000189487
0.0781819
0.000204807
0.00015804
0.00014956
0.000151943
0.000157171
0.000159879
0.000177402
0.000184131
0.000151163
0.000149746
0.0141434
0.000201912
0.0659118
0.0727589
0.00794619
0.00271384
0.000160962
0.00016207
0.023713
0.000163692
0.000150632
0.000155977
0.000196221
0.000154164
0.0168046
0.000186178
0.0181375
0.000148809
0.000167859
0.07693
0.000160772
0.000211544
0.000148839
0.000157865
0.0453
0.0352199
0.0612368
0.000159912
0.000147243
0.0780706
0.000148683
0.0610811
0.0542798
0.000164999
0.0483152
0.000158386
0.000198403
0.000155133
0.000152375
0.000155512
0.0495755
0.00819423
0.000148417
0.000197984
0.000601508
0.000148016
0.000146249
0.000178988
0.0298126
0.0603216
0.0534846
0.000154467
0.000151677
0.000167183
0.000208506
0.0608855
0.000167774
0.00015061
0.000153474
0.000222182
0.000167065
0.06332
0.000785483
0.000149613
0.0226816
0.000149711
0.0117045
0.000167415
0.000171279
0.0371231
0.000168621
0.0913404
0.0001681
0.00019116
0.000199488
0.000156767
0.000147968
0.000150095
0.00016319
0.0315335
0.000172584
0.091083
0.000152687
0.000149882
0.000158835
0.0656869
0.00015069
0.000191144
0.000485895
0.0535663
0.0777951
0.0552996
0.000150709
0.000172891
0.00017338
0.000145578
0.000150451
0.000167432
0.00015235
0.000172885
0.00018613
0.000148226
0.000175925
0.0128839
0.000149876
0.0478264
0.000149434
0.00014996
0.000152425
0.000188824
0.000487921
0.0252303
0.00016556
0.000172799
0.000157414
0.000149547
0.0378094
0.000161436
0.0118383
0.0922808
0.00205697
0.00017158
0.000178806
0.00015165
0.019041
0.000211687
0.00720001
0.0713135
0.000223475
0.000152225
0.0760955
0.0686529
0.000190232
0.00030429
0.0880971
0.0617974
0.0611359
0.000169514
0.0502287
0.000159857
0.0764258
0.0535355
0.000168902
0.000148723
0.000195728
0.0558266
0.000156426
0.000152296
0.0645695
0.000149319
0.000215692
0.0513903
0.000188259
0.000202651
0.000174493
0.000149353
0.000166438
0.0498905
0.00014886
0.027464
0.000204027
0.000389174
0.000153052
0.0186669
0.000148208
0.0650138
0.000151873
0.0504274
0.000151875
0.000167627
0.000147111
0.0280611
0.000194198
0.0720185
0.00988777
0.000204329
0.000149213
0.000189552
0.0922938
0.0167821
0.0174006
0.053567
0.000149209
0.000147609
0.000191145
0.000148866
0.0188933
0.0570245
0.000178604
0.0310042
0.0696719
0.000155632
0.054953
0.000157247
0.000193267
0.0469668
0.000153589
0.000165268
0.0002081
0.000156237
0.000147076
0.000152279
0.000165053
0.000147387
0.000151194
0.00041188
0.000148662
0.000149949
0.00016061
0.000148203
0.00016333
0.000149733
0.0503042
0.0607491
0.077011
0.000146153
0.000200988
0.00053929
0.000150284
0.00934338
0.000161659
0.000159248
0.000169303
0.000159682
0.0568437
0.00619314
0.000161083
0.000152463
0.0317769
0.00019203
0.062252
0.000157098
0.0398096
0.0219655
0.000815824
0.0143335
0.000150726
0.00044226
0.0143229
0.000151012
0.000162319
0.000153509
0.000154971
0.00225708
0.0160718
0.02786
0.000148228
0.00288079
0.000174207
0.000207786
0.000174981
0.000146727
0.000149684
0.000165568
0.000154851
0.0733397
0.000166003
0.0143847
0.0513064
0.000148943
0.000166264
0.000149699
0.0211568
0.000165133
0.00920841
0.000244059
0.000147249
0.000149585
0.000175594
0.0625141
0.0844419
0.000168744
0.0167477
0.000149236
0.000241637
0.000183708
0.000148007
0.000144961
0.000169166
0.000148856
0.0534418
0.000195911
0.000145735
0.0001513
0.0734079
0.000146427
0.00962145
0.000167479
0.000166356
0.0491024
0.00014944
0.000162363
0.000148834
0.0551436
0.000152453
0.000156079
0.000157665
0.000170961
0.000144404
0.0649482
0.0274986
0.000160685
0.000149764
0.0161459
0.00200713
0.000209233
0.0555635
0.000167253
0.000150697
0.000148991
0.000205989
0.000205004
0.000229991
0.000189341
0.000169533
0.000167394
0.0763863
0.000149198
0.0464181
0.000153384
0.000192239
0.000148783
0.000147954
0.000156915
0.000151557
0.000196834
0.000156487
0.000105718
0.000208251
0.0281815
0.0409043
0.000153225
0.000159355
0.000148982
0.0216833
0.000151427
0.00017168
0.000147057
0.000169118
0.000181833
0.0586922
0.057689
0.0577622
0.0134704
0.000159477
0.00016788
0.000216083
0.0350441
0.000190513
0.000149351
0.000160892
0.0525995
0.000151597
0.000157561
0.000149766
0.000172841
0.000159513
0.0036642
0.000153705
0.000148728
0.0547564
0.026935
0.000223309
0.000151822
0.000149284
0.000179219
0.0634427
0.000171073
0.000215264
0.000159956
0.00015658
0.000208989
0.000173258
0.000155759
0.0751794
0.0119835
0.000177318
0.0365403
0.0292667
0.000293162
0.059013
0.00019405
0.0347893
0.057145
0.000174722
0.000222834
0.000148158
0.000159593
0.0198747
0.000197539
0.0594229
0.000149571
0.022916
0.000219494
0.0591841
0.000184886
0.000193839
0.00015261
0.0900407
0.0765405
0.000164799
0.0877606
0.000164114
0.000150778
0.00946982
0.000172963
0.0574216
0.000166569
0.000337765
0.0591474
0.0866451
0.00017944
0.011651
0.000149218
0.000151131
0.000204458
0.000156312
0.000150914
0.000160848
0.000171608
0.000190175
0.000232926
0.0581506
0.0149047
0.000166864
0.000148777
0.0909487
0.000165946
0.00014887
0.0555264
0.00118186
0.000147879
0.000149228
0.000156308
0.000177987
0.000178261
0.0869728
0.00035891
0.000209459
0.000154798
0.015725
0.000154073
0.000169436
0.0298748
0.000149691
0.000195212
0.000196013
0.000149512
0.000317401
0.0603416
0.000155335
0.000145588
0.000161903
0.000148101
0.000157131
0.023851
0.000149575
0.000203484
0.0319875
0.000148162
0.0563908
0.000153345
0.0360773
0.000295262
0.089831
0.0196664
0.0824626
0.000180178
0.0242442
0.000147314
0.00983945
0.000150712
0.000169934
0.000214215
0.000160477
0.0827497
0.000157632
0.000336297
0.019479
0.000149862
0.00020936
0.0345032
0.000149162
0.0748821
0.000171017
0.0562135
0.000279688
0.000162316
0.00017512
0.0169303
0.0447617
0.000186737
0.000193993
0.00015054
0.000187553
0.0505257
0.0411985
0.000171944
0.000149196
0.000167597
0.000489464
0.000152922
0.0277229
0.000149374
0.000164848
0.000173548
0.0625553
0.000148969
0.000148784
0.00015844
0.0123319
0.000145231
0.000149713
0.00021283
0.000148217
0.000195113
0.000189627
0.000165293
0.047477
0.000232615
0.0755269
0.0505069
0.000191429
0.000220633
0.0796964
0.000153758
0.000157029
0.000183105
0.000148102
0.0149702
0.000629818
0.000151395
0.000150702
0.0418431
0.0523636
0.0838981
0.000236062
0.00014807
0.0625219
0.0521819
0.000150824
0.0555536
0.0837744
0.0253378
0.0485834
0.000149296
0.000155408
0.000148737
0.000156219
0.000157081
0.000149526
0.000183349
0.000177372
0.0482704
0.000151876
0.000168056
0.000146359
0.00014968
0.0422991
0.00015641
0.0786766
0.0859237
0.000159535
0.000149168
0.000190248
0.000321137
0.000715321
0.000166602
0.014045
0.000196939
0.0443241
0.000155984
0.000165818
0.0590031
0.000147962
0.0257445
0.000198878
0.0112797
0.0518007
0.0172351
0.000151034
0.0517036
0.000168651
0.0370474
0.0120774
0.0527672
0.0212662
0.000196681
0.000186081
0.0617667
0.000149895
0.0260633
0.0220426
0.0580032
0.0188471
0.026317
0.000157276
0.0380803
0.000169964
0.00016644
0.000165555
0.0579302
0.000148799
0.000290972
0.000148929
0.000182378
0.000643529
0.00014874
0.0530652
0.0201564
0.000148856
0.000146661
0.000150367
0.0559627
0.0824974
0.000160783
0.000195205
0.000158294
0.0386387
0.0628932
0.0572733
0.0239971
0.000172791
0.0291136
0.0628499
0.0806853
0.000159233
0.0902801
0.0917225
0.0433369
0.000145491
0.0516661
0.000180374
0.0819795
0.0111654
0.00015097
0.000148879
0.000170259
0.000150415
0.0819118
0.000149229
0.0627595
0.000151574
0.026649
0.022069
0.0299648
0.000227107
0.00714406
0.000171953
0.000153672
0.000171933
0.0267573
0.00014856
0.000169461
0.02307
0.0237009
0.0811206
0.0301198
0.000155375
0.000178084
0.0395353
0.0618171
0.00521671
0.081264
0.0713031
0.0626926
0.0674823
0.0214241
0.000150671
0.000154162
0.000147975
0.0719369
0.0486373
0.000147602
0.000159839
0.0322171
0.0650866
0.000229461
0.0103703
0.000515703
0.000211708
0.000199062
0.000226907
0.000150692
0.0272955
0.0573761
0.0305488
0.000153714
0.0311065
0.000156152
0.0196915
0.0564866
0.000255756
0.039382
0.021155
0.0207491
0.000213572
0.0282223
0.0278812
0.00446301
0.000150856
0.0593621
0.0479806
0.000155551
0.000190829
0.000153017
0.000159715
0.000151856
0.027238
0.000181741
0.000156417
0.000190062
0.000148562
0.000207913
0.0115676
0.0152136
0.0271775
0.000212332
0.000155673
0.000176219
0.0620295
0.0001592
0.000147956
0.0505371
0.00295021
0.000206962
0.00296566
0.000156444
0.0334219
0.000161164
0.000175591
0.000157241
0.0001567
0.0827687
0.0616157
0.000189468
0.000343412
0.000202742
0.000156871
0.0718016
0.0316086
0.0270025
0.0829696
0.000149893
0.000149065
0.000186593
0.0319223
0.00017369
0.000160371
0.000188369
0.0001496
0.0595052
0.000148915
0.000149835
0.000145848
0.000153627
0.0785342
0.000191881
0.000149212
0.000154095
0.000166486
0.000188458
0.000184134
0.0524988
0.000158868
0.0874811
0.000149335
0.0835536
0.000178231
0.0296714
0.0503962
0.000149476
0.000145442
0.00014943
0.000149644
0.0408025
0.000155147
0.00016119
0.00395458
0.000228876
0.00014995
0.000154448
0.000150453
0.000189756
0.000206217
0.0542422
0.000330972
0.05026
0.000178464
0.0893902
0.00194872
0.000148878
0.000147213
0.0675964
0.000204294
0.0334858
0.000149538
0.00213431
0.017167
0.000227792
0.0595764
0.0196839
0.0720987
0.000152068
0.0391125
0.000192695
0.000163862
0.000159769
0.000148782
0.000251499
0.000215703
0.000241316
0.0297197
0.000279745
0.000156818
0.0585531
0.000155469
0.0551449
0.000153067
0.036438
0.000217748
0.0565063
0.055351
0.000164931
0.000164339
0.000160512
0.0196131
0.000152025
0.0260264
0.0293101
0.0286809
0.0193211
0.00016207
0.0001701
0.000201159
0.0359279
0.000155958
0.000203248
0.000170169
0.000156229
0.000185916
0.0304691
0.000167455
0.0203101
0.0137092
0.000210285
0.000148853
0.000215423
0.000153061
0.0290088
0.000151235
0.000144969
0.0001604
0.0563866
0.000159982
0.0801725
0.037067
0.000223535
0.000179153
0.000265936
0.047868
0.000147752
0.000187486
0.0705453
0.000145616
0.000148645
0.0298822
0.0165333
0.000151369
0.000161189
0.000173535
0.0301433
0.0575013
0.000162402
0.0503596
0.0241165
0.000151836
0.000317479
0.000157221
0.00968106
0.000223107
0.000217513
0.000166627
0.000300391
0.0464604
0.000149413
0.000153236
0.00015679
0.000200409
0.000159944
0.000158466
0.0211954
0.000234389
0.065807
0.000160255
0.0534811
0.0303271
0.000196547
0.0309401
0.0310306
0.000152164
0.0307452
0.0756981
0.000199175
0.000205309
0.0313559
0.087669
0.0583788
0.0311377
0.000185001
0.000163156
0.000198169
0.0266465
0.0294868
0.0315785
0.070377
0.0187342
0.000149819
0.0247486
0.00018448
0.0719906
0.00016044
0.000147099
0.000223348
0.00026124
0.085235
0.00023097
0.0133781
0.000174467
0.000241436
0.000162894
0.000159784
0.000153533
0.000151632
0.000171041
0.000223449
0.000225065
0.0593259
0.0318543
0.037491
0.000148127
0.000158986
0.000163151
0.000166093
0.000150596
0.0250956
0.000167128
0.00385042
0.0272089
0.000147916
0.0764571
0.0312363
0.0345628
0.000147046
0.000199998
0.0310966
0.0810443
0.000179629
0.000163775
0.000196711
0.000170618
0.000203782
0.000202352
0.000164469
0.000188867
0.0321282
0.0317825
0.0333747
0.000171866
0.000149609
0.000148993
0.0544502
0.0307292
0.0316522
0.000156108
0.0319421
0.0598921
0.0614967
0.00015321
0.037651
0.0349982
0.0353369
0.000196374
0.0815533
0.0338862
0.000147882
0.0364144
0.0341098
0.000147952
0.0628389
0.0342044
0.0357521
0.0607631
0.0367381
0.000147714
0.000195543
0.000209345
0.000208293
0.000199841
0.000217601
0.000160051
0.0849321
0.000205457
0.0419055
0.000208321
0.0318941
0.0781926
0.000207343
0.018096
0.0917325
0.0327557
0.000149255
0.0344952
0.0877594
0.000208349
0.0321058
0.000156404
0.0573247
0.0855293
0.000181956
0.00669112
0.000175316
0.000148536
0.000159891
0.0796286
0.0873782
0.06619
0.0651656
0.000195276
0.000163851
0.0661512
0.00015105
0.000155139
0.0567307
0.000159036
0.000182875
0.0862604
0.0865783
0.000152229
0.00569095
0.0656822