/*--------------------------------*- C++ -*----------------------------------*\
| =========                 |                                                 |
| \\      /  F ield         | OpenFOAM: The Open Source CFD Toolbox           |
|  \\    /   O peration     | Version:  v2012                                 |
|   \\  /    A nd           | Website:  www.openfoam.com                      |
|    \\/     M anipulation  |                                                 |
\*---------------------------------------------------------------------------*/
FoamFile
{
    version     2.0;
    format      ascii;
    class       volScalarField;
    location    "400";
    object      nut;
}
// * * * * * * * * * * * * * * * * * * * * * * * * * * * * * * * * * * * * * //

dimensions      [0 2 -1 0 0 0 0];


internalField   nonuniform List<scalar> 
15335
(
0.00294348
0.00102161
0.00216062
0.000290723
0.0058357
0.00320612
0.00087655
0.000607173
0.000738813
0.0055071
0.00354474
0.00281489
0.00588036
0.00106281
0.0130295
0.00157879
0.00269471
0.0110523
0.00587107
0.0013091
0.0227841
0.0229265
0.000932859
0.00585902
0.000662144
0.000168505
0.000181489
0.000144002
0.00424464
0.00074619
0.000188728
0.015675
0.00583591
0.00245196
0.0034744
0.000597104
0.000588741
0.000259598
0.00483072
0.000134113
0.00124782
0.001472
0.00349646
0.00204629
0.00313311
0.00584274
0.00103905
0.0197021
0.00390883
0.000797924
0.00585697
0.0150801
0.001039
0.00583615
0.00316269
0.000903756
6.03519e-05
0.0161752
0.0013024
0.0035988
0.0177225
0.0200215
0.00021559
0.000455177
0.0057753
0.00290798
0.00464933
0.0174642
0.00592967
0.00585033
0.000897323
0.00116023
0.000725164
0.020161
0.00716466
0.0206449
0.00122331
0.000416399
0.00705405
0.00583682
0.010553
0.000122755
0.0114642
0.000736786
0.000356759
0.00585065
0.00586999
0.00203685
0.000787188
0.0010269
0.0090934
0.0008826
0.00285096
3.04081e-05
0.00233699
0.00178766
0.00583943
0.000448692
0.00585302
0.00583656
0.00345033
0.0214357
0.000589764
0.00117838
0.00271411
0.000715971
0.00361296
0.000220215
6.25728e-05
0.000201448
0.0140671
0.000746554
0.0058423
0.00279082
0.00100436
0.000833764
0.000900316
2.80706e-05
0.00882989
0.00106187
0.00959016
0.00451461
0.0200851
0.0135339
0.00355544
0.00414519
6.55452e-05
0.0058376
0.00133701
0.00295483
0.0182845
0.00441223
0.00586671
0.000129301
0.00040619
0.00583562
0.0119364
0.00468937
0.000191801
0.000617121
0.000987562
0.00102172
0.000255902
0.00602009
0.0228742
0.000501468
0.0192403
4.92479e-05
0.000210461
0.0127294
0.00141351
0.0151833
0.00453455
0.00162066
0.0188746
0.00583623
0.021745
0.00314999
3.98627e-05
0.0124302
0.00583594
0.000326374
0.0142688
0.000702827
0.00517293
0.00258687
0.00436537
0.00585432
3.05302e-05
0.00104666
0.00106349
0.000666729
0.0244629
8.5544e-05
0.000542603
0.00583696
0.00583633
0.0140284
0.00187318
0.00324503
0.000512712
6.95609e-06
0.019597
0.000724773
0.000789238
0.00645947
0.00107219
0.000297222
0.0191146
0.0190436
0.00214114
0.000267073
0.00195437
0.000570141
0.000781442
0.0027286
0.00584116
0.00423578
0.00324997
0.00569254
0.00045858
0.000131172
0.000276226
0.00209056
0.00348568
0.000488399
0.00583629
8.55874e-05
0.000268064
0.000517836
0.000232223
0.00382014
0.0198674
0.000832437
7.53489e-05
7.96722e-05
0.00227475
0.0175201
0.00109455
3.90902e-05
0.00373024
0.00584586
0.000926939
0.00218685
0.000248633
0.00160266
0.00586865
0.000349079
0.00063531
0.0115795
0.00584179
0.0058425
0.00537275
4.16709e-05
0.0027616
0.000291931
0.000681335
0.00132099
0.00583641
0.00140549
0.0247085
0.00020522
0.0191027
0.000778801
0.0038869
0.00584649
0.00125873
0.00306377
0.02033
0.0221486
0.00210064
0.00222089
0.00585615
0.00585595
0.000621383
0.00236845
0.000906396
0.0185107
0.00584661
0.000490512
0.000254666
0.00583616
0.0058626
0.00319576
0.00593786
0.00584796
0.0131634
0.00484371
0.00346169
0.00268506
0.01373
0.00365969
0.00333771
0.00584058
0.00259119
0.000899285
0.00215288
0.000669284
0.000460138
0.000684267
0.000328127
0.0212501
0.00589026
0.000938859
0.0015827
0.0132483
0.0241522
0.00167034
0.00104937
0.00183949
0.00304755
0.00248753
0.000130474
0.000944107
0.000946486
0.000120778
0.00586294
0.00110071
0.00396548
0.0177441
0.00373307
0.0244486
0.00020039
0.0123498
0.0058339
0.00766969
0.00440658
0.00583635
0.0067382
0.000586489
0.0179177
0.00594203
0.000734458
0.013026
0.00820437
0.00482318
0.00217982
0.0209248
0.00240229
3.64498e-05
0.000317288
0.00591815
0.000111381
0.0130766
0.000690263
0.0191098
0.0180806
0.0106899
0.00172406
0.00134867
0.00583635
0.000210737
0.00125406
0.00103291
0.000128677
0.000593949
0.000244251
0.00468355
0.000331216
0.00429314
0.000801454
0.00116367
0.00583953
0.00125904
0.00198745
0.000570077
0.002365
0.000488538
0.0058464
0.00930076
0.0219543
0.0171366
0.000927907
0.000709398
0.00349916
0.00584709
0.000264891
0.000374917
0.00140824
0.000542667
0.00157489
0.000786329
0.00186261
0.0050847
0.000289589
0.0022587
4.14288e-05
0.000863094
0.00131918
0.00583691
0.0112428
0.000681293
0.000448979
0.0148594
0.00444195
0.00177857
0.0137224
0.00194215
3.16825e-05
0.0199446
0.00583955
0.00101898
0.0106455
0.00527218
0.000990481
0.00584184
0.000734989
9.33766e-05
0.00115334
0.00272596
0.00437398
0.000941062
0.00584127
0.00115065
0.00715546
0.000206889
0.000561011
0.00186773
0.000115427
0.0245897
0.000547853
0.000484263
0.00768179
0.00182392
0.00176982
0.000541284
0.00489475
0.000903118
3.44156e-05
0.000845583
0.000751828
0.00030074
0.00845962
0.0149108
0.00122051
0.0189874
0.0135399
0.00138781
2.48216e-05
0.000259146
0.000381626
0.00345083
0.0153585
0.00584018
0.00110063
0.0108826
0.00138797
0.0188145
0.00149105
0.000137385
0.0225679
0.00138531
0.0020404
0.0220408
0.00520879
0.000207058
0.0247187
0.00247489
0.00584794
0.00296528
0.00127808
0.0184262
0.00393912
0.00106844
0.00128064
9.86743e-05
0.0011373
0.00113466
0.00113232
0.00365549
0.00224704
0.00416188
0.000261472
0.000781669
0.0233765
0.0219063
0.00307528
0.0225782
0.0197602
0.00121469
0.0243312
0.000402243
0.000115716
0.023747
0.00146773
0.000721024
0.00102851
0.00310506
0.00012211
0.0141568
0.0012464
0.00097455
0.0056564
0.0045723
0.00583653
0.00594472
5.44517e-05
0.0147749
0.0185409
7.19348e-05
0.000231566
4.77014e-05
0.00143607
0.0104257
0.00102846
0.0059008
0.00583633
0.00671053
0.00433039
0.0205217
0.00584866
0.00112722
0.0058708
0.010798
0.000176428
0.00583655
0.00183164
0.000887084
0.00033867
0.000459446
0.0159995
0.0018233
0.00110756
0.00304312
0.00308542
0.00160342
0.00527814
0.0022511
0.00150766
0.000216149
0.00551498
0.00583593
0.00583609
0.00331787
0.000565165
0.00126979
0.00173174
0.000663729
0.00333388
0.00175824
0.0108577
0.00583566
0.0178934
0.0100514
0.0204318
0.0207338
0.0026432
0.0089137
0.0205769
0.0123024
0.00342852
0.00153429
0.0174564
0.000100058
0.00216162
0.00104945
0.0179004
0.000500114
0.0218759
0.020513
0.0165991
0.000167174
0.00180088
0.0015032
0.000458733
0.00583246
0.000111785
0.000308785
0.00245236
0.000613299
0.000766838
0.000320588
0.0227346
0.0201364
0.0193885
0.00072906
6.31995e-05
0.00583657
0.00133113
0.00584819
0.000388264
0.0199823
0.00333045
0.00144128
0.000343903
4.05222e-05
0.00483146
0.00285593
0.000309604
0.00465151
0.00362742
0.00130418
0.00583584
0.000301008
0.00495181
0.000443042
3.95113e-05
0.00577667
0.00077679
0.0125468
0.00588485
0.000230881
0.022079
0.00909589
0.00334617
0.0040872
0.0010684
0.000758228
0.012988
0.00238144
0.00044284
0.0058531
0.00583466
0.00583624
0.014755
0.00106751
4.77409e-05
0.0224014
0.00138023
0.000746531
0.00185508
0.00125682
0.0193191
0.0033429
0.0011767
0.0210244
0.00587033
0.00202062
0.0100536
0.000203128
0.000271937
0.0165351
0.0178865
0.000670471
0.0174138
0.000148195
0.000846942
0.00583737
0.000431104
0.00121365
0.0193446
0.000730852
0.00583529
0.000809759
0.0058405
0.00180543
0.0127431
0.000674537
0.000327144
0.00462121
0.0012255
0.00583682
0.00595544
0.000398392
0.00583543
0.0208804
0.0015251
0.000794096
0.0099503
0.00584583
0.00111054
0.00897164
0.000363337
5.31492e-05
0.0167281
0.0019543
0.000738521
0.00583656
0.0239401
0.000217099
0.0115131
0.000197972
0.00860376
0.0174015
0.000107744
0.00290393
0.00586327
0.00103988
5.45522e-05
0.000499413
0.0010522
0.00969471
0.00584229
0.00490192
0.00103216
0.000606164
0.0058724
0.00330852
0.000167412
0.000303831
0.00314275
0.00163153
0.00355074
0.000229879
0.0024353
0.000483661
0.00320104
0.000243854
0.019584
0.00583666
0.0201077
0.00128918
0.00584347
0.00042638
0.000455057
0.000690525
0.014681
0.0012005
0.000366417
0.000283378
0.00274692
0.00584545
0.0246335
0.00557513
0.00585589
0.00584758
0.00060565
0.0058556
0.00305439
0.000256831
0.00839778
0.01438
0.00413683
0.000376747
0.0239894
0.00101208
0.00583639
0.000112946
0.00087171
0.00356815
0.00173365
0.01446
0.000766912
0.00338195
0.0014566
0.00077551
0.005839
0.0157821
0.0058388
0.00111142
0.00118302
0.00583469
0.00295417
0.000428312
0.000208953
0.000260881
0.0218152
0.0140203
0.00583742
0.0205035
0.000231644
0.000964248
0.000810675
0.000840534
0.00106138
0.00106123
0.000971498
0.0166852
0.000194219
0.0013472
0.000123233
0.00066277
7.76206e-05
0.00018864
7.37667e-05
0.00338499
0.000225564
0.0237753
0.000414134
0.00107989
0.0185432
0.00163395
0.00515889
0.00236617
0.000490326
0.0182671
0.0233203
0.00354204
0.00273694
0.00177338
0.000690564
0.00365316
0.00518216
0.00103319
0.0161036
0.00584429
3.55034e-05
0.00161755
0.000844394
0.00878206
0.00586849
0.0208088
0.0011686
0.000108746
0.000433003
0.000325894
0.000321771
0.00583707
0.00364189
0.000673949
0.00288032
0.00145283
0.00584423
0.000550213
0.00414243
0.000897061
0.000487327
0.0140591
0.000954523
0.00583612
0.00722029
6.99672e-05
0.0222595
0.00127456
0.000263364
0.000957285
0.00316764
0.00588324
0.00101987
0.0026633
5.34843e-05
0.00113397
0.00585619
0.00213031
0.0140994
0.00244119
0.00354395
0.000367626
0.00584123
0.00758216
0.000246009
0.00585119
0.00396846
0.00583714
0.00257004
0.00584275
0.00584855
0.0137721
0.000385576
0.000365954
0.00109695
0.00583698
0.00285431
0.00168341
0.00739301
4.7135e-05
0.0228082
0.000657776
0.00583739
0.00109839
0.00258196
0.0197313
0.0010708
0.00034187
0.00125984
0.0127874
0.0029509
0.00590696
0.00837713
0.0241427
0.00115396
0.000415003
0.00586493
0.000826223
0.00160226
0.00122548
0.000920639
0.00584793
0.0114696
0.000581592
0.00584607
1.68943e-05
0.00120194
0.000165781
0.0022957
0.00121163
0.00584687
0.00332276
0.000735003
0.000339869
0.000724847
0.000299605
0.000797195
0.000451651
0.00104709
0.000545162
0.00583479
0.000660731
0.000990292
0.0026901
9.12225e-05
0.00262694
0.000752141
0.0195202
0.0178663
0.00275653
0.0199926
0.000378675
0.00583894
0.00148294
0.00101174
1.72809e-05
5.46225e-05
0.00585231
0.000696385
0.000783698
0.0199415
0.0210016
0.00288749
9.45809e-05
0.00280813
0.0116982
0.00164822
0.000152827
0.00135064
0.0227826
2.10475e-05
0.00166187
0.00583352
0.00119458
0.0108725
0.00302268
0.00290726
0.00333419
0.0168405
0.00557432
3.41757e-05
8.27797e-05
0.00584933
0.00496199
0.0236999
0.0011124
0.020934
0.000209995
0.00205878
0.000936646
0.00112105
0.00130473
0.000704844
0.00126213
0.000207334
0.00585006
0.00585047
0.0206306
0.000757026
0.00584192
0.0210702
0.00508698
0.00301915
3.32971e-05
0.00587146
0.0010791
0.0024847
0.0067893
0.0154314
0.00216237
0.00179524
0.0179491
0.00170295
0.000377118
0.00268067
0.000252178
0.00269128
0.000488868
0.00313792
0.000873716
0.0186952
0.0017039
0.000769322
0.0197818
0.00101054
0.0241452
0.00262144
0.000723147
0.00583915
0.0149873
0.000327827
0.00584995
0.00115213
0.00244895
0.000520478
0.00547739
0.00583548
0.017767
0.00585044
0.00146448
9.19775e-05
0.0118447
0.000778959
0.00353159
0.00584633
0.021237
0.00584457
0.00155635
0.000109013
0.0196974
0.000128489
0.0147794
0.00708312
0.000153246
0.003425
0.015736
0.0011652
0.0176541
0.00176667
0.0008175
3.96897e-05
0.00067131
0.0058694
0.000160643
0.000239964
0.000188092
0.0018018
3.84896e-05
0.00276842
3.02727e-05
0.00397998
0.000639702
0.00583987
0.0239059
0.00584708
0.00361634
0.0174846
0.00113226
0.0010607
0.0245249
0.000199603
0.00585754
0.000203365
0.000613156
0.000106596
0.00583812
0.000263543
0.00317487
0.000249514
7.00792e-05
0.0123234
0.016834
0.0058359
0.0106935
0.000358827
0.00126093
0.0119531
0.0211036
0.000611688
0.00583792
8.50136e-05
0.0166286
0.000693329
0.00039025
0.00583487
0.00583933
0.00585213
0.00583808
0.00217122
3.68885e-05
0.000335409
0.00350559
0.000468995
0.00584387
0.00285543
0.0165835
2.94844e-05
0.00227646
0.00113417
0.00345233
0.00193293
0.0177443
0.000328333
0.000184066
0.00311893
0.00516369
0.00111999
0.000411653
0.00595595
0.00399476
0.0058397
0.00583286
0.00415205
0.000454105
0.000342505
0.0216748
0.000337629
0.00584599
0.00308844
0.000355309
0.0195603
0.00336761
0.00681305
0.005847
0.00585062
0.00173928
0.00583695
0.000817937
0.00293458
0.00584349
0.0029024
0.00074343
0.00592241
0.00583747
5.02726e-05
0.0166054
0.000881013
0.0178517
0.00172135
0.000695472
0.00583323
0.000180274
0.000959701
0.0192213
0.00349187
3.78005e-05
0.00585047
0.00102854
0.00188677
0.000141411
0.0243964
0.0192342
0.0223469
0.000112694
0.000830971
0.000976307
0.023653
4.45941e-05
0.00121857
0.00585709
0.00893185
0.00072424
0.0243578
0.0058347
0.00583662
0.0246225
0.000161721
0.0171997
0.00109307
0.00583614
0.00106239
0.0173777
0.000794767
0.000260797
0.000468012
0.000651837
0.000261828
0.0015465
0.00157223
0.000820273
0.00642604
0.000577477
0.00576094
0.00583683
0.000552164
0.0187808
0.000481341
0.00591213
0.00583886
0.000931796
0.000771767
0.0058353
0.0028165
0.00080029
0.00364407
0.00584719
0.0161438
0.00123517
0.0213216
0.00583659
0.00583701
0.000278222
3.64498e-05
0.000411023
3.12768e-05
0.00065501
0.00113782
0.00590724
0.01761
0.000653471
0.0179219
0.00499582
0.000402319
0.000460805
0.00161298
0.0180401
0.000213519
0.0140408
0.00559002
0.00583662
0.000760556
0.00033222
0.0240406
0.000980446
0.00583364
0.00196731
0.000724245
0.0210772
0.0149108
0.00355241
0.000945518
0.0149626
0.0201265
0.000620002
0.016917
0.0011284
0.0015959
0.00444171
0.00357826
2.94087e-05
0.0127396
0.0169825
0.00185379
0.00380779
0.000167518
0.00111696
0.000491966
0.0203364
0.000953224
0.000556789
0.00178223
0.00359317
0.00495144
0.00583645
0.00583651
0.00343738
0.000772631
0.00584796
0.00584366
0.0201815
0.0059132
0.000748913
0.0183511
0.000290065
0.000797322
0.00337197
0.0123896
0.0020481
0.00338618
0.00587455
0.024107
0.00211887
9.97297e-05
0.0217378
0.000773869
0.0153517
0.0211849
0.00174956
0.0158914
0.00158493
0.0212142
0.0179078
0.00426567
0.000996894
0.00311672
0.00162688
0.00583555
0.00113886
0.00675226
0.0212229
0.00291338
0.00132579
0.00584678
0.000290093
0.000951372
0.0010786
0.00573134
0.000361121
0.000832131
0.00590578
0.00592748
0.000596304
0.000267236
0.0210491
0.00246792
0.000151269
0.00587891
0.000515165
0.00593092
0.00378435
0.024072
0.0071334
0.00113432
0.00110338
0.00117706
0.00244555
0.00583704
6.35892e-05
0.000251978
0.0012121
0.00586813
0.000831794
0.00180182
0.00290844
0.000374979
0.00229157
0.00159991
0.00107215
0.000756659
0.0189319
0.00583528
0.00591542
0.000958854
0.0211348
0.0010971
0.0113045
0.00112713
0.000998585
0.00150118
0.00584247
0.000493577
0.00232623
0.0027254
3.24023e-05
0.00392073
0.0218027
0.00583725
0.00583912
0.00198082
0.00583537
0.020607
0.00428794
0.0026774
0.00268544
0.00342991
0.000881315
0.000251675
0.000816346
0.00392548
0.000357347
0.00583516
0.00378479
0.000876162
3.97671e-05
0.0112429
0.00906845
0.0198902
0.00583583
0.000657872
0.0130564
4.13077e-05
0.000682638
0.0129721
0.000479366
0.00177977
0.000226348
0.000500835
0.0111194
0.0205369
0.000396495
0.0204962
0.000486334
4.73866e-05
0.00246546
0.000950194
0.00032338
0.00583693
0.00375152
0.00583505
0.023232
0.000257647
0.00174187
0.0144856
0.000615173
0.000626666
0.00589243
0.011831
0.000140533
0.00601339
0.0247508
0.00585255
0.00057479
0.00228753
0.00241765
0.00122232
0.00583448
0.000610155
0.00123207
0.000922881
3.40342e-05
0.00101767
6.47333e-05
0.00587661
0.000307552
0.00584016
0.000977933
5.6596e-05
0.0194279
0.000202971
5.15136e-05
0.00354497
0.00600727
0.0204213
0.00261963
0.0011546
0.000305136
0.0222002
0.00213274
0.0223957
0.00583505
0.00308637
0.000587294
0.00583855
0.00583779
0.0116997
0.00658417
0.000243997
0.000401765
0.0023653
0.00318812
0.0058387
0.0242122
0.0178269
0.000965805
0.0117141
3.65043e-05
0.000190959
0.0017027
0.00358222
0.00433987
0.00583711
0.000982732
0.00523285
0.00192876
0.00583574
0.00170909
0.00583965
0.0238993
0.000194118
0.0219062
0.019596
0.000626984
0.0214468
0.00583628
4.15148e-05
0.00334268
0.00904994
0.000971778
0.00460851
0.00512406
0.0114992
0.0239226
0.000164544
0.00248603
0.000522993
0.00120087
0.00174194
0.00148115
0.000503313
0.00378339
0.00583605
0.000859887
0.000638176
0.00746204
0.000844368
0.000641748
0.0236151
0.00115358
0.000138045
0.0154967
0.00586875
3.10886e-05
0.000704749
0.0171019
0.000569604
0.024411
0.000765214
0.000285335
0.00179549
0.0114365
0.000847946
0.0019465
0.000567078
0.00584097
0.00129358
0.000503206
0.000422405
0.00225307
0.00267012
0.000150275
0.000626322
0.0238498
0.00088666
0.0010035
0.00588126
0.0220748
0.00191348
0.00807709
0.000482003
0.000554831
0.0232581
0.00401634
0.00585135
0.00583614
4.69747e-05
0.00173641
0.0225226
0.000497826
0.000390035
0.0238966
0.000393064
0.00583563
0.0182118
0.000655747
0.0013042
0.00364738
0.00899763
0.00583876
0.000164568
0.00583544
0.00193625
0.0235729
0.00109739
0.00965355
0.0157283
0.0140696
0.00077045
0.0123432
0.000541466
0.00355681
0.00112248
0.00137604
0.000135195
0.0200233
0.00443619
0.00289627
0.000651273
0.00103794
0.000367781
0.00177852
0.000496522
0.00143848
0.00584565
0.000562566
0.00163393
6.49986e-05
0.00316566
0.000778157
8.10475e-05
0.00224395
0.000161559
0.0242995
0.000952783
0.00583553
7.44948e-05
2.56708e-05
0.00589008
0.000856427
0.0025896
0.0222084
0.000387989
0.000386548
0.00270321
3.65208e-05
0.00583478
0.000248233
0.0135608
0.0152859
0.00281262
0.00615117
0.000292869
0.000763722
0.00217421
0.000310778
0.0201266
0.000478694
0.00587272
0.00213271
0.0058428
4.87808e-05
0.00583452
0.0014629
0.00141551
7.00157e-05
0.00325445
0.0136325
4.2381e-05
0.000406529
0.00255976
0.000754364
0.0243074
0.00102993
0.00152835
0.00583559
0.00339935
0.000964414
0.00123591
0.000297024
0.000986102
0.00344634
0.00583669
0.0044195
0.000881818
0.0239403
0.0122039
0.00119089
0.000293575
0.000207517
0.00018007
0.00451493
0.00194467
0.00354885
0.000438683
0.000667075
0.00258347
0.00513264
0.000719568
0.00235462
0.00583908
9.84748e-05
0.0181949
0.000899484
0.00108692
0.00583584
0.00268996
0.0113098
0.0117734
0.0231971
0.000576565
0.0058544
0.0215452
0.00584305
0.0231031
0.0194972
0.00100089
0.0106108
0.000719994
0.00130738
0.000949306
0.00360144
0.000624549
0.00420916
0.0011251
0.00583662
0.00072086
0.000608622
0.00589448
0.00585403
0.00114568
0.00744145
0.0232538
0.0142297
0.000825663
0.00209794
0.000134018
2.67093e-05
0.0214141
0.000354734
0.00258504
0.0016134
0.00101933
0.00143531
0.0224298
0.000428976
0.00583569
0.00390159
0.00583675
0.0014971
0.000167844
0.000822887
0.011911
0.00159498
0.0170795
0.000412261
6.10427e-05
3.30943e-05
0.000386871
0.00586482
0.00195994
0.000155472
0.0091268
0.000617479
0.0165608
0.000850196
0.00583643
0.000638594
0.0235603
0.0013342
0.000835805
6.75484e-05
0.0200035
0.0176167
0.0217639
0.00157042
0.000495664
0.000162967
0.00586216
0.00589122
0.000191356
0.00190621
7.15859e-05
0.000723248
0.00583428
0.000163676
0.00195099
0.00583644
0.0179814
0.00360834
0.00325405
0.000860394
0.000511415
2.35959e-05
0.00449635
0.000674818
0.0024357
0.000393624
0.00583552
0.010183
0.000957157
0.00181287
0.016381
0.00041021
0.00014619
0.000287662
0.00285682
0.00245018
0.00112825
0.00152688
0.0168123
0.00105181
0.00101556
0.0245103
0.00663962
3.91867e-05
0.000698844
0.0121536
0.0154734
0.0232433
0.000340952
0.0189164
0.00059624
0.024247
0.0197656
8.4032e-05
0.00584286
0.000132703
0.0154811
0.00253988
0.00341849
0.00579189
0.00283561
0.000242784
0.021311
0.000322316
3.45077e-05
0.000182541
0.0028541
0.00010981
0.0124762
0.00583919
0.00800108
3.7476e-05
0.000182627
0.000770676
0.00300333
0.00584647
0.0123069
0.00234766
0.0195706
0.00239182
0.000772609
0.00583551
0.00891878
4.01026e-05
0.0227022
0.00271428
0.000611065
0.0058364
0.000342454
0.0164654
0.00200457
0.00344606
0.00421686
0.00583623
0.00586671
3.98934e-05
0.00440403
0.00317807
0.0223245
6.0159e-05
0.0106332
0.0226875
0.000510214
0.0130227
0.00185037
0.000409182
0.00452509
0.000695372
0.00112611
0.00108265
0.00258973
0.00584164
0.00327943
0.000197366
0.00587646
0.0012884
0.000447734
0.00584338
0.00390022
0.00063765
0.00583455
0.000473308
0.00583668
0.0196425
0.0228902
0.0244671
0.00584579
3.26609e-05
0.000629429
0.00326107
0.00272101
0.000401903
0.000670454
0.000833005
0.000320373
0.0207462
0.000508215
0.000208097
0.00241716
0.00528587
0.000383406
0.0229494
0.00220809
0.0158514
0.0059643
0.00025762
0.00235636
0.00387276
3.10175e-05
0.00186244
0.00188547
0.000182914
0.00231362
0.000555293
0.000960968
0.00201596
0.000782676
0.00590022
0.00013145
0.000711747
4.83841e-05
0.000178005
0.00585964
0.00295059
0.000657054
0.000888415
0.0185629
0.000686215
0.0032946
0.0124987
0.00583908
0.000232229
0.00583564
0.00331907
0.000254831
0.00215727
0.00046298
0.00585715
0.00400305
0.000686401
0.0233546
0.0156679
0.000267533
0.00202526
0.00307367
4.98068e-05
0.000576003
0.00590741
0.0058512
0.000872664
0.00583344
0.0198186
0.000699951
0.00586036
0.00114471
0.0234304
0.00585618
0.00142068
0.000355245
0.000208832
0.020773
0.00357503
0.000184135
0.00592169
0.0222996
0.0031518
0.000474481
0.0018282
0.000509075
0.00584863
0.0120821
0.00953264
0.00076173
0.00583592
0.00240064
0.000921261
0.000340416
0.0217859
0.000298024
0.00292866
0.00368799
0.00062958
0.000620555
2.55087e-05
0.00023257
0.000846369
0.000465493
0.0207593
0.00583416
0.0191505
0.00112877
0.000859856
0.00512174
0.00585025
0.00274942
0.00136226
0.000655746
0.0004142
8.79548e-05
0.000371996
0.00899402
0.0137423
0.00151713
0.00207706
0.00446421
0.00326325
0.00313644
0.000176308
0.00583916
0.000813305
0.000853505
0.0155491
0.0223287
0.0222208
0.00431796
0.00601551
9.48619e-05
2.68118e-05
0.00735876
0.000557335
0.00282706
0.000431881
0.0209347
0.00117108
0.000402782
0.00472677
0.000247335
0.00121929
0.000829284
0.00105419
0.00583865
0.0197097
0.00878433
0.00131071
0.00492901
0.00301164
0.000547013
0.0225214
0.000455428
0.000186437
0.00176029
0.000458518
3.13866e-05
0.00062883
0.000515155
0.0174994
0.00169663
7.51832e-05
0.0115743
0.00752606
3.23647e-05
0.0232142
0.000715231
0.0124314
0.00394089
0.00123277
0.000407516
0.00584515
0.00168748
0.00288266
0.00111979
0.0231958
0.00583688
0.00400653
0.000493826
0.0223047
0.000311016
0.000995619
0.0026316
0.0214813
0.00957062
0.000197917
0.0138732
0.000988928
0.00133421
0.00162133
0.000252927
0.0197898
0.000127088
3.77807e-05
0.0223052
0.011818
0.00139875
0.00352
0.0059353
0.00149174
0.00109088
0.00260895
0.0017404
0.000394414
0.000953855
0.000224613
0.00112859
0.00526175
0.00232128
0.000110417
0.00507676
0.0195526
0.00112759
0.0035264
0.0201916
0.000774215
0.00583551
0.00594391
0.000439443
6.26982e-05
0.00128747
0.0118458
0.000388897
0.000304447
0.00122997
0.00442317
0.00264619
0.000948724
0.0100366
0.00340986
4.59402e-05
0.00120816
0.00367748
0.000666441
0.0225517
0.00141182
0.00584642
0.00123365
0.00583268
0.00254566
0.00453592
0.00501058
0.000597969
0.00887189
0.00584623
0.0213208
0.00235264
0.0107047
0.000604943
0.0215407
0.00323954
0.017502
0.000860478
0.00700405
0.005837
0.00160575
0.00145659
0.00010809
3.32947e-05
0.000222537
0.0182848
0.000340775
0.000290517
0.00275655
0.00583673
0.000284604
0.00936351
0.00583633
0.024677
0.00601503
0.0205145
4.09443e-05
0.000324744
0.000661674
0.00496265
0.0187135
0.000728423
0.00040451
0.00138864
0.000255973
0.00354162
0.00829311
0.000141944
0.00270767
0.000163175
0.000539429
0.00251825
0.00636263
0.00590864
0.00032142
0.000115673
0.0232736
0.00429663
0.00583806
0.00030698
0.00153877
0.00584825
0.00583628
2.74338e-05
0.00584763
0.00109697
0.000393796
0.000251341
0.0177372
0.000965733
0.0216996
0.0177913
0.000802292
0.000811974
0.0192387
0.000938399
0.00262506
0.00063415
0.00584415
0.00205203
0.000403508
0.00104243
0.00182844
0.0136138
0.0190453
0.0184526
0.000942233
0.00586759
0.0215331
0.0204139
0.00155973
0.0200883
0.0205204
0.00708469
0.00268703
0.00406424
0.00100246
0.00555318
0.000593229
0.0024826
0.0058352
0.000300084
0.000725796
0.0181132
0.00105514
0.000259558
0.00585631
0.00583673
0.00963648
0.000439892
0.0087943
0.0155621
0.000659349
0.00592795
0.000386819
4.51395e-05
0.000212178
0.00120341
0.0038114
0.000675049
0.0125318
0.00127911
0.000286993
0.0198192
0.00583517
0.00711987
0.000211905
0.0033032
0.0195458
0.00501251
0.00268621
0.0195144
0.00013823
0.0108633
0.00113784
0.018796
0.00241832
4.54663e-05
0.000173684
0.0228191
0.00583642
0.0071032
0.00368016
0.0210502
0.00537184
0.00704006
0.00190947
0.012551
0.000967568
0.000463626
0.000644575
0.0223268
0.00583567
2.84663e-05
0.00388362
0.00089234
0.000348758
0.00548007
0.019692
0.00553298
0.00593092
0.00585983
0.00597564
0.0218169
0.0131193
0.00197412
0.0004726
0.00154963
0.0116392
0.0235635
0.0229762
0.00723846
0.00102036
0.00723664
0.0234921
0.00978031
0.000305572
0.0195852
0.0165583
0.012395
0.00584771
0.0208897
0.000355554
0.0212992
0.00364708
0.00166935
0.00583553
7.62629e-05
0.00597844
0.0220937
0.00590646
0.023609
0.00104275
0.00700935
0.00584058
0.00767853
0.00067402
0.00141318
0.00233339
0.00359615
0.000268266
0.00686273
0.00584198
0.000102162
0.00586737
0.006952
0.0112316
0.00834352
0.000658502
0.00034885
0.0113142
0.0236166
0.000133199
0.0236043
0.0245034
0.0232718
0.0238217
0.00508417
0.00209236
0.00116737
0.00585122
0.0228055
0.0151187
0.00585538
0.000729106
0.00888836
0.0226016
0.00123319
0.00156202
6.52441e-05
0.000692039
0.000299077
2.69309e-05
0.00199965
0.00687122
0.0223309
0.0101958
0.00265681
0.00825085
0.00247922
0.00552781
0.0222758
2.9323e-05
0.01326
0.00669148
0.00577957
0.000433361
0.00841983
0.00904681
0.000830148
0.00166937
0.0216168
0.0179812
0.000453422
0.000549495
0.00248537
0.000326097
0.000977854
0.00669639
0.000131972
0.00045588
0.000864149
0.00583686
3.27325e-05
0.00202052
0.00446507
0.00652244
0.000748786
0.00141225
0.000304546
0.0230725
0.000366177
0.0058458
0.0160797
0.0011923
0.00036214
0.00102885
0.00142561
0.00962707
0.0012846
0.000308898
0.000983577
0.000437798
0.0115266
0.0225599
0.000415185
4.24546e-05
0.000586438
0.00146504
0.00686868
0.00862114
0.00620969
0.0180901
0.00519806
0.00583556
0.0011798
0.00873429
0.000122485
0.000602564
0.00020072
0.00583662
0.0200681
0.00444274
0.00220608
0.00586307
0.000974824
0.0181862
0.000819108
0.00319029
0.0033049
0.000399006
0.000402932
0.000184138
0.0172232
0.000292046
0.0119908
0.00585193
0.0109307
0.00118342
0.00772212
0.00979254
0.00583711
0.00585885
0.00424987
0.00281173
0.0069823
0.00107965
0.00254936
0.000635837
3.37712e-05
0.00583665
0.00220984
0.00378235
3.8234e-05
3.56362e-05
0.0182023
3.25943e-05
0.0189335
0.000547622
0.0139171
0.000775731
0.00334959
0.0058528
0.0241331
0.000455171
0.0086857
0.00252473
0.000622625
0.00179321
0.00129098
0.0209997
0.00333188
0.0197003
0.00273371
0.0114328
0.000134723
0.000423344
0.00199678
0.00485456
0.000697898
0.000928464
3.84747e-05
0.00937123
3.94006e-05
0.0010284
0.0212411
0.000627192
0.0219118
0.00123079
0.0120469
2.94462e-05
0.00390604
0.0187668
0.000277795
0.0011797
0.00028742
0.00575767
0.0037152
0.0055076
0.0093112
0.00826122
0.00260375
0.00187565
0.000154648
0.000544953
0.00615945
0.000445957
3.02681e-05
0.000455891
0.000601899
0.000157108
0.00942869
0.000799669
0.00348662
0.0043894
3.64467e-05
0.00482297
0.000637454
0.00122015
0.00840084
0.00141135
0.00584713
0.000704031
0.0192901
0.0002752
0.0205602
0.00948301
0.000995941
0.000901498
3.66221e-05
0.0179493
0.00586596
0.00020829
0.0169605
0.00584707
0.00585119
0.00897551
0.00399212
0.00106242
0.000208941
6.07434e-05
0.00942691
0.0211892
0.00022508
0.0196341
0.00485176
0.0034345
4.0262e-05
0.00113859
0.00139419
0.0013632
3.76422e-05
0.0004889
3.86599e-05
0.0195326
0.0027134
0.00372914
0.00108839
0.00091772
0.000344661
0.00116164
0.00536743
0.000936395
0.0238735
0.000240616
0.0196782
0.00912968
3.84827e-05
0.00830169
0.00948164
0.000929923
0.00948658
0.0150205
0.000132253
0.000615639
0.00962819
0.0151482
0.0202536
0.00954593
0.00116798
0.000752835
0.000197654
0.00716293
0.00728462
0.00954368
0.00937503
0.00332278
0.00583639
0.00698741
0.000704387
0.0106886
0.00107564
0.00583556
0.00120437
3.98997e-05
0.0142782
0.000493557
0.00293069
5.93461e-05
3.45804e-05
0.000151435
0.00113419
0.00329661
0.00295239
0.000275603
0.00117347
3.71244e-05
0.0206812
0.00948722
0.0117588
0.00583276
0.000419553
0.001347
0.000802123
0.00169171
0.00581059
0.000111437
0.00134919
0.0013595
0.005862
0.0175636
0.00944192
0.0111972
0.00583955
0.000798524
0.008542
0.0111043
0.00140467
0.000723979
0.000140811
0.000466607
0.000798215
0.0005358
0.000813796
0.000827188
0.00948816
0.0087717
0.00972954
7.24678e-05
0.0058356
0.0039225
0.0206842
0.00816204
0.00948882
0.000637918
0.00914395
0.0232379
0.0216141
0.00339598
0.0122036
0.0107377
0.0108852
3.7313e-05
0.0171314
0.0100107
0.00589565
0.011497
0.0101435
0.00584428
0.022203
0.010204
0.0111186
0.0232622
0.011662
0.00583828
4.62694e-05
0.00073777
0.00020058
0.000565417
0.00100234
0.00121003
0.01069
0.00112553
0.0154707
0.000692606
0.00940049
0.0161629
0.000678151
0.00382409
0.0165319
0.00934964
0.00545462
0.010415
0.0147884
0.00128548
0.00939809
0.00114166
0.0220655
0.0218548
0.00101625
0.00195285
6.56575e-05
0.00544294
0.00110209
0.0159964
0.0137356
0.0241127
0.023166
0.000285629
0.000250583
0.0240437
0.00358488
0.000537182
0.00700558
0.00035449
0.000651274
0.0148129
0.014689
0.00198726
0.0003466
0.0235031
0.0113307
0.0237487
0.00896993
0.000805026
0.0238459
0.0164571
0.000251028
0.000572637
7.16557e-05
0.00688681
0.000207385
0.00308136
0.00201978
0.00370547
0.00959276
0.000971935
0.00105448
0.000807389
0.000787433
0.000844225
0.00118326
0.00583656
0.00583619
0.00130565
2.59656e-05
0.0229196
0.00115346
3.70918e-05
0.00118926
0.000184865
8.47137e-05
0.000235061
0.0185083
0.00218257
3.97805e-05