/*--------------------------------*- C++ -*----------------------------------*\
| =========                 |                                                 |
| \\      /  F ield         | OpenFOAM: The Open Source CFD Toolbox           |
|  \\    /   O peration     | Version:  v2012                                 |
|   \\  /    A nd           | Website:  www.openfoam.com                      |
|    \\/     M anipulation  |                                                 |
\*---------------------------------------------------------------------------*/
FoamFile
{
    version     2.0;
    format      ascii;
    class       volScalarField;
    location    "400";
    object      omega_0;
}
// * * * * * * * * * * * * * * * * * * * * * * * * * * * * * * * * * * * * * //

dimensions      [0 0 -1 0 0 0 0];


internalField   nonuniform List<scalar> 
15335
(
6.50147
0.232614
6.49649
0.0402176
3.05909
0.0254533
0.111656
0.403116
0.0359586
4.5351
4.86045
0.0268563
3.2272
11.6361
5.89944
6.46091
0.0288692
5.58232
0.0248766
8.84727
2.82189
2.86322
0.111345
0.0249456
0.210415
0.141171
15.4135
0.142798
7.18152
0.0277252
17.1846
4.65455
0.0256604
0.0255434
0.0253557
0.659513
0.586159
8.63726
5.09141
0.370034
0.181945
3.76565
0.0254174
0.0297855
6.5137
0.0251095
6.34688
3.48876
5.44256
0.0286413
0.0249546
4.99206
5.39674
0.0256761
0.0254298
0.101463
0.160019
5.06486
4.44718
4.8542
2.61848
3.39488
0.0461853
0.0312689
0.0251679
0.0266501
5.28002
4.59526
0.0251083
0.0248246
0.0408289
0.0274051
0.211529
2.52988
5.09651
2.60438
0.189434
0.142802
10.4415
0.0256513
3.04875
13.9032
2.85067
0.210658
14.6215
0.0251449
0.0248637
0.0295939
0.0275334
0.238632
3.272
0.0799083
0.0267368
3.80961
3.49031
0.0273056
0.0251217
0.0405204
0.025063
0.0256664
0.02541
2.6156
1.06209
0.0644022
0.026195
0.0356083
0.0253807
0.0406928
3.21357
0.0547775
2.74496
0.102089
0.0254141
0.0269392
4.91449
0.0275554
0.0408099
3.80169
3.11401
2.57764
3.2208
3.53321
2.52317
3.55807
0.0254306
0.0254077
0.131621
0.0255655
0.0638599
0.0254885
2.65717
5.4222
0.0251314
0.0687199
0.127866
0.0252192
2.89167
9.7341
0.0463639
0.392076
0.0790353
0.241653
0.0606841
0.0287538
2.64088
16.2864
2.55075
5.29851
0.187115
2.85057
0.0280418
4.89571
0.0254069
0.0271447
2.41484
0.0256608
3.43946
6.49892
3.56038
6.77731
0.0256482
0.0345039
3.5926
0.0497848
4.8765
7.17363
5.37578
0.0249687
10.0702
8.45275
13.5099
3.91619
3.11705
0.0754231
0.156135
0.0256515
0.0256202
3.52202
19.572
3.46155
0.164269
7.45783
2.55752
0.0387426
0.0388039
4.29813
0.0312898
0.0382743
2.54611
2.66456
7.08891
0.404433
0.0295341
0.183072
1.92812
9.00813
0.0254372
5.58267
0.0254371
3.908
0.0401234
0.0676949
0.0489238
7.8159
5.31452
0.13463
0.0256311
0.0785196
0.0371889
0.0322728
0.0749679
0.0254016
2.39907
0.0274071
0.520621
0.0811678
6.23429
4.78201
0.0863806
0.765735
0.0254271
0.0253685
0.0325088
0.0288484
0.221501
4.0808
0.0250833
22.1774
0.0490602
4.47186
0.0252105
0.0250429
4.47547
0.692375
8.38597
0.0629381
0.184177
0.0854507
0.0256006
3.61462
3.00738
0.055107
2.53884
0.0386166
5.16311
0.0251576
0.0262035
6.05785
3.17588
3.1157
6.88687
8.11263
0.025113
0.0249667
0.0490919
8.26267
0.0795758
2.67478
0.024807
0.146114
22.5739
0.0256637
0.0250172
0.0254411
0.025133
0.0247892
6.54379
5.04936
6.09059
0.0254634
6.15971
5.98975
6.26494
0.0252146
7.32579
0.0270546
0.0255727
0.158297
0.0306597
0.0485213
20.7384
2.63867
0.0250972
0.078857
0.0288148
2.98447
3.33257
0.0283282
0.0266207
0.0257797
6.60435
0.0267928
0.0672555
0.238522
0.0289792
17.7788
0.0250288
0.174793
0.0253555
2.66842
0.0254355
3.07725
0.142911
4.15745
0.0252555
9.48015
5.3755
0.0256049
5.30455
0.0293027
2.69538
0.0251773
0.211541
3.63346
5.43399
0.0254171
0.0255551
3.6603
3.62928
0.558418
0.455231
0.0251451
17.8549
3.63091
0.0359698
2.41691
2.69188
4.48478
0.0283488
0.0279398
0.0256534
0.139548
0.0261398
0.232377
0.0737489
1.09972
0.0508778
5.0199
13.2432
5.5197
0.101461
0.11938
0.0254301
0.118281
0.0312175
0.0290741
0.0255499
0.369415
0.0250529
3.08412
2.60312
2.6842
0.0275865
13.8912
5.35218
0.0253657
0.0370743
0.0442569
0.0492608
0.0904471
0.028238
0.0595685
0.0287843
5.67961
0.0365085
6.43199
3.17728
0.0588203
0.0277701
0.0251976
4.11193
0.0291479
0.0444654
4.96985
0.0254176
2.91806
5.4738
0.0289366
1.21207
2.4062
0.0254218
0.0288749
2.8123
5.45182
0.0317103
0.0251951
0.10521
0.0771354
0.215909
7.07528
0.0254152
0.0271456
0.0251957
0.212831
5.22553
0.22904
0.367502
0.030914
0.0660217
2.88237
0.0877373
0.0903253
3.66591
0.0281055
0.0262794
0.0887548
8.36747
30.3005
0.727844
0.21433
0.211094
0.0352132
5.24965
2.67219
0.190768
3.85379
3.37856
0.0273456
0.970917
0.0601576
0.0338184
5.31027
3.54962
0.0251074
0.200861
4.29763
0.117818
3.96978
0.0287501
19.5973
3.60614
3.88545
7.63801
3.74945
4.53273
0.193934
2.98124
6.20689
0.024815
0.0254439
3.42752
2.68504
0.0253259
0.221997
0.0478643
0.0699206
9.65963
0.119749
0.0861515
8.24743
7.12565
5.545
0.0649871
0.0285882
3.54696
3.38797
0.0254446
2.80727
2.52261
0.0854117
3.05974
0.672885
0.320271
2.93182
0.0483989
0.0348752
0.0304457
0.0254394
0.0822232
3.65655
0.182557
0.195102
5.6304
0.0254129
0.0256393
0.0251861
2.81947
5.33488
2.68095
3.13579
0.205103
1.40922
0.0325523
2.9187
0.0264699
0.0251136
0.0256521
3.6179
0.0252917
2.56011
0.0248595
0.0264775
0.0251072
4.31905
1.26583
0.0256609
0.0308958
0.101213
0.0341912
0.0315413
4.14692
0.028672
0.19249
0.0265707
6.30393
0.0264487
0.0252684
6.64961
0.0262991
0.0457241
8.38483
0.0251909
0.0256513
5.36774
0.645946
2.04619
0.0269687
0.0370167
0.0255916
19.6534
4.79276
0.0256524
2.67045
4.70271
2.54803
2.6093
0.0255282
3.70159
3.65101
2.87303
5.21178
0.032775
3.4516
0.068203
2.87877
0.232392
2.75585
18.4263
2.69431
2.56308
2.67255
0.0728596
0.0263617
0.0289575
0.0440433
0.0253987
0.262641
0.0930083
8.51669
0.106543
0.0782444
0.978093
3.1372
3.53428
2.36714
0.209522
0.386945
0.0256562
0.028572
0.0248102
0.0375938
3.20094
0.0255322
0.0324006
0.0959785
1.05092
6.24783
3.59927
0.220336
5.17865
0.0253588
0.0260824
0.0256485
0.0379297
4.69221
0.0455462
0.646976
0.0252611
0.0397525
3.19061
0.0250914
0.0539637
3.43483
5.81078
5.37387
0.0254212
0.0284103
0.0275954
5.81515
7.83525
0.0373273
0.0248529
0.0252305
0.0256364
3.40347
0.132902
3.15747
2.72858
0.0267901
0.308709
0.0296233
0.0272312
4.36453
0.0253976
0.0311321
2.5847
0.0251155
8.05327
4.80749
0.0463191
0.895142
4.85421
3.69386
0.0402875
3.5085
0.140441
0.0288453
0.0255579
0.0438112
0.085252
4.33691
0.0427015
0.0256356
31.7512
0.0254453
0.0287044
3.02929
0.102713
0.099406
6.33084
0.0326565
0.0254183
0.0251343
0.0354345
0.0256347
3.54249
0.0264395
0.0765845
3.01548
0.0249589
0.0279052
3.15843
0.0357339
0.146189
4.69414
0.0257918
0.2119
0.0255659
2.94335
0.373698
4.75834
0.198878
3.12812
2.68157
0.067923
6.06354
0.0248508
0.0868664
0.156127
5.60015
0.0265533
6.75694
0.0254257
8.36002
0.0300793
0.500683
0.0250872
0.0255191
0.190115
0.19144
0.025456
0.0340396
0.0254603
0.39599
3.40745
0.0369619
5.30778
14.002
2.57603
0.025576
3.64933
0.0263299
0.0250299
0.161292
0.0324037
0.0285289
2.90073
0.0306303
0.0356598
0.0356761
0.0254731
0.0249527
2.87685
8.15738
0.025055
0.0250372
0.143179
0.0251408
6.63895
0.0528024
3.41262
5.10887
0.0253148
0.0495497
2.67795
0.0601784
0.0256631
0.0692099
0.0404786
0.0254082
16.0311
2.90922
0.0388202
6.68654
2.35933
0.0382169
0.025497
4.18673
0.0254907
0.0282762
0.118878
0.0255955
0.0256069
0.165533
2.01067
11.9957
2.69495
3.44288
0.0255689
2.62754
24.228
0.0429377
4.56059
1.71528
0.221081
0.223902
0.0589942
2.74144
0.0423798
7.05853
0.0692341
0.0367672
0.140555
0.185308
2.23489
0.025917
0.0798438
3.19376
0.0322952
0.0308529
2.38144
4.36451
4.50595
0.0255554
2.61444
2.65943
2.83139
5.38805
0.0255712
0.031172
0.305547
5.6452
4.52517
0.034442
2.70928
0.0251802
0.697324
0.0339322
0.0285133
6.1259
0.0250945
2.72176
0.0328267
0.0820916
0.0314361
0.0344528
11.2423
0.0255667
0.0253282
5.10209
6.85205
0.032586
0.0251638
0.0311808
5.61561
0.0786664
17.3004
5.16234
0.0326414
0.0256254
4.47031
0.149307
2.73529
0.0319497
0.0372534
0.0786565
0.0254273
0.0250729
0.034154
3.27207
0.148876
0.117855
0.0250829
6.72738
3.3788
0.0255329
0.0253821
0.0337521
0.0254182
5.09526
0.590832
0.0253921
0.0253954
0.0255773
0.0255134
0.0254366
0.024868
5.59019
0.0527358
0.0381376
5.22304
0.0255572
0.0267375
0.0269647
8.89457
2.56796
2.86715
0.0320275
0.0255854
4.22736
0.025499
2.39368
0.0296582
0.0826132
3.47862
3.01694
0.0254543
0.024871
5.33826
2.92481
0.0313918
0.0359319
0.0248594
0.215138
0.0342598
0.0316588
0.0271308
0.024839
3.17673
0.0339251
0.0250342
3.37784
4.16297
20.5356
6.81789
0.0850331
0.0249275
7.077
0.164112
3.29488
0.0340683
0.0359069
0.0804782
0.0345963
4.10831
1.07309
0.0252442
0.0672984
0.0784984
0.0254698
4.07775
0.0264232
0.0276026
3.83086
3.73858
0.0254693
2.41346
8.25034
0.0254275
0.0259899
0.176872
2.94711
0.155925
0.0250554
0.0501627
0.0415629
3.13671
2.60522
5.23189
0.0781946
0.0255665
2.83332
0.0271369
0.0524833
0.0265736
3.0853
1.53192
0.026477
0.0253639
0.032568
6.63903
16.252
0.0254429
0.0254374
2.82674
0.0252765
0.589789
0.656039
0.0250545
0.0252983
3.36581
0.0303657
3.8694
29.5507
0.0255949
0.0280913
0.119905
0.0277403
0.0688652
0.117602
0.04257
0.0253956
0.0250586
2.56963
0.0333729
0.0254447
2.58656
3.06837
0.0254545
0.862271
0.0252512
0.0281363
0.0255158
4.20874
2.79157
0.025537
0.0258813
4.07942
0.0286208
0.0911572
0.0262606
0.0544695
0.0254833
0.0413288
0.025439
1.58339
2.65727
0.0263531
0.0376648
2.5691
0.0277903
2.72022
4.71919
0.0355369
0.025505
4.33479
0.447249
0.0253908
0.211157
0.025511
0.649383
4.54054
0.0256356
3.77047
0.0253868
4.37212
0.16033
3.33931
0.0383755
5.73549
0.0249353
3.63037
0.0254409
0.0288539
4.3805
2.38834
0.0500863
5.4424
3.9652
0.520896
6.08266
4.15316
0.0328965
3.87982
7.18321
0.0274478
0.374417
0.211002
0.0251187
0.0477041
0.0476159
0.0432601
4.65702
0.43498
0.0255581
0.658423
0.0254177
0.450813
0.0254306
2.59816
0.0251556
6.02482
2.70984
0.19714
0.171279
2.97354
0.041917
0.0250403
0.0717077
15.6526
0.137341
0.0252075
0.0514701
0.0259807
0.0405925
0.100671
3.57558
4.47032
0.0256624
3.34562
0.0431846
0.182182
3.59577
3.70641
0.42771
0.0252154
0.086514
5.04509
0.0277485
19.1127
0.0252499
0.0254961
0.0253937
0.0254232
0.0291134
0.460685
0.0339482
4.84345
0.0312787
0.0254467
0.0254561
2.74932
2.66195
0.0262851
0.0853281
5.80685
9.16527
3.90639
0.0362993
0.0854483
6.9673
0.0252985
0.027207
1.05038
0.0251318
5.74506
0.0251269
0.0253628
5.46092
0.041551
0.231454
2.50655
0.0329883
0.0249524
0.0256276
0.0358349
2.5923
12.6004
3.55222
0.0248211
0.025398
0.0268234
0.0255994
0.0273815
0.0254848
0.0250378
0.0254504
0.0702128
0.0250932
0.0255828
3.48839
2.69696
0.0277169
2.67388
0.0257189
0.0280535
4.27561
0.517489
0.0294958
2.60535
5.75097
0.414017
0.0250784
2.3863
7.35542
0.0556852
2.95696
2.60528
2.67848
2.03669
0.0382273
0.0345925
2.52869
0.184369
0.0265068
0.0250546
2.87902
0.0779499
3.18124
0.0256032
0.0255676
2.88676
0.0629362
4.06438
0.0440672
0.0254356
0.220824
5.07716
0.0279344
0.978324
3.24302
0.434495
14.5415
0.0260268
0.0340342
0.0771019
4.18507
0.152448
3.01236
0.0255578
0.139446
2.415
10.8286
0.0252463
0.0254183
0.253018
0.0715253
0.0256334
6.71293
0.027488
0.0253723
0.0246593
2.75261
7.90599
2.89084
0.025665
0.0256282
0.241642
0.431548
0.112901
0.613069
0.0666784
0.0350277
0.025172
2.70127
0.373923
3.66804
4.90036
0.0514833
0.57596
0.0340632
4.26576
0.0462474
3.32623
3.92566
0.0256901
0.0522143
0.0890643
3.03295
0.0266746
0.0255327
3.50239
0.0380825
3.83881
2.7639
5.13483
0.0328991
3.47607
3.22092
0.0402352
2.45835
3.03493
0.0260335
5.3797
6.05442
0.758657
4.2439
2.68488
0.02569
5.7844
0.0469873
9.14941
0.0872469
2.5843
0.24569
0.497399
0.0305755
0.0254182
0.02528
0.0256407
0.0256817
5.94503
0.203874
0.025057
0.025448
3.68204
0.0248954
14.6615
2.76894
14.6198
0.197091
0.0253922
4.04707
0.0256728
5.79706
0.025109
2.80218
6.59088
0.22931
2.50328
0.0272448
3.47455
2.82977
6.83366
2.72149
16.3139
2.61564
2.78274
5.5229
0.0335178
3.8203
0.0258851
0.0256373
0.120199
3.12618
2.65156
0.0254985
0.0259722
0.0250189
0.0787727
0.174693
0.0347439
0.025282
0.753811
0.0375355
0.0251229
0.025168
0.0655207
1.37725
3.62407
0.0255166
0.447514
0.0251192
0.0315814
4.53639
0.0253567
2.63574
4.09014
0.0353963
0.0447067
0.0458325
0.0254851
0.0256056
0.400506
0.220315
0.0483948
0.0247257
0.0377537
8.20712
6.84839
16.1129
0.0262854
0.0292865
0.2218
0.0529859
2.40471
0.0256261
0.0250697
0.0566804
3.60453
0.0344599
2.79529
0.120607
0.0338589
0.0260508
0.0251795
0.1297
0.0259126
0.0266423
0.433033
0.0253328
2.74034
0.0254195
0.0254993
0.0292369
0.0256271
3.62888
8.25149
7.24921
7.38503
5.58908
0.0795937
0.0659997
0.0281748
5.47273
0.496418
0.0252586
5.47953
4.00801
2.32795
4.05459
3.57724
2.57388
0.0256385
0.506516
6.20883
0.223898
0.0280008
3.45212
0.0495617
0.028887
0.0506268
0.030296
2.80015
2.56721
15.445
3.61056
0.0859803
2.42713
5.93348
0.159437
0.0913247
0.0256106
5.88144
0.0256218
2.66899
5.36291
4.73903
3.44185
0.0661645
0.290722
0.0250728
4.25445
0.0490901
0.0285574
2.9648
0.0250756
0.153239
0.0255828
5.52259
6.15239
0.025272
0.0330245
5.64969
0.0314291
0.80069
0.0352003
0.124186
0.0250692
0.0490878
0.0254231
0.0323332
3.33386
2.73581
23.3339
3.59581
5.46045
0.0263418
2.55236
0.0254824
0.031372
0.0837957
2.69574
6.78633
2.48201
0.0252325
12.3543
0.0664648
0.0252429
0.0254138
4.54014
8.34316
1.61586
0.0481251
7.08969
6.16734
0.0254166
3.02511
3.64602
0.0319494
3.93599
0.859468
0.181773
2.40424
3.45295
0.0254203
0.0256249
0.0322391
0.0252679
4.71167
0.0256548
7.01531
0.025152
3.42723
0.0425169
2.46636
3.74592
0.0477613
2.70641
0.025668
1.93439
5.64902
3.11176
0.030768
0.0254196
3.9632
3.95812
3.41705
0.0742605
0.0255349
0.0312003
8.85981
3.17361
0.0266418
0.050928
5.91522
0.0254475
5.86279
0.0681117
3.96196
0.160044
0.419923
2.65098
0.0348834
0.0917588
4.18916
0.025245
3.47948
0.0495563
2.7183
0.0293441
3.08767
0.0273573
0.077659
0.0288643
4.17099
0.0297555
7.60789
0.0330274
3.99702
0.0318076
0.050613
0.120402
6.6082
7.25357
2.09544
0.046757
2.81592
0.0382824
0.0338173
0.0250773
2.45802
0.0256695
3.29786
0.0340566
0.0313544
2.62464
0.0254164
0.0247871
0.0256592
3.35311
0.0256933
3.45813
0.0329027
15.6089
2.75262
0.145068
0.025454
3.91329
0.0325593
0.028506
0.0254471
3.2131
0.0254931
0.32255
0.0253345
5.61175
2.77176
0.0292623
3.55611
3.47308
3.08086
0.0307379
5.85804
0.0614646
7.86991
0.0299952
0.0276019
0.219508
2.89097
0.0254057
7.47391
0.322086
0.0282716
0.696077
0.026671
0.0871987
0.0281811
0.0250152
0.0301786
0.0271366
0.127793
0.0254715
0.0414297
0.127718
7.70786
0.046395
3.21944
0.0739829
0.0254655
0.0819657
1.06052
0.0250154
0.0782782
0.025465
3.4618
0.0322126
1.57768
0.0255036
0.498969
0.0254192
0.038351
6.05697
4.53913
6.74347
3.07512
0.180067
0.051867
0.025864
0.0463194
3.84865
17.4491
4.13466
4.84302
0.0253487
2.74913
0.0254225
0.0285788
0.0283694
0.104484
0.0257232
3.54002
1.89147
0.107455
5.2649
0.0760219
3.21638
0.110537
0.0286507
0.0256289
0.0256413
0.0293301
0.0301872
0.0742869
0.059986
0.0255179
0.025656
3.20023
0.109051
2.75318
4.84291
6.67249
9.49045
0.0405706
0.0444626
5.25212
0.0313823
0.0254533
0.0306208
0.102572
0.0262982
3.27415
0.0700628
7.22714
0.0254851
0.0712625
3.54536
0.0319661
0.131541
0.0255042
0.0276386
4.00538
2.99149
2.63985
0.0333431
0.0251509
3.62357
0.0254461
2.64385
2.78399
0.0346368
4.5534
0.0312546
0.0866694
0.0282846
0.0257294
0.029395
10.043
7.28341
0.0254286
0.102656
0.988339
0.025111
0.0249826
0.0490553
4.00628
2.59406
3.61475
0.0280959
0.0258459
0.0626983
0.760063
2.84325
0.0467159
0.0255633
0.0267148
0.172253
0.0344812
2.82303
1.83106
0.0256376
5.81343
0.0256497
7.81814
0.0582806
0.0433551
3.11672
0.0356983
4.44094
0.0461313
0.288688
0.504811
0.0318253
0.0252297
0.0257207
0.0481245
3.45504
0.0476467
4.5264
0.0271078
0.0256805
0.0318835
2.78804
0.0259849
0.0778967
3.81949
2.67784
3.70614
2.54089
0.0258678
0.0518794
0.0817612
0.0248336
0.0255381
0.0561421
0.0261663
0.107589
0.0694998
0.025406
0.0942505
6.60389
0.0256794
2.65977
0.025355
0.0254323
0.0270195
0.0889164
4.81949
5.61129
0.0378821
0.0288197
0.0322625
0.025627
3.71299
0.0324946
6.53015
4.75916
5.02791
0.0772032
0.0795172
0.025705
7.77129
0.131198
4.7155
3.50447
0.175791
0.0267799
3.08949
9.90654
0.351591
0.435407
6.32722
3.5396
2.63026
0.050374
2.6553
0.0331554
3.10684
2.70852
0.0794472
0.0254539
0.249937
3.60611
0.0271629
0.0256863
11.1483
0.0254649
0.350683
2.41144
0.110253
0.533446
0.0814074
0.0254537
0.0626142
3.99884
0.0254934
3.43255
0.545757
2.13737
0.0273973
6.21539
0.0253499
5.2827
0.0258783
2.57669
0.0258698
0.0392522
0.0252097
3.1463
0.390578
3.00172
3.64287
0.138152
0.025566
0.553504
4.82081
8.3719
5.04941
11.8816
0.0255661
0.0251604
0.34839
0.0254178
5.94489
2.55434
0.16325
2.91579
3.07094
0.0302218
4.2198
0.027851
0.120113
8.71175
0.0279107
0.0349016
0.120479
0.0269615
0.0251771
0.0257107
0.0497039
0.0250809
0.0260913
0.919922
0.0254411
0.0253709
0.0340819
0.0254008
0.0384366
0.0256538
2.561
2.65394
3.14754
0.0250015
0.50146
0.856766
0.0254408
3.43379
0.0373248
0.0321106
0.0402521
0.0359139
2.73995
12.1861
0.040965
0.0259667
6.01167
0.116789
2.71257
0.0273958
2.51143
3.68282
3.10747
6.08288
0.0254269
3.64274
7.69039
0.0258496
0.044351
0.0261509
0.0293865
2.34759
7.97227
35.5954
0.0251225
21.8884
0.0484662
0.552499
0.084392
0.0250403
0.0254591
0.0391948
0.0281042
3.93558
0.0385197
4.36615
4.10493
0.025508
0.0506218
0.0256525
6.37431
0.0470599
4.26855
0.473221
0.02514
0.0253289
0.0509735
2.67674
4.22409
0.0545077
8.2694
0.0254659
1.10386
0.0678236
0.0250545
0.0247746
0.0399441
0.0255178
2.69654
0.0969589
0.0248679
0.0263438
3.10381
0.0250038
6.77241
0.0461948
0.0519158
2.36376
0.0253449
0.044825
0.0251337
2.47286
0.0257272
0.030863
0.0280393
0.0484932
0.0246902
5.37559
2.88468
0.0326786
0.0256625
6.72567
2.17878
0.234377
2.55044
0.0494001
0.0255672
0.0253709
0.142197
0.138839
1.10509
0.14208
0.0402879
0.0438693
3.31387
0.0255732
2.42386
0.0271042
0.0796787
0.0254175
0.0252902
0.0271919
0.0262223
0.1039
0.0312194
1.20215
0.223088
3.13336
2.97652
0.0266728
0.0286698
0.0252801
6.64464
0.0256233
0.0720704
0.0251846
0.0406695
0.0580767
3.50712
2.58362
2.59947
3.11961
0.026511
0.0713405
0.923985
4.76223
0.0902226
0.0254707
0.0358725
2.51255
0.0263283
0.0325318
0.0252767
0.067259
0.0300041
4.41851
0.027328
0.025473
2.77814
3.06626
0.166118
0.025404
0.0254392
0.062101
2.81699
0.0501263
0.368684
0.0291258
0.0311059
0.689073
0.0485719
0.030101
3.59443
7.06308
0.138437
3.15702
3.88872
1.85507
2.54211
0.0902273
2.7985
14.5005
0.043843
0.325277
0.0253472
0.0292331
6.89456
0.0864857
2.5618
0.0256252
5.71967
0.266441
2.65343
0.0962313
0.0803462
0.0259572
4.19159
6.82018
0.0491484
5.43545
0.0341447
0.026039
5.84077
0.066483
2.90158
0.0615129
2.28643
2.65173
6.81528
0.0489282
3.30993
0.0251408
0.0260257
0.109828
0.0269478
0.0258529
0.0362229
0.0419678
0.15531
0.20639
11.0516
6.42088
0.0659985
0.0254184
4.65148
0.0352964
0.0254233
2.74998
1.52633
0.0253412
0.025106
0.0311613
0.157313
0.0482718
5.95503
0.92218
0.267059
0.0276933
3.55516
0.0261523
0.0397657
2.97657
0.0253838
0.375107
0.0803219
0.0253585
0.476258
2.6757
0.0274773
0.024902
0.03158
0.0253915
0.0273139
5.25825
0.0252422
0.136758
3.60548
0.0253432
2.64487
0.0262046
3.37023
0.488123
4.17029
6.07074
3.92111
0.0549919
3.46146
0.025238
6.12762
0.0259644
0.0779165
0.764977
0.039415
3.78989
0.0332329
1.1646
7.06644
0.0256756
0.265484
3.68486
0.0255575
3.03449
0.0284317
2.74019
1.53682
0.499836
0.0506154
3.41155
2.39195
0.070609
0.124261
0.0259215
0.107211
14.2663
4.9678
0.0812348
0.0254719
0.0619437
0.907417
0.0260752
4.35714
0.0252807
0.0438466
0.0923721
2.68782
0.0252908
0.0254853
0.0346726
8.01409
0.0248332
0.0256521
0.752261
0.0253466
0.0803902
0.104882
0.0471979
2.6767
0.222184
3.41157
2.83885
0.0789654
0.180333
3.76419
0.0275681
0.0272971
0.0668005
0.0253419
7.29534
1.56094
0.0264017
0.0257821
3.07358
2.74942
3.843
0.250533
0.0252352
2.90352
2.5562
0.0258879
2.76546
3.9713
3.57642
18.0807
0.0253142
0.0282507
0.0254186
0.0301575
0.0273772
0.0256248
0.0932822
0.0527651
2.66493
0.0265485
0.0524326
0.0249917
0.0256444
4.38947
0.0312307
8.94632
4.17814
0.0325145
0.0251635
0.108862
2.01968
3.39042
0.0353672
3.68512
0.10336
3.53694
0.0279761
0.0471916
2.97707
0.0253569
3.61587
0.209681
3.41478
2.65023
3.43842
0.0256495
2.64951
0.0655554
3.41035
8.24251
2.80736
8.79377
0.415985
0.146174
2.70679
0.0256827
3.66924
5.98956
2.75547
3.5085
3.73818
0.0278133
3.03404
0.0406871
0.0426053
0.0393078
2.59465
0.0254982
1.98353
0.0254139
0.0585075
1.84504
0.0254203
2.69476
3.64296
0.0250983
0.0250281
0.0251633
2.56511
6.28823
0.0294067
0.117402
0.0287389
3.3197
2.66909
2.49272
3.31524
0.0433243
4.02308
2.67536
7.57174
0.0354149
4.60961
4.92554
3.49632
0.0248799
2.47328
0.0785168
3.45098
3.0614
0.0259128
0.0255125
0.0908545
0.0251596
3.44118
0.0252654
2.65828
0.0264682
3.80192
3.77857
3.90242
0.283561
5.05547
0.0286805
0.0259157
0.0622925
3.89893
0.0254297
0.0753838
3.93191
3.40922
7.22254
3.60996
0.0292128
0.0736882
3.4943
2.61753
20.3466
3.37691
2.90992
2.69394
2.83281
4.21388
0.0256941
0.0273498
0.0252896
3.15436
3.21702
0.0252079
0.0324234
3.62463
2.87973
0.186072
6.63911
3.46836
0.160834
0.665569
1.01159
0.0257335
3.97244
2.56936
2.99621
0.0261913
3.7701
0.0270424
3.56227
2.53578
1.50017
2.97
3.16149
3.59007
0.235321
3.3519
3.08189
5.37616
0.0259147
2.74612
2.66838
0.0299979
0.0918942
0.0260824
0.0360822
0.0266498
4.06756
0.129691
0.0312692
0.0732545
0.0254524
0.655328
5.72491
3.40726
4.16676
0.158495
0.0276794
0.0716168
2.68847
0.0347023
0.0253099
3.14291
2.47439
0.220853
2.88246
0.027975
3.47166
0.0309599
0.0681107
0.0292535
0.031317
7.18067
2.73121
0.101031
2.55796
0.135924
0.0282213
10.4535
3.66641
4.34844
4.02811
0.0252481
0.0255442
0.0616567
3.65483
0.0913672
0.0334805
0.139992
0.0256313
2.96517
0.025293
0.0255452
0.0248757
0.027421
3.85819
0.0795552
0.0254194
0.0261566
0.044612
0.0992601
0.124195
3.04814
0.0355766
6.60302
0.025519
6.57832
0.0484372
3.84238
5.14639
0.0256078
0.0248243
0.0252961
0.0254261
5.84371
0.0279426
0.0268403
6.22326
0.907627
0.0256912
0.0265734
0.0254005
0.323649
0.596776
2.97996
2.29999
2.65455
0.0606485
5.69713
2.5121
0.0254226
0.0251526
2.80098
0.167278
3.85527
0.0254946
3.42792
9.57335
0.176448
2.83702
5.90775
3.30956
0.0258262
3.42108
0.213845
0.0394377
0.028918
0.025274
0.360397
0.154512
1.04727
3.17137
1.61006
0.0288812
2.7566
0.0293993
2.51668
0.0268549
3.02468
0.835956
14.4664
2.94942
0.046098
0.0337033
0.0377765
3.40644
0.0255958
4.72554
3.14783
3.47175
7.42049
0.0302581
0.069429
0.133828
5.83297
0.0307274
0.577203
0.0481371
0.0300241
0.14682
3.23154
0.0389621
5.82517
3.12331
0.64286
0.0252588
0.183674
0.0268384
3.45308
0.026079
0.0247933
0.0331266
2.92309
0.0376605
3.70181
3.90879
0.18186
0.0526399
1.51469
2.66685
0.025188
0.134712
3.47647
0.024904
0.0254042
3.3293
4.14148
0.0264028
0.0413803
0.118721
3.19758
2.71371
0.0430092
2.56491
4.97068
0.025604
2.14443
0.028931
6.94385
0.163664
0.732338
0.0423481
1.81562
2.37861
0.025471
0.0257943
0.0287711
0.1006
0.0360609
0.0296042
3.94909
0.250317
2.75648
0.0389624
2.71778
3.32181
0.434043
3.72697
3.2727
0.0268409
3.24092
4.24173
0.276333
0.141602
3.25668
5.02242
2.88239
3.26188
0.0587015
0.0350166
0.214235
3.72006
4.04781
3.30884
7.50686
5.6381
0.0256698
3.54189
0.0660584
5.47266
0.0310864
0.0252074
0.168354
1.30123
5.87108
0.367695
4.56484
0.124556
1.08691
0.0476958
0.0304613
0.0259885
0.0256952
0.0589979
0.170751
0.843421
2.86859
3.3576
3.18833
0.0253957
0.0339407
0.032112
0.0373256
0.0258403
4.31893
0.0658354
2.85624
20.0161
0.0252329
3.64983
3.30825
3.08672
0.025181
0.104759
3.64043
5.68228
0.0491774
0.0358859
0.246365
0.048588
0.114617
0.138388
0.0360681
0.0724903
3.38613
3.62329
3.43025
0.100711
0.0256373
0.0253683
2.63246
3.76489
3.33574
0.0298629
3.49325
2.57735
2.84522
0.0258712
3.08524
3.25939
3.24633
0.437509
3.96208
3.385
0.0250832
3.16728
3.36273
0.0253157
2.8302
3.35207
3.21553
2.6121
3.15023
0.025301
0.383104
0.143543
0.31847
0.123717
0.155844
0.0304383
6.74052
0.110203
2.7087
0.14333
3.39281
3.99139
0.143281
4.73211
4.98933
3.50342
0.0252123
3.31208
5.10228
0.11647
3.41621
0.0284922
2.59794
3.67818
0.0559937
3.42634
0.129702
0.025333
0.0305856
4.06933
4.91557
2.74503
2.81298
0.158803
0.0446265
2.75129
0.0255173
0.0295837
8.09792
0.0346369
0.0645618
4.67065
4.73309
0.0260812
16.4193
2.79462
3.18127
2.77601
3.55935
0.027657
2.76878
4.50388
0.0618563
0.028885
0.208541
3.10465
0.0521849
3.44035
3.42105
0.0258688
5.10467
0.053716
0.0542878
0.027228
0.0397791
0.038471
0.0595811
0.0256889
0.025652
0.0312377
0.748179
2.66083
0.0548769
0.530058
0.0589397
0.0578091
0.0844247
12.7836
2.66614
0.0256978
2.24917
0.398574
0.119939
0.0523427
0.656207
2.66395
0.0264775
0.0254884
0.120388
3.82363
6.00858
1.70293
3.58939
0.0761968
4.40058
0.0254531
2.94163
0.0440073
0.0276385
0.122135
11.3071
4.13178
8.03099
0.404667
0.040589
0.0265459
0.0247409
0.0410428
0.025579
0.17697
1.79146
0.0344404
3.01769
6.51995
7.85926
0.0338094
0.0618025
2.87021
0.048419
0.0550815
0.0247431
3.37815
0.0594382
0.420315
0.0423016
2.98493
2.56032
2.55918
5.40216
0.0432016
0.0565558
0.043794
0.0255703
3.86055
1.66564
0.0887776
0.0301704
0.0300205
0.10545
2.73655
0.0253252
0.423773
2.65791
0.0268052
0.168925
0.0534916
0.0251371
0.151306
5.04214
0.162181
0.0262254
0.0991963
0.0725451
3.04345
0.0390014
3.24034
0.0813955
1.30776
0.0746028
2.90157
2.96421
0.392786
0.120097
0.0357571
0.0272462
0.0816493
2.24151
0.105045
6.36711
0.0461327
0.445535
0.0438321
0.185206
0.333235
0.132453
0.0260447
3.97848
0.0250692
0.0739505
0.031753
0.869769
0.025169
0.0476215
0.025467
0.0314966
2.75497
0.0264104
0.0254695
0.612737
0.0254116
0.157863
0.0259132
0.0253739
3.67206
4.41348
0.0256655
0.059072
0.175351
0.062576
0.120133
0.0438045
0.0603789
4.66903
0.050593
16.4355
5.50061
0.0257722
0.19383
0.0251695
0.0254896
0.0484922
0.124952
3.22334
0.457775
0.116222
0.0912168
3.24418
0.0321859
2.7481
6.86988
0.0289865
0.0399038
9.07587
2.61736
0.0256913
0.877464
0.0257175
0.0286864
9.67539
0.025259
0.0906253
3.32393
3.33371
2.8633
0.117811
11.7098
0.0636781
5.2919
0.495769
0.0410832
0.513089
8.31193
0.410583
3.92628
6.20106
0.0261305
2.76682
0.024843
0.180336
6.94309
0.0254065
3.97788
0.025813
0.0253631
0.060594
0.186713
0.0248316
6.71741
0.0874313
0.0256372
0.0248511
0.0279424
0.0308718
3.73474
3.53635
10.9946
0.134806
6.0143
3.44441
0.0264965
0.105569
4.06748
0.462222
3.73653
3.41261
0.0249423
2.60924
2.79512
3.61466
1.76629
0.0366805
0.0253082
0.0347836
0.398416
0.0249858
0.0250645
4.57379
2.45675
3.6602
0.170743
0.0267013
3.51728
3.55029
0.0259839
7.27456
2.68829
0.0353761
0.0448437
0.0558574
3.54036
2.72297
1.85613
0.0695179
0.0329179
1.33936
0.0328879
0.121394
0.0291852
0.0938778
0.0352319
0.0254275
7.36794
3.05048
0.0279415
0.159306
0.0593191
0.025295
5.34223
0.657761
3.86095
2.90906
0.0849603
3.32512
0.144254
4.78484
5.67382
0.264526
1.24371
2.59922
0.0269732
0.0448864
0.0255079
0.0253328
3.37343
6.18158
0.0998281
0.0257621
0.0683247
7.95229
0.0252427
0.0681855
0.026398
0.0631999
7.69718
0.0272964
2.66656
0.0830933
6.59911
0.0511004
6.44536
2.71887
0.055599
0.0271693
0.102164
0.199248
0.372698
3.62988
0.0607421
0.404141
0.31204
0.0578965
0.0306701
3.10409
0.122316
3.62189
0.0460426
0.0725231
0.0824911
0.0291425
11.9208
3.34107
0.212815
0.163684
3.02077
0.0254397
0.105227
0.0252629
0.0293865
0.0282043
0.024709
0.0272547
3.47538
0.184157
0.459926
0.0262983
0.0261823
0.0488765
2.9202
0.0718454
0.0453348
0.0255357
4.03868
0.0254999
0.331473
0.534682
0.0252249
0.0266477
0.0275556
0.0858774
2.64638
0.0255575
4.56282
0.0275845
0.238991
0.162303
0.026116
3.49885
0.0270728
0.0250885
7.20824
3.33487
0.0324973
0.234395
0.0265863
3.20598
0.0251145
0.10185
24.305
0.414506
0.107837
0.487449
0.0254584
2.52892
0.108526
3.45736
0.0250258
0.087659
0.0803773
0.0254811
0.0295002
0.0248389
0.0321475
0.0271263
0.0501419
0.0252927
0.168195
2.74072
4.0267
0.0249963
0.0873489
0.160326
0.0615672
0.0421826
0.0267143
0.0291955
0.0254459
0.025146
0.0624936
0.0290508
0.0925433
0.0768401
0.0254887
0.464561
0.0278392
0.0275595
2.83285
2.79947
0.114553
0.0252041
9.22023
21.9244
3.48153
0.045791
0.0313672
0.184323
5.63597
0.0250522
6.46025
0.0250319
0.0256269
0.0751955
0.0292511
0.0427469
0.0256383
3.50799
0.0429566
0.0277135
3.17901
0.260327
13.1575
2.37192
0.166602
0.107237
0.0254072
0.0297659
0.0255709
0.0253287
2.69563
0.0752014
0.296059
0.0254704
3.55967
0.0300516
0.108269
2.1442
3.00082
1.12229
0.0737892
0.0255321
2.37357
0.0255616
0.0267983
0.0254109
0.12717
3.09827
0.0272839
2.87254
0.0655146
0.0256676
0.188957
0.110113
6.91283
0.0252401
0.358258
4.70523
4.23523
3.38358
0.0272945
0.0254069
6.97941
3.05832
0.0339721
0.0254317
0.0256247
0.155343
1.9063
0.280544
0.0258102
5.05853
0.0277374
0.0369484
3.73472
0.0390617
0.0256112
0.0286005
0.0346373
0.123413
0.0267608
2.83559
2.82804
3.59179
0.0252907
0.0379975
0.0401467
0.0257512
0.337912
2.70696
6.72452
0.0629179
0.0255019
0.136525
0.0343094
2.88772
0.0279835
0.0579084
4.7869
0.0254097
2.60111
3.15904
0.0254209
0.0251959
0.025479
0.517874
7.70908
0.0270388
0.0250416
0.0256067
0.0259863
0.0249675
0.683103
5.71649
0.0254382
0.337993
0.0254531
0.0269664
0.0254652
0.0291902
0.036485
0.059136
2.5629
0.0254648
0.0432972
0.0304737
3.72275
3.64139
5.84011
4.13156
5.02084
4.85513
2.8239
2.80413
9.50372
0.118181
0.062767
4.55755
2.58184
0.0248943
1.43027
3.58179
0.0312732
0.0295594
5.059
4.87897
3.45863
0.025721
0.0815422
3.99849
0.029962
3.41212
0.0254973
2.54564
3.18561
0.11103
0.0258593
0.0258856
2.67462
0.0254882
7.80895
0.0812171
0.0255342
0.025577
0.156043
0.0268205
4.38263
0.0454455
0.0254435
0.0259308
3.70309
0.105942
2.70928
3.12252
3.221
0.0592742
0.045404
0.0250322
0.0361372
0.0398345
0.0314001
0.040659
2.44338
0.0257526
2.65439
7.57524
9.14378
0.0255428
0.0878909
15.5532
0.0247564
5.43443
0.78402
2.54261
2.67713
11.5046
0.153985
0.0689265
0.260821
2.58767
0.025668
0.0256844
3.79154
3.486
0.0394455
0.034438
0.0577495
0.0778654
0.0402466
0.0850715
6.74267
0.135063
0.142748
0.0271319
0.0256767
0.0268998
2.56888
0.0833364
3.08252
9.14767
16.3705
0.209083
0.027405
0.0263799
0.0262166
0.086566