/*--------------------------------*- C++ -*----------------------------------*\
| =========                 |                                                 |
| \\      /  F ield         | OpenFOAM: The Open Source CFD Toolbox           |
|  \\    /   O peration     | Version:  v2012                                 |
|   \\  /    A nd           | Website:  www.openfoam.com                      |
|    \\/     M anipulation  |                                                 |
\*---------------------------------------------------------------------------*/
FoamFile
{
    version     2.0;
    format      ascii;
    class       volScalarField;
    location    "400";
    object      omega;
}
// * * * * * * * * * * * * * * * * * * * * * * * * * * * * * * * * * * * * * //

dimensions      [0 0 -1 0 0 0 0];


internalField   nonuniform List<scalar> 
15335
(
6.50147
0.232614
6.49649
0.0402176
3.05909
0.0254533
0.111657
0.403138
0.0359586
4.5351
4.86045
0.0268563
3.2272
11.6361
5.89944
6.46079
0.0288692
5.58232
0.0248766
8.84726
2.82189
2.86322
0.111346
0.0249456
0.210417
0.141184
15.4135
0.142807
7.18152
0.0277252
17.1846
4.65455
0.0256604
0.0255434
0.0253557
0.659533
0.586188
8.73797
5.09141
0.370145
0.181946
3.76569
0.0254174
0.0297855
6.5137
0.0251095
6.34688
3.48876
5.44256
0.0286413
0.0249546
4.99206
5.39659
0.0256761
0.0254298
0.101465
0.159968
5.06486
4.44718
4.8542
2.61848
3.39488
0.0461899
0.031269
0.0251679
0.0266501
5.28002
4.59526
0.0251083
0.0248246
0.0408289
0.0274051
0.211529
2.52988
5.09651
2.60438
0.189435
0.142803
10.4415
0.0256513
3.04875
13.9032
2.85067
0.21067
14.6215
0.0251449
0.0248637
0.0295939
0.0275334
0.238631
3.272
0.0799094
0.0267368
3.80982
3.49031
0.0273056
0.0251217
0.0405204
0.025063
0.0256664
0.02541
2.6156
1.06208
0.0644023
0.026195
0.0356083
0.0253807
0.0406987
3.21356
0.0547771
2.74496
0.102092
0.0254141
0.0269392
4.91442
0.0275554
0.0408099
3.80159
3.11401
2.57759
3.2208
3.5332
2.52317
3.55807
0.0254306
0.0254076
0.131664
0.0255655
0.0638601
0.0254885
2.65717
5.4222
0.0251314
0.06874
0.127866
0.0252192
2.89167
9.7341
0.0463375
0.392093
0.0790353
0.241646
0.0606825
0.0287538
2.64088
16.3141
2.55075
5.29851
0.187148
2.85057
0.0280418
4.89571
0.0254069
0.0271447
2.41484
0.0256608
3.43946
6.49892
3.5604
6.77731
0.0256482
0.0345042
3.5926
0.0497847
4.8765
7.17363
5.37578
0.0249687
10.07
8.45278
13.5084
3.91626
3.11705
0.075417
0.156133
0.0256515
0.0256202
3.52202
19.5732
3.46154
0.164265
7.46494
2.55752
0.0387426
0.0388039
4.29813
0.0312898
0.0382742
2.54611
2.66456
7.08891
0.405062
0.0295341
0.183071
1.92814
9.00813
0.0254372
5.58267
0.0254371
3.908
0.0401234
0.067702
0.0489507
7.8159
5.31452
0.13463
0.0256311
0.0783996
0.0371862
0.0322728
0.074968
0.0254016
2.39907
0.0274071
0.520656
0.0810966
6.23429
4.78201
0.0863763
0.766067
0.0254271
0.0253685
0.0325088
0.0288484
0.221503
4.08079
0.0250833
22.1774
0.0490602
4.47186
0.0252105
0.0250429
4.47547
0.692523
8.38597
0.0629872
0.184175
0.0854471
0.0256006
3.61463
3.00738
0.0551068
2.53884
0.0386166
5.16311
0.0251576
0.0262035
6.05785
3.17588
3.1157
6.88687
8.11262
0.025113
0.0249667
0.0490916
8.26269
0.0795637
2.67478
0.024807
0.146114
22.5739
0.0256637
0.0250172
0.0254411
0.025133
0.0247892
6.54379
5.04936
6.09059
0.0254634
6.15971
5.98975
6.26494
0.0252146
7.32579
0.0270546
0.0255727
0.1583
0.03066
0.0485212
20.7384
2.63867
0.0250972
0.0788422
0.0288148
2.98447
3.33257
0.0283282
0.0266207
0.0257797
6.60434
0.0267928
0.0672526
0.238536
0.0289792
17.7725
0.0250288
0.174792
0.0253556
2.66842
0.0254355
3.07725
0.142907
4.15745
0.0252555
9.48015
5.3755
0.0256049
5.30455
0.0293027
2.69538
0.0251773
0.211547
3.63346
5.43399
0.0254171
0.0255551
3.6603
3.62926
0.558541
0.455991
0.0251451
17.8548
3.63091
0.0359698
2.41691
2.69188
4.48478
0.0283488
0.0279398
0.0256534
0.139546
0.0261398
0.232375
0.0737585
1.09969
0.0509172
5.0199
13.2432
5.5197
0.101462
0.119381
0.0254301
0.118282
0.0312175
0.0290741
0.0255499
0.369397
0.0250529
3.08412
2.60312
2.6842
0.0275865
13.884
5.35218
0.0253657
0.0370705
0.0442568
0.0492608
0.0904402
0.028238
0.0595684
0.0287843
5.67961
0.0365073
6.432
3.17727
0.0588205
0.0277701
0.0251976
4.11193
0.0291479
0.0444652
4.96985
0.0254176
2.91806
5.4738
0.0289366
1.21086
2.4062
0.0254218
0.0288749
2.8123
5.45182
0.0317103
0.0251951
0.105211
0.0771339
0.215909
7.07528
0.0254152
0.0271456
0.0251957
0.21283
5.22553
0.229119
0.367534
0.030914
0.0660975
2.88237
0.087736
0.0903314
3.66591
0.0281055
0.0262794
0.0887463
8.36746
30.3005
0.72789
0.21434
0.211099
0.0352137
5.24965
2.67219
0.190768
3.85379
3.37856
0.0273456
0.971083
0.0601637
0.0338238
5.31027
3.54962
0.0251074
0.200862
4.29763
0.117818
3.96978
0.0287501
19.5973
3.60614
3.88545
7.63801
3.74945
4.53273
0.193868
2.98124
6.20689
0.024815
0.0254439
3.42752
2.68504
0.0253259
0.221996
0.0478643
0.0699082
9.65947
0.119749
0.0861483
8.24744
7.12565
5.545
0.0650266
0.0285882
3.54696
3.38797
0.0254446
2.80727
2.52261
0.0854179
3.05974
0.673905
0.320302
2.93182
0.0483989
0.0348752
0.0304457
0.0254394
0.0822159
3.65655
0.182557
0.195098
5.6304
0.0254129
0.0256393
0.0251861
2.81947
5.33488
2.68095
3.13579
0.20514
1.40907
0.0325523
2.9187
0.0264699
0.0251136
0.0256521
3.6179
0.0252917
2.5601
0.0248595
0.0264775
0.0251072
4.31905
1.32167
0.0256609
0.0308958
0.101215
0.0341924
0.0315416
4.14692
0.028672
0.192491
0.0265707
6.30393
0.0264487
0.0252684
6.64961
0.0262991
0.0457251
8.38483
0.0251909
0.0256513
5.36774
0.645919
2.04621
0.0269687
0.0370167
0.0255916
19.6536
4.79276
0.0256524
2.67045
4.70271
2.54803
2.6093
0.0255282
3.70159
3.65101
2.87303
5.21178
0.032775
3.4516
0.0682929
2.87873
0.232391
2.75585
18.4264
2.69431
2.56308
2.67255
0.0728589
0.0263617
0.0289575
0.0440433
0.0253987
0.262678
0.0930071
8.51671
0.106541
0.0782457
0.973286
3.1372
3.53428
2.36714
0.209516
0.386914
0.0256562
0.028572
0.0248102
0.0375938
3.20094
0.0255322
0.0324006
0.095978
1.05097
6.24783
3.59926
0.220333
5.17865
0.0253588
0.0260824
0.0256485
0.0379296
4.69221
0.0455463
0.647539
0.0252611
0.0397525
3.19061
0.0250914
0.0539633
3.43483
5.81079
5.37387
0.0254212
0.0284103
0.0275954
5.81515
7.83526
0.0373273
0.0248529
0.0252305
0.0256364
3.40347
0.132902
3.15746
2.72859
0.0267901
0.308717
0.0296233
0.0272312
4.36453
0.0253976
0.0311322
2.5847
0.0251155
8.05326
4.80749
0.0463197
0.895168
4.85421
3.69386
0.0402875
3.5085
0.140457
0.0288453
0.0255579
0.0438111
0.0852526
4.33691
0.0427015
0.0256356
31.7516
0.0254453
0.0287044
3.02929
0.102712
0.0994073
6.33084
0.0326565
0.0254183
0.0251343
0.0354345
0.0256347
3.54249
0.0264395
0.0766021
3.01548
0.0249589
0.0279052
3.15843
0.0357339
0.146225
4.69414
0.0257918
0.211898
0.0255659
2.94335
0.373912
4.75834
0.198846
3.12812
2.68157
0.0679667
6.06354
0.0248508
0.0868642
0.156171
5.60017
0.0265537
6.75695
0.0254257
8.36002
0.0300793
0.500675
0.0250872
0.0255191
0.190014
0.191441
0.025456
0.0340396
0.0254603
0.39499
3.40745
0.0369619
5.30778
14.0017
2.57603
0.025576
3.64933
0.0263299
0.0250299
0.161292
0.0324037
0.0285289
2.90073
0.0306303
0.0356598
0.0356763
0.0254731
0.0249527
2.87685
8.1574
0.025055
0.0250372
0.143181
0.0251408
6.63895
0.0528017
3.41262
5.10887
0.0253148
0.0495508
2.67795
0.0601783
0.0256631
0.0691743
0.0404786
0.0254082
16.0414
2.90922
0.0388202
6.68653
2.35933
0.0382169
0.025497
4.18673
0.0254907
0.0282762
0.118877
0.0255955
0.0256069
0.165534
2.00802
11.9957
2.69495
3.44288
0.0255689
2.62754
24.228
0.0429377
4.56059
1.71529
0.22108
0.223899
0.0589946
2.74144
0.0423374
7.0585
0.0691813
0.0367672
0.140498
0.185419
2.24158
0.025917
0.0798513
3.19376
0.0322963
0.0308529
2.38144
4.36451
4.50595
0.0255554
2.61465
2.65943
2.83139
5.38805
0.0255712
0.031172
0.305562
5.6452
4.52517
0.034442
2.70928
0.0251802
0.697354
0.0339322
0.0285133
6.1259
0.0250945
2.72176
0.0328267
0.0820888
0.0314368
0.0344529
11.2423
0.0255667
0.0253282
5.10209
6.85205
0.032586
0.0251638
0.0311808
5.61561
0.0786804
17.3004
5.16233
0.0326414
0.0256254
4.47031
0.149227
2.73529
0.0319497
0.0372526
0.0786645
0.0254273
0.0250729
0.034154
3.27209
0.148966
0.117854
0.0250829
6.72738
3.3788
0.0255329
0.0253821
0.0337522
0.0254182
5.09526
0.590851
0.0253921
0.0253954
0.0255773
0.0255134
0.0254366
0.024868
5.59019
0.0527358
0.0381376
5.22304
0.0255572
0.0267375
0.0269647
8.89457
2.56788
2.86715
0.0320275
0.0255854
4.22736
0.025499
2.39368
0.0296582
0.0826217
3.47862
3.01694
0.0254543
0.024871
5.33826
2.92481
0.0313918
0.0359319
0.0248594
0.21513
0.0342598
0.0316588
0.0271308
0.024839
3.17673
0.0339251
0.0250342
3.37728
4.16297
20.5356
6.81789
0.0850377
0.0249275
7.07701
0.164116
3.28903
0.0340683
0.0359073
0.0804904
0.0345963
4.10831
1.07305
0.0252442
0.0672967
0.0784894
0.0254698
4.07775
0.0264232
0.0276026
3.83086
3.73858
0.0254693
2.41346
8.25028
0.0254275
0.0259899
0.176873
2.94629
0.155977
0.0250554
0.0501624
0.0415629
3.13671
2.60522
5.23189
0.0781145
0.0255665
2.83332
0.0271369
0.0524566
0.0265736
3.0853
1.53192
0.026477
0.0253639
0.032568
6.63903
16.2519
0.0254429
0.0254374
2.82674
0.0252765
0.590391
0.655919
0.0250545
0.0252983
3.36581
0.0303657
3.8694
29.5554
0.0255949
0.0280913
0.119905
0.0277403
0.0688589
0.117602
0.0425579
0.0253956
0.0250586
2.56963
0.0333729
0.0254447
2.58656
3.06837
0.0254545
0.860137
0.0252512
0.0281363
0.0255158
4.20874
2.79157
0.025537
0.0258813
4.07942
0.0286208
0.0911539
0.0262606
0.0544098
0.0254833
0.0413288
0.025439
1.58339
2.65727
0.0263531
0.0376648
2.5691
0.0277902
2.72022
4.7192
0.0355369
0.025505
4.33479
0.447913
0.0253908
0.211157
0.025511
0.649398
4.54054
0.0256356
3.77047
0.0253868
4.37212
0.16038
3.33931
0.0383755
5.73549
0.0249353
3.63037
0.0254409
0.0288539
4.3805
2.38834
0.0500485
5.4424
3.9652
0.520665
6.08266
4.15316
0.0328965
3.87982
7.1832
0.0274478
0.373997
0.21101
0.0251187
0.0477574
0.0476157
0.0432469
4.65702
0.435412
0.0255581
0.657807
0.0254177
0.450846
0.0254306
2.59816
0.0251556
6.02482
2.70984
0.197143
0.171279
2.97354
0.0419031
0.0250403
0.0717058
15.6526
0.137416
0.0252075
0.0514189
0.0259807
0.0405926
0.100693
3.57558
4.47032
0.0256624
3.34562
0.0431846
0.182182
3.59577
3.7064
0.427721
0.0252154
0.0865611
5.04509
0.0277485
19.1127
0.0252499
0.0254961
0.0253937
0.0254232
0.0291134
0.461453
0.0339494
4.84345
0.0312797
0.0254467
0.0254561
2.74932
2.66225
0.0262851
0.0853278
5.80685
9.16526
3.90639
0.0362992
0.0854491
6.9673
0.0252985
0.027207
1.05037
0.0251318
5.74506
0.0251269
0.0253628
5.46092
0.041551
0.231481
2.50655
0.0329882
0.0249524
0.0256276
0.0358349
2.5923
12.6004
3.55222
0.0248211
0.025398
0.0268234
0.0255995
0.0273815
0.0254848
0.0250378
0.0254504
0.0702152
0.0250932
0.0255828
3.48837
2.69696
0.0277169
2.67388
0.0257189
0.0280535
4.27561
0.516808
0.0294958
2.60535
5.75097
0.413813
0.0250784
2.3863
7.35544
0.0556348
2.95696
2.60528
2.67848
2.038
0.0382273
0.0345925
2.52869
0.18437
0.0265068
0.0250546
2.87902
0.0779325
3.18124
0.0256032
0.0255676
2.88676
0.0629415
4.06438
0.0440672
0.0254356
0.220826
5.07716
0.0279344
0.976868
3.23391
0.434513
14.5414
0.0260268
0.0340342
0.0771054
4.18504
0.15245
3.01236
0.0255578
0.139446
2.415
10.8286
0.0252463
0.0254183
0.253027
0.0715301
0.0256334
6.71293
0.027488
0.0253723
0.0246593
2.75261
7.90599
2.89084
0.025665
0.0256282
0.241648
0.431687
0.112904
0.613759
0.0666719
0.0350277
0.025172
2.70127
0.373926
3.66804
4.90036
0.0514833
0.576807
0.0340632
4.26576
0.0462476
3.32623
3.92566
0.0256901
0.0522146
0.0890663
3.03295
0.0266746
0.0255327
3.50239
0.0380825
3.83881
2.7639
5.13483
0.0328991
3.47607
3.22092
0.0402352
2.45835
3.03494
0.0260335
5.3797
6.05442
0.756881
4.2439
2.68488
0.02569
5.7844
0.047008
9.14933
0.0872544
2.5843
0.245693
0.497371
0.0305755
0.0254182
0.02528
0.0256407
0.0256817
5.94504
0.203875
0.025057
0.025448
3.68203
0.0248954
14.6615
2.76894
14.6198
0.197091
0.0253922
4.04707
0.0256728
5.79706
0.025109
2.80218
6.59088
0.229343
2.50328
0.0272448
3.47455
2.82977
6.83366
2.72149
16.3075
2.61564
2.78274
5.5229
0.0335178
3.8203
0.0258851
0.0256373
0.120198
3.12618
2.65156
0.0254985
0.0259722
0.0250189
0.0787695
0.17469
0.0347439
0.025282
0.753834
0.0375355
0.0251229
0.025168
0.0655167
1.3834
3.62407
0.0255166
0.447251
0.0251192
0.0315814
4.53639
0.0253567
2.63574
4.09014
0.0353963
0.0447067
0.0458325
0.0254851
0.0256056
0.400485
0.220313
0.0483948
0.0247257
0.0377537
8.20712
6.84839
16.1129
0.0262854
0.0292865
0.221801
0.052986
2.40471
0.0256261
0.0250697
0.0566805
3.60453
0.0344599
2.79529
0.120607
0.0338589
0.0260508
0.0251795
0.129699
0.0259126
0.0266423
0.433298
0.0253328
2.74034
0.0254195
0.0254993
0.0292369
0.0256271
3.62888
8.25151
7.24921
7.38503
5.58908
0.0795994
0.0659861
0.0281748
5.47273
0.494617
0.0252586
5.47953
4.00822
2.32793
4.05459
3.57724
2.57388
0.0256385
0.506522
6.20883
0.223774
0.0280008
3.45212
0.0495614
0.028887
0.050627
0.0302959
2.80015
2.56721
15.445
3.61056
0.0859755
2.42704
5.93348
0.159435
0.0913267
0.0256106
5.88144
0.0256218
2.66899
5.58295
4.73903
3.44185
0.0661686
0.290751
0.0250728
4.25445
0.0490823
0.0285574
2.9648
0.0250756
0.153239
0.0255828
5.52259
6.15229
0.025272
0.0330245
5.64969
0.0314291
0.801109
0.0352003
0.124198
0.0250692
0.0490706
0.0254231
0.0323332
3.33386
2.73581
23.3339
3.5958
5.46045
0.0263418
2.55236
0.0254824
0.031372
0.0837897
2.69574
6.78634
2.48201
0.0252325
12.3543
0.0664697
0.0252429
0.0254138
4.54014
8.34317
1.64907
0.0481256
7.08969
6.16734
0.0254166
3.02511
3.64602
0.0319494
3.93599
0.859646
0.181789
2.4078
3.45295
0.0254203
0.0256249
0.0322391
0.0252679
4.71167
0.0256548
7.01534
0.025152
3.42723
0.0424642
2.46636
3.74592
0.0477614
2.70641
0.025668
1.9348
5.64902
3.11176
0.030768
0.0254196
3.96319
3.95812
3.41705
0.0742596
0.0255349
0.0312003
8.85939
3.17032
0.0266418
0.0509281
5.91522
0.0254475
5.86279
0.0681038
3.96196
0.160043
0.419937
2.65098
0.0348834
0.0917606
4.18916
0.025245
3.4794
0.0495565
2.7183
0.0293441
3.08767
0.0273573
0.0776475
0.0288643
4.17099
0.0297555
7.60791
0.0330274
3.99702
0.0318076
0.050613
0.120403
6.6082
7.25352
2.06657
0.0467568
2.81592
0.0382824
0.0338173
0.0250773
2.45802
0.0256695
3.29786
0.0340566
0.0313544
2.62464
0.0254164
0.0247871
0.0256592
3.31215
0.0256933
3.45813
0.0329027
15.609
2.75262
0.145069
0.025454
3.91329
0.0325593
0.028506
0.0254471
3.2131
0.0254931
0.322275
0.0253345
5.61175
2.77176
0.0292623
3.55611
3.47308
3.08086
0.0307379
5.85804
0.0614649
7.86991
0.0299952
0.0276019
0.219525
2.89097
0.0254057
7.47392
0.322121
0.0282716
0.695962
0.026671
0.087205
0.0281811
0.0250152
0.0301786
0.0271366
0.127831
0.0254715
0.0414297
0.127687
7.70786
0.0464849
3.21944
0.0739801
0.0254655
0.0819849
1.05835
0.0250154
0.0782836
0.025465
3.4618
0.0322106
1.57763
0.0255036
0.499384
0.0254192
0.038348
6.05697
4.53913
6.74347
3.07512
0.180061
0.0518668
0.025864
0.0463189
3.84865
17.4491
4.13466
4.84302
0.0253487
2.74912
0.0254225
0.0285788
0.0283694
0.104453
0.0257232
3.54002
1.89148
0.107457
5.2649
0.0760096
3.21638
0.110538
0.0286507
0.0256289
0.0256413
0.0293301
0.0301872
0.0743226
0.0599861
0.0255179
0.025656
3.20023
0.109051
2.75318
4.84291
6.67248
9.24414
0.0406124
0.0444939
5.25212
0.0313823
0.0254533
0.0306224
0.102575
0.0262982
3.27406
0.0700545
7.22714
0.0254851
0.0712519
3.54536
0.0319661
0.131541
0.0255042
0.0276386
4.00538
2.99149
2.63985
0.0333431
0.0251509
3.62357
0.0254461
2.64385
2.78399
0.0346368
4.55341
0.0312546
0.0866775
0.0282846
0.0257294
0.029395
10.043
7.28313
0.0254286
0.102656
0.988312
0.025111
0.0249826
0.0490553
4.00628
2.59406
3.61475
0.0280959
0.0258459
0.0627302
0.760018
2.84325
0.0467161
0.0255633
0.0267148
0.172256
0.0344812
2.82303
1.83107
0.0256376
5.81343
0.0256497
7.81814
0.0582833
0.0433551
3.11672
0.0356983
4.44094
0.0461311
0.288753
0.504376
0.0318257
0.0252297
0.0257207
0.0481139
3.45504
0.0476467
4.5264
0.0271078
0.0256805
0.0318834
2.78804
0.0259849
0.0778784
3.81949
2.67784
3.70614
2.54089
0.0258678
0.0518796
0.0817627
0.0248336
0.0255381
0.0561427
0.0261663
0.107601
0.0695063
0.025406
0.0942511
6.60379
0.0256794
2.65977
0.025355
0.0254323
0.0270196
0.0889235
4.81938
5.61128
0.0378821
0.0288197
0.032261
0.025627
3.71299
0.0324946
6.53015
4.75916
5.01442
0.077199
0.0795212
0.025705
7.77129
0.131198
4.7155
3.50447
0.175793
0.0267799
3.08949
9.90654
0.351043
0.43542
6.32722
3.5396
2.63026
0.050376
2.6553
0.0331554
3.10684
2.70852
0.0795454
0.0254539
0.249954
3.60611
0.0271629
0.0256863
11.1483
0.0254649
0.350007
2.41144
0.110251
0.534637
0.0814078
0.0254537
0.0626228
3.99884
0.0254934
3.43254
0.546403
2.13098
0.0273973
6.21541
0.0253499
5.2827
0.0258783
2.57669
0.0258698
0.0392522
0.0252097
3.1463
0.390545
3.00172
3.64287
0.138151
0.025566
0.553509
4.82081
8.3719
5.04941
11.8816
0.0255661
0.0251604
0.348196
0.0254178
5.94489
2.55434
0.163172
2.91579
3.07094
0.030221
4.2198
0.027851
0.120112
8.71175
0.0279107
0.0349016
0.12048
0.0269615
0.0251771
0.0257107
0.0497016
0.0250809
0.0260913
0.919922
0.0254411
0.0253709
0.0340819
0.0254008
0.0384366
0.0256538
2.561
2.65394
3.14754
0.0250015
0.502456
0.856791
0.0254408
3.43379
0.0373248
0.0321106
0.0402521
0.0359188
2.73995
12.1861
0.0409668
0.0259667
6.01167
0.116788
2.71257
0.0273958
2.51143
3.68282
3.16677
6.08288
0.0254269
3.64285
7.69039
0.0258496
0.0443566
0.0261509
0.0293866
2.34876
7.97227
35.5958
0.0251225
21.9154
0.0484661
0.552486
0.0843926
0.0250403
0.0254591
0.0391947
0.0281042
3.93558
0.0385197
4.36614
4.10492
0.025508
0.0506221
0.0256525
6.37431
0.0470594
4.26854
0.472127
0.02514
0.0253289
0.0509731
2.67674
4.22409
0.0545383
8.2694
0.0254659
1.10442
0.0678308
0.0250545
0.0247746
0.0399441
0.0255178
2.69654
0.0969655
0.0248679
0.0263438
3.10381
0.0250038
6.77241
0.0461948
0.051916
2.36376
0.0253449
0.044792
0.0251337
2.47286
0.0257272
0.0308655
0.0280393
0.0484934
0.0246902
5.37559
2.88468
0.0326786
0.0256625
6.72567
2.17868
0.234414
2.55044
0.0494222
0.0255672
0.0253709
0.142197
0.138839
1.10539
0.142084
0.0402879
0.0438693
3.31387
0.0255732
2.42386
0.0271042
0.0796891
0.0254175
0.0252902
0.0271919
0.0262223
0.1039
0.0312185
1.20195
0.223078
3.13336
2.97652
0.0266728
0.0286698
0.0252801
6.6447
0.0256233
0.0720701
0.0251846
0.0406695
0.058077
3.50712
2.58362
2.59947
3.11961
0.026511
0.0713524
0.924983
4.76223
0.0902252
0.0254707
0.0358725
2.51255
0.0263283
0.0325313
0.0252767
0.0672568
0.0300041
4.41851
0.027328
0.025473
2.77814
3.06626
0.166118
0.025404
0.0254392
0.0621077
2.81699
0.0501255
0.368698
0.0291258
0.0311061
0.688854
0.048572
0.0301009
3.59443
7.0631
0.138358
3.15702
3.88872
1.85521
2.54211
0.0902311
2.7985
14.5005
0.043843
0.325213
0.0253472
0.0292331
6.89456
0.0864941
2.5618
0.0256252
5.71967
0.266417
2.65343
0.0962301
0.0803423
0.0259572
4.19159
6.82018
0.0491463
5.43545
0.0341447
0.026039
5.84077
0.0664852
2.90158
0.061515
2.28642
2.65173
6.81528
0.0489282
3.30993
0.0251408
0.0260257
0.109828
0.0269478
0.0258529
0.0362229
0.0419678
0.155303
0.206386
11.0516
6.42088
0.0660345
0.0254184
4.65148
0.0352964
0.0254233
2.74998
1.52652
0.0253412
0.025106
0.0311583
0.15725
0.0482718
5.95503
0.922893
0.267041
0.0276933
3.55515
0.0261523
0.0397657
2.97657
0.0253838
0.375131
0.0803165
0.0253585
0.476263
2.6757
0.0274773
0.024902
0.03158
0.0253915
0.0273139
5.25825
0.0252422
0.136757
3.60548
0.0253432
2.64487
0.0262046
3.37023
0.488082
4.17029
6.07074
3.92111
0.054992
3.46146
0.025238
6.12762
0.0259644
0.0778981
0.764577
0.0394307
3.78989
0.0332326
1.15758
7.06644
0.0256756
0.265441
3.68486
0.0255575
3.03449
0.0284317
2.74019
1.53725
0.499829
0.0506158
3.41155
2.39195
0.0706178
0.124261
0.0259215
0.107208
14.2663
4.96781
0.0812279
0.0254719
0.0619277
0.907374
0.0260752
4.35714
0.0252807
0.0438484
0.092348
2.68782
0.0252908
0.0254853
0.0346737
8.01412
0.0248332
0.0256521
0.752626
0.0253466
0.0803981
0.104881
0.0471981
2.6767
0.222193
3.41156
2.83885
0.0789595
0.180331
3.76419
0.0275681
0.0272971
0.0668074
0.0253419
7.29534
1.56086
0.0264016
0.0257821
3.07358
2.74942
3.843
0.250534
0.0252352
2.90352
2.5562
0.0258879
2.76546
3.9713
3.57642
18.0807
0.0253142
0.0282507
0.0254186
0.0301575
0.0273772
0.0256248
0.0932789
0.0527648
2.66493
0.0265485
0.0524272
0.0249917
0.0256444
4.38947
0.0312308
8.94632
4.17814
0.0325145
0.0251635
0.10886
2.01984
3.37132
0.0353672
3.685
0.103358
3.53694
0.0279761
0.0472086
2.97707
0.0253569
3.61587
0.209734
3.41478
2.65023
3.43842
0.0256495
2.64951
0.065559
3.41035
8.24251
2.80736
8.79379
0.416016
0.146189
2.70679
0.0256827
3.66924
5.98956
2.75547
3.5085
3.73818
0.0278133
3.03404
0.0406871
0.0426052
0.0393078
2.59465
0.0254982
1.98352
0.0254139
0.0585072
1.8452
0.0254203
2.69476
3.64296
0.0250983
0.0250281
0.0251633
2.56511
6.28823
0.0294067
0.117401
0.0287389
3.3197
2.66909
2.49272
3.31522
0.0433243
4.02308
2.67536
7.57174
0.0354134
4.60961
4.92554
3.49632
0.0248799
2.47328
0.0785305
3.45098
3.06145
0.0259128
0.0255125
0.0909155
0.0251596
3.44118
0.0252654
2.65828
0.0264682
3.80192
3.77857
3.90242
0.283585
5.0553
0.0286805
0.0259157
0.0622895
3.89893
0.0254297
0.0753143
3.93191
3.40922
7.22254
3.60996
0.0292128
0.0736727
3.4943
2.61753
20.3466
3.37691
2.90992
2.69394
2.83281
4.21388
0.0256941
0.0273498
0.0252896
3.15436
3.21702
0.0252079
0.0324234
3.62463
2.87973
0.186071
6.63907
3.46836
0.160836
0.665587
1.01192
0.0257335
3.97244
2.56936
2.99621
0.0261913
3.7701
0.0270424
3.56227
2.53578
1.50024
2.97
3.16149
3.59007
0.235295
3.35188
3.08189
5.37616
0.0259147
2.74612
2.66838
0.0299979
0.0918905
0.0260824
0.0360831
0.0266498
4.06756
0.129679
0.0312692
0.073257
0.0254524
0.654493
5.72504
3.40726
4.16676
0.158493
0.0276794
0.0716196
2.68847
0.0347023
0.0253099
3.14291
2.47438
0.220876
2.88249
0.027975
3.47166
0.0309599
0.06812
0.0292534
0.031317
7.18068
2.73121
0.101032
2.55796
0.135924
0.0282213
10.4535
3.66641
4.34844
4.02811
0.0252481
0.0255442
0.0616563
3.65483
0.0913625
0.0334805
0.139991
0.0256313
2.96517
0.025293
0.0255452
0.0248757
0.027421
3.85819
0.0795437
0.0254194
0.0261566
0.0446119
0.0992595
0.124196
3.04814
0.0355781
6.60302
0.025519
6.57832
0.0484372
3.84238
5.14639
0.0256078
0.0248243
0.0252961
0.0254261
5.84371
0.0279426
0.0268403
6.21949
0.907725
0.0256912
0.0265734
0.0254005
0.32385
0.597041
2.97996
2.30012
2.65455
0.0606488
5.69713
2.51211
0.0254226
0.0251526
2.80098
0.167275
3.85528
0.0254946
3.42793
9.57335
0.176449
2.83702
5.90775
3.30956
0.0258262
3.42108
0.213896
0.0394377
0.028918
0.025274
0.360367
0.154511
1.04729
3.17137
1.61006
0.0288812
2.7566
0.0293993
2.51668
0.0268549
3.02468
0.836555
14.4664
2.94942
0.046101
0.0337033
0.0377805
3.40644
0.0255958
4.72554
3.14783
3.47175
7.42048
0.0302581
0.0694269
0.133828
5.83297
0.0307274
0.577473
0.0481371
0.0300241
0.146836
3.23154
0.0389621
5.82517
3.12326
0.643028
0.0252588
0.183665
0.0268384
3.45308
0.026079
0.0247933
0.0331266
2.92309
0.0376538
3.70181
3.90879
0.181859
0.0526398
1.5145
2.66685
0.025188
0.134707
3.47647
0.024904
0.0254042
3.3293
4.14148
0.0264027
0.0413606
0.118743
3.19758
2.71371
0.0430291
2.56491
4.97068
0.025604
2.14444
0.028931
6.94385
0.163663
0.732732
0.0423481
1.8152
2.37861
0.025471
0.0257943
0.0287711
0.100599
0.0360609
0.0296042
3.9489
0.25031
2.75648
0.0389645
2.71778
3.32181
0.434187
3.72697
3.2727
0.0268409
3.24092
4.24173
0.276626
0.141601
3.25668
5.02242
2.88239
3.26188
0.0587015
0.0350166
0.214169
3.72006
4.04781
3.30884
7.50686
5.6381
0.0256698
3.54189
0.0660594
5.47266
0.0310864
0.0252074
0.168354
1.30146
5.87108
0.367635
4.56485
0.124565
1.08682
0.0476917
0.0304613
0.0259885
0.0256952
0.0589807
0.170752
0.843053
2.86859
3.3576
3.18833
0.0253957
0.0339407
0.032112
0.0373256
0.0258403
4.31893
0.0658171
2.85388
20.0138
0.0252329
3.64983
3.30825
3.08672
0.025181
0.10476
3.64043
5.68228
0.0491774
0.0358859
0.246385
0.0485879
0.114618
0.138388
0.0360681
0.0724907
3.38613
3.62329
3.43025
0.100675
0.0256373
0.0253683
2.63246
3.76489
3.33574
0.0298629
3.49324
2.57735
2.84522
0.0258712
3.08523
3.25939
3.24633
0.436868
3.96208
3.385
0.0250832
3.16728
3.36273
0.0253157
2.8302
3.35207
3.21553
2.6121
3.15023
0.025301
0.383135
0.143544
0.318329
0.123719
0.155844
0.0304383
6.74052
0.110203
2.7087
0.143329
3.39281
3.99139
0.143282
4.73211
4.98933
3.50342
0.0252123
3.31208
5.10228
0.11647
3.41621
0.0284922
2.59794
3.67818
0.0559938
3.42633
0.129793
0.025333
0.0305856
4.06933
4.91557
2.74503
2.81299
0.158799
0.0446265
2.75129
0.0255173
0.0295828
8.09792
0.0346372
0.064564
4.67065
4.73309
0.0260812
16.4193
2.79462
3.18127
2.77601
3.55935
0.027657
2.76878
4.50388
0.0618343
0.0288851
0.20864
3.10465
0.052185
3.44041
3.42222
0.0258688
5.10467
0.0537161
0.0542878
0.0272279
0.0397791
0.038471
0.0595811
0.0256889
0.025652
0.0312377
0.74764
2.66083
0.0548769
0.530548
0.0589397
0.0578106
0.0844429
12.8108
2.66614
0.0256978
2.24885
0.398625
0.11994
0.052343
0.657145
2.66395
0.0264775
0.0254884
0.120388
3.82363
6.00859
1.70295
3.58939
0.0761969
4.40058
0.0254531
2.94163
0.0440073
0.0276385
0.122134
11.3071
4.13178
8.03098
0.404686
0.040589
0.0265459
0.0247409
0.0410428
0.025579
0.176972
1.79146
0.0344404
3.01769
6.51997
7.85925
0.0338093
0.0617979
2.87021
0.0484192
0.0550813
0.0247431
3.37815
0.0594379
0.422049
0.0423016
2.98493
2.56032
2.55918
5.40216
0.0432064
0.0565598
0.043794
0.0255703
3.86055
1.66592
0.0887749
0.0301725
0.0300205
0.105452
2.73656
0.0253252
0.423826
2.65791
0.0268052
0.168923
0.0534927
0.0251371
0.151319
5.04214
0.162184
0.0262254
0.0991726
0.0725521
3.04622
0.0390013
3.24039
0.081398
1.31255
0.0746036
2.90157
2.96421
0.394034
0.120098
0.0357571
0.0272462
0.0816555
2.24154
0.105049
6.36711
0.0461326
0.445883
0.0438256
0.185205
0.333316
0.132455
0.0260447
3.97848
0.0250692
0.0739452
0.031753
0.870138
0.025169
0.0476215
0.025467
0.0314966
2.78205
0.0264104
0.0254695
0.612689
0.0254116
0.157864
0.0259132
0.0253739
3.67206
4.41348
0.0256655
0.0590721
0.175334
0.062607
0.120105
0.0438045
0.0603782
4.66903
0.0505931
16.4344
5.50061
0.0257722
0.193834
0.0251695
0.0254896
0.0484919
0.124907
3.22335
0.457832
0.116064
0.0912143
3.24418
0.0321859
2.7481
6.86987
0.0289865
0.0399038
9.07587
2.61736
0.0256913
0.877602
0.0257175
0.0286864
9.67539
0.025259
0.0906325
3.32393
3.33371
2.8633
0.117812
11.7098
0.0636517
5.2919
0.494552
0.0410831
0.512386
8.31193
0.410601
3.92628
6.20106
0.0261305
2.76682
0.024843
0.180336
6.94309
0.0254065
3.97788
0.025813
0.0253631
0.0605825
0.186753
0.0248316
6.71741
0.0874339
0.0256372
0.0248511
0.0279424
0.0308718
3.73474
3.53635
10.9946
0.134806
6.0143
3.44452
0.0264965
0.105549
4.06748
0.461864
3.73653
3.41261
0.0249423
2.60924
2.79512
3.61466
1.76637
0.0366805
0.0253082
0.0347836
0.398446
0.0249858
0.0250645
4.57379
2.45675
3.6602
0.170742
0.0267013
3.51731
3.55029
0.0259839
7.27456
2.68829
0.0353761
0.0448437
0.0558678
3.54036
2.72297
1.83465
0.0695168
0.0329179
1.3393
0.0328879
0.121425
0.0291852
0.0938797
0.0352319
0.0254275
7.36793
3.05049
0.0279415
0.159304
0.0593367
0.025295
5.34223
0.65784
3.86095
2.90906
0.084953
3.32512
0.144271
4.78484
5.67381
0.26458
1.24246
2.59922
0.0269732
0.044877
0.0255079
0.0253328
3.37344
6.18159
0.0998266
0.0257621
0.0681119
7.80182
0.0252427
0.0681277
0.026398
0.0632034
7.6972
0.0272964
2.66656
0.0830753
6.5991
0.0511005
6.44536
2.71887
0.0555445
0.0271693
0.102172
0.199254
0.372202
3.62988
0.0608104
0.403691
0.310783
0.0578774
0.0306707
3.10409
0.122348
3.62189
0.0460393
0.072475
0.0824917
0.0291425
11.9208
3.3411
0.212814
0.163687
3.02077
0.0254397
0.105235
0.0252629
0.0293865
0.0282043
0.024709
0.0272547
3.47538
0.184156
0.459692
0.0262983
0.0261823
0.0488765
2.9202
0.0718452
0.0454092
0.0255357
4.03868
0.0254999
0.33095
0.534683
0.0252249
0.0266477
0.0275556
0.0858766
2.64638
0.0255575
4.56281
0.0275845
0.238985
0.162303
0.026116
3.49885
0.0270728
0.0250885
7.20821
3.33487
0.0324973
0.234411
0.0265863
3.20598
0.0251145
0.101817
24.3049
0.415335
0.107932
0.487374
0.0254584
2.52892
0.108552
3.45736
0.0250258
0.0876529
0.0803834
0.0254811
0.0295002
0.0248389
0.0321475
0.0271263
0.0501421
0.0252927
0.168193
2.74072
4.0267
0.0249963
0.0873483
0.160326
0.0615676
0.0421496
0.0267143
0.0291955
0.0254459
0.025146
0.0625015
0.0290509
0.0925427
0.0768365
0.0254887
0.464448
0.0278392
0.0275595
2.83285
2.79937
0.114552
0.0252041
9.29579
21.8989
3.48153
0.0457382
0.0313672
0.184328
5.63597
0.0250522
6.46025
0.0250319
0.0256269
0.0752204
0.0292511
0.0427492
0.0256383
3.50798
0.0429567
0.0277135
3.17901
0.2603
13.1575
2.37192
0.16656
0.107311
0.0254072
0.0297655
0.0255709
0.0253287
2.69563
0.0751388
0.296115
0.0254704
3.55967
0.0300467
0.108304
2.14423
3.00082
1.11467
0.0737886
0.0255321
2.37357
0.0255616
0.0267983
0.0254109
0.127135
3.09827
0.0272839
2.87237
0.0654978
0.0256676
0.188952
0.110113
6.91283
0.0252401
0.358529
4.70523
4.23523
3.38358
0.0272945
0.0254069
6.97941
3.05832
0.0339721
0.0254317
0.0256247
0.155342
1.9063
0.280547
0.0258102
5.05853
0.0277374
0.0369447
3.73472
0.0390617
0.0256112
0.0286005
0.0346373
0.123384
0.0267608
2.83559
2.82804
3.59179
0.0252907
0.0379965
0.040145
0.0257512
0.337558
2.70696
6.72452
0.0629406
0.0255019
0.136542
0.0343094
2.88772
0.0279836
0.0579102
4.7869
0.0254097
2.60111
3.15904
0.0254209
0.0251959
0.025479
0.517632
7.70908
0.0270388
0.0250416
0.0256067
0.0259863
0.0249675
0.682162
5.71649
0.0254382
0.33703
0.0254531
0.0269664
0.0254652
0.0291904
0.036485
0.0589737
2.5629
0.0254648
0.043304
0.0304788
3.72275
3.64139
5.8401
4.13153
5.02084
4.85513
2.8239
2.80413
9.50372
0.118185
0.0627672
4.55755
2.58184
0.0248943
1.43027
3.58179
0.0312732
0.0295594
5.059
4.87897
3.45864
0.025721
0.0815375
3.99849
0.029962
3.41212
0.0254973
2.54564
3.18561
0.11103
0.0258593
0.0258856
2.67462
0.0254882
7.80895
0.0812174
0.0255342
0.025577
0.156035
0.0268205
4.38263
0.0454698
0.0254435
0.0259308
3.70309
0.105941
2.70928
3.12252
3.221
0.059192
0.0453949
0.0250322
0.0361372
0.0398563
0.0313977
0.040659
2.44371
0.0257526
2.65439
7.57524
9.1438
0.0255428
0.0878905
15.5532
0.0247564
5.43443
0.783606
2.54261
2.67713
11.5046
0.153985
0.0689267
0.260505
2.58767
0.025668
0.0256844
3.79154
3.486
0.0394578
0.0344383
0.057828
0.0778663
0.0402382
0.0850827
6.74267
0.135063
0.142748
0.0271319
0.0256767
0.0268998
2.56888
0.0833485
3.08252
9.14767
16.3707
0.209083
0.027405
0.0263799
0.0262166
0.0865606