/*--------------------------------*- C++ -*----------------------------------*\
| =========                 |                                                 |
| \\      /  F ield         | OpenFOAM: The Open Source CFD Toolbox           |
|  \\    /   O peration     | Version:  v2012                                 |
|   \\  /    A nd           | Website:  www.openfoam.com                      |
|    \\/     M anipulation  |                                                 |
\*---------------------------------------------------------------------------*/
FoamFile
{
    version     2.0;
    format      ascii;
    class       volScalarField;
    location    "400";
    object      p;
}
// * * * * * * * * * * * * * * * * * * * * * * * * * * * * * * * * * * * * * //

dimensions      [0 2 -2 0 0 0 0];


internalField   nonuniform List<scalar> 
15335
(
-0.345392
-0.195395
-0.427637
0.0670886
-0.436609
0.036598
-0.192314
-0.335395
-0.129035
-0.345918
-0.427098
-0.073276
-0.436863
-0.14319
-0.393398
-0.404597
-0.0426564
-0.429081
-0.045839
-0.318401
-0.335931
-0.340155
-0.191246
-0.0413334
-0.294626
-0.173525
-0.440316
-0.168629
-0.43624
0.0680813
-0.434599
-0.326772
0.029282
-0.00708602
-0.0301465
-0.342103
-0.338133
-0.361343
-0.211569
-0.225396
-0.157305
-0.367845
0.0157013
-0.0883554
-0.303264
-0.0295215
-0.44116
-0.18266
-0.143887
-0.00990839
-0.0406875
-0.368624
-0.392293
0.0291354
-0.0496103
-0.190246
0.154883
-0.370972
-0.436378
-0.425541
-0.225534
-0.182029
0.0891482
0.123955
-0.0499614
-0.0723323
-0.352179
-0.327311
-0.0522919
-0.0416416
-0.152838
-0.0382864
-0.294469
-0.215266
-0.328458
-0.293212
-0.156531
-0.274471
-0.430958
0.0203617
-0.436455
-0.439824
-0.436068
-0.288043
-0.434785
-0.0294935
-0.0454809
-0.0868513
0.0466789
-0.210189
-0.438189
-0.171975
-0.0747258
0.319346
-0.436517
-0.0889191
-0.0285539
-0.0907127
-0.0350068
0.0210066
0.0144661
-0.295483
-0.332366
-0.126082
-0.0756053
-0.124911
-0.048411
0.183023
0.494179
-0.018261
-0.178636
-0.220092
0.00170435
-0.0748327
-0.393858
0.0429266
-0.152015
0.285359
-0.439392
-0.363488
-0.43814
-0.231873
-0.211009
-0.189935
0.0398139
0.0213784
0.155224
0.0201715
-0.124003
-0.0439292
-0.373633
-0.30203
-0.0328161
0.0386165
-0.267858
-0.0232527
-0.435086
-0.432779
0.0964331
-0.336675
-0.17149
-0.21312
-0.0995114
-0.0425447
-0.269749
-0.389898
-0.217881
0.524162
-0.254876
-0.432407
-0.0949782
-0.341317
0.0200834
-0.0868964
-0.154142
0.0280534
-0.259154
-0.21009
0.470601
-0.397568
0.0285269
0.13509
-0.197263
-0.17746
-0.215239
-0.274721
-0.277262
-0.0395032
0.251165
-0.441598
-0.407464
-0.385257
-0.266234
0.274349
-0.277387
0.0196304
0.0010769
-0.185166
-0.423077
-0.233027
-0.283008
0.108843
-0.22554
-0.141681
-0.140434
-0.256363
-0.115991
0.0656061
-0.212528
-0.376058
-0.384662
-0.291797
-0.0948676
-0.287683
-0.354782
-0.436148
0.00356412
-0.298643
0.0213237
-0.436742
-0.0851358
0.050019
-0.0407872
-0.392039
-0.40585
-0.27112
0.00113174
0.301965
0.144364
0.0184442
-0.140543
0.0110503
-0.156791
0.0657808
-0.144159
0.311529
-0.426409
-0.338733
-0.139776
0.473805
0.0380628
-0.00237133
-0.122023
-0.0861715
-0.279578
-0.348715
-0.0386749
-0.219314
-0.173171
-0.27938
-0.0228321
-0.0329129
-0.142799
0.475135
-0.255486
-0.130987
-0.28783
-0.140084
0.00165878
-0.360043
-0.230643
-0.0283589
-0.209546
-0.146401
-0.391236
-0.0272347
0.0194166
-0.386437
-0.147981
-0.141598
-0.403952
-0.289385
-0.0322021
-0.0401684
-0.174047
-0.280463
-0.175424
-0.385331
-0.0417984
-0.276175
-0.319727
0.0268529
-0.0398255
0.0352101
-0.0529895
-0.0423646
-0.396324
-0.201198
-0.213526
0.0511288
-0.391185
-0.255999
-0.202538
-0.0231819
-0.183054
0.0472843
0.0152687
-0.26169
0.119553
-0.170809
-0.144232
-0.312418
-0.0441933
-0.175369
-0.0961218
-0.432599
-0.256711
-0.0983192
0.0692478
-0.0374524
-0.279938
-0.0762683
0.112542
-0.276135
-0.0852916
-0.290874
-0.0392491
-0.192915
-0.0288665
-0.382772
0.0410371
-0.232139
-0.213057
-0.257394
-0.0215641
-0.426182
-0.281108
0.00189467
-0.337337
0.0966167
-0.39903
-0.0537247
-0.290485
-0.199547
-0.341084
0.0279965
0.0348762
-0.385611
-0.275449
0.464518
-0.293198
-0.0489878
-0.308788
-0.431633
-0.119962
-0.15882
-0.396797
-0.283694
-0.0954997
-0.0933658
0.021927
-0.221195
0.0542978
-0.191105
0.0220576
-0.338449
-0.0475496
-0.182795
-0.440454
-0.314018
-0.193679
-0.148763
-0.0013943
-0.149843
-0.0921766
0.0993267
-0.00570718
-0.327445
-0.0337421
-0.437792
-0.270412
-0.402147
-0.0405306
-0.392841
-0.403951
-0.00198426
0.163141
-0.0869878
-0.124205
-0.235036
-0.0973445
-0.17004
-0.0947145
-0.35046
0.14377
-0.308119
0.481266
-0.167189
-0.0857553
-0.0242135
-0.255215
-0.0113665
-0.105385
-0.347734
0.0287352
-0.345208
-0.370857
-0.0876599
0.138056
-0.16001
-0.00231059
-0.0823238
-0.432834
-0.339837
-0.11878
-0.0241039
-0.222796
0.264237
-0.148848
-0.299693
0.0259443
0.0500378
-0.0244491
-0.146746
-0.332403
-0.261265
-0.322882
-0.0933151
0.165956
-0.191724
-0.231819
-0.235057
-0.437753
-0.0933658
-0.0651423
-0.232483
-0.399428
-0.427457
0.0570023
-0.273607
-0.285959
0.136562
-0.328861
-0.177081
-0.152915
-0.382694
-0.430925
-0.081498
0.29396
-0.0946596
0.108634
-0.408515
-0.186805
-0.0292314
-0.208485
-0.269143
-0.145605
-0.398697
-0.101851
-0.424104
-0.309526
-0.358516
-0.362533
-0.334228
-0.140472
-0.251803
-0.222965
-0.416821
-0.0418421
-0.0429999
-0.33528
-0.391022
-0.0353019
-0.188674
-0.133327
0.2436
-0.315824
-0.145042
-0.14336
-0.396099
-0.40508
-0.348489
-0.139062
-0.0133748
-0.29366
-0.295446
0.0159602
-0.343942
-0.209755
-0.144145
-0.228189
-0.331882
-0.208356
-0.191009
-0.124099
-0.117236
-0.107093
0.0232989
-0.00768672
-0.198889
-0.153903
-0.192999
-0.356801
0.0251418
0.00363438
-0.0538875
0.512541
-0.363682
-0.387949
0.516141
-0.26994
0.497731
-0.111292
-0.435242
0.0664634
-0.0464342
0.0249308
-0.214149
-0.0350284
-0.240024
-0.0413026
0.0854187
-0.0382403
-0.27371
-0.322344
0.0226526
-0.0944263
-0.190023
0.107841
0.137057
-0.398371
-0.0962163
-0.194869
-0.0707615
-0.364562
-0.0658337
-0.0247273
-0.407976
-0.0531367
0.0713138
-0.391938
-0.0248407
0.0274195
-0.414231
-0.34333
-0.328396
-0.0844084
-0.13162
-0.0624777
-0.427681
-0.299673
-0.0110917
-0.386923
-0.306886
-0.22712
-0.296185
0.0529546
-0.213345
-0.219344
-0.434092
-0.416059
-0.112129
-0.172082
0.158683
-0.27475
-0.194426
-0.335557
-0.256249
-0.335673
-0.24341
-0.223574
0.0258831
-0.0651123
-0.102397
-0.117197
-0.0161909
-0.196075
-0.219096
-0.269806
-0.226461
-0.193658
-0.348276
-0.149865
-0.247437
-0.139795
-0.282988
-0.118642
0.00364139
-0.0993301
-0.0422627
-0.0104748
-0.150599
-0.0601117
-0.11239
-0.231462
0.49491
-0.377087
-0.436148
-0.295516
-0.19821
-0.0316906
0.054368
0.0289813
0.0722327
-0.436585
-0.120538
0.462206
-0.0242824
-0.150404
-0.434053
-0.0432721
-0.0344874
-0.308189
-0.430762
-0.410528
0.0369842
-0.080326
0.0982396
-0.396286
-0.394289
-0.0526714
-0.0412736
-0.0227926
0.0250171
-0.168676
-0.164946
0.515154
-0.330646
-0.0674114
-0.32775
-0.0949862
-0.0791843
-0.283858
-0.00535007
-0.116373
-0.273179
-0.0373717
-0.296082
-0.303793
0.0805463
-0.322545
-0.344921
-0.213539
-0.139391
-0.169631
-0.167422
-0.0386301
0.0210076
-0.109394
-0.134362
-0.280838
-0.15808
-0.0123886
-0.431033
0.00330383
-0.0974814
-0.433321
-0.223138
-0.232658
-0.435768
-0.120726
-0.00775713
-0.0549165
0.0240022
-0.0112025
-0.335971
-0.0548278
-0.190913
-0.417956
-0.0367773
-0.0758317
-0.416698
0.036353
0.266673
-0.35277
-0.0397738
-0.287849
0.00281602
-0.193866
-0.270582
-0.313827
-0.250533
-0.435732
-0.397931
0.119105
-0.372735
-0.0446163
-0.136649
0.233702
-0.424762
0.085236
-0.42387
0.00272744
-0.397566
-0.103939
-0.339107
-0.0395654
-0.0589229
-0.229296
-0.285463
0.050702
-0.104283
-0.0575548
-0.284711
-0.435986
-0.0477523
-0.42191
-0.450752
-0.246571
0.00213008
-0.248566
0.0166895
-0.0334901
-0.285567
0.0221168
0.0618418
-0.427784
-0.113388
0.0187189
0.151889
0.0211864
-0.0373332
-0.198991
-0.403749
-0.035611
-0.0344989
-0.255986
-0.0312327
-0.199073
-0.0363962
-0.437489
-0.355993
-0.0357206
-0.117243
-0.146801
-0.167647
0.0242041
0.0805049
-0.153506
0.0123164
-0.415366
-0.427665
-0.147683
-0.434417
-0.334055
-0.144236
0.00820348
-0.260358
0.00745066
-0.0778486
-0.154098
-0.012682
-0.0615661
-0.289971
-0.370017
-0.439299
-0.331176
-0.174715
0.0093353
-0.309769
-0.254734
-0.149999
-0.433856
-0.301084
-0.184156
-0.186323
-0.166699
-0.412248
0.198896
-0.307645
0.0702056
-0.124505
0.0437303
-0.233164
-0.151496
-0.0679258
-0.145656
-0.264389
0.141172
-0.113237
-0.139046
-0.437216
-0.136023
0.0329141
-0.377542
-0.375994
-0.168373
-0.402023
-0.0544695
-0.0940177
-0.326836
-0.141298
-0.138066
-0.132509
-0.410985
-0.0265296
0.0224238
-0.106486
-0.035991
-0.42664
-0.0379508
-0.369113
-0.123207
0.00561855
0.100301
0.140458
-0.43902
0.021969
-0.0340011
-0.434275
-0.312104
-0.113129
-0.0269125
0.0197361
-0.285088
-0.178981
-0.219902
-0.359738
-0.122513
0.025756
-0.437205
0.0517972
-0.334773
-0.118036
0.159391
-0.16556
0.0148535
-0.0411948
-0.130378
-0.274815
0.281434
-0.157976
-0.0334827
-0.414998
-0.170911
0.0498111
-0.0051535
0.116549
0.00109135
-0.320638
-0.296799
0.00914411
0.0114533
0.0200542
-0.0211142
0.0099261
-0.0409912
-0.372899
-0.141684
-0.00788771
-0.437172
0.0227037
-0.0745975
-0.0828741
-0.43217
0.487543
-0.345444
-0.0725368
0.0189823
-0.434373
-0.00692849
-0.154351
-0.101451
-0.210631
-0.369285
-0.307415
0.0264598
-0.048802
-0.337364
-0.170554
-0.117145
-0.00887243
-0.0449321
-0.284867
-0.104652
-0.119287
0.0413663
-0.0412665
-0.304761
-0.077651
-0.0344681
0.221572
-0.435474
-0.303306
-0.402788
-0.131245
-0.0386436
-0.27927
-0.263611
-0.378985
-0.112753
0.147302
-0.168476
-0.00566026
-0.433577
-0.336657
-0.0220293
-0.20152
-0.162709
0.0105261
0.52289
-0.0771494
0.0593782
-0.370766
-0.21674
0.0190153
-0.163141
-0.42256
-0.003103
0.0169321
-0.219133
0.257713
0.251137
-0.0352024
-0.175763
-0.156318
-0.146719
-0.293945
-0.436376
0.253001
-0.0529082
-0.433448
-0.0864568
0.242878
-0.0590529
-0.151235
0.26677
-0.057172
-0.0177588
-0.121359
-0.428491
-0.428408
0.0178603
0.0408397
-0.41828
-0.0223276
0.439085
-0.154324
-0.0343888
-0.0189806
-0.263004
-0.110512
-0.352562
-0.412705
0.0136223
-0.0653447
-0.142111
-0.0861312
-0.197299
-0.139873
0.182978
0.00852193
-0.0343205
-0.25135
-0.110066
0.0101502
-0.275185
-0.438751
-0.0312062
0.233966
-0.0253038
-0.0678597
0.0292455
-0.270403
-0.424184
0.0530146
-0.026901
-0.403598
-0.0968274
-0.225466
-0.0767576
-0.0641784
0.0425892
-0.0966632
0.0207222
-0.351565
-0.374472
-0.0662507
-0.141239
-0.241036
-0.0730862
-0.155598
-0.364338
-0.123623
0.0121929
-0.404893
-0.307193
0.00657716
-0.142736
0.03106
-0.351923
-0.361948
-0.010653
-0.219436
0.00575282
-0.43663
-0.0866582
-0.168261
-0.144768
-0.138928
-0.038223
-0.368104
0.0217279
-0.101223
0.52594
-0.151526
0.238116
-0.372205
-0.186096
-0.231683
-0.315966
-0.263172
-0.122591
-0.242453
-0.393111
0.0940353
0.341684
-0.291086
-0.0341248
0.2245
0.00345148
0.186683
-0.438517
0.439892
-0.0493594
0.191445
0.0259441
-0.331978
0.000408839
-0.146516
-0.0280453
-0.227013
-0.404173
-0.205006
-0.194313
-0.202421
0.186996
-0.037072
-0.129501
-0.316135
-0.0724014
-0.0238151
-0.0572917
-0.0691306
0.0611984
0.278288
-0.433459
-0.392837
-0.0116579
-0.436825
-0.0805967
-0.142331
-0.196709
-0.219256
-0.343342
-0.0231604
0.287591
-0.358098
0.0983945
-0.319231
-0.0217867
0.0113265
0.0113488
-0.00498009
-0.0866506
0.354243
0.115458
-0.341539
0.130536
0.0209567
0.00942144
-0.41778
0.294568
-0.076275
-0.148077
-0.136945
-0.303895
-0.246089
0.0702216
-0.101555
-0.288528
-0.0179765
-0.0394812
-0.332269
-0.0551082
-0.2701
-0.0279166
-0.0171535
-0.185475
-0.0858185
-0.303147
-0.206806
0.145969
-0.0375585
-0.062961
0.0300476
-0.266163
-0.430732
-0.420801
-0.0416158
0.0106635
-0.0812885
0.0189355
0.0493654
0.0256696
-0.0329549
0.0246433
-0.193982
-0.0514193
0.0102144
0.51045
-0.362972
-0.00506043
-0.389618
0.0459747
0.0596678
-0.382117
-0.242117
-0.0901899
-0.279474
-0.373795
0.452985
-0.033423
-0.365073
-0.304463
0.243441
-0.196576
-0.280669
-0.313544
-0.146856
-0.145993
-0.13161
-0.144027
0.319828
0.0313642
-0.0365223
-0.437396
-0.196894
-0.264472
-0.0125209
0.023919
-0.192893
0.0184308
-0.39382
-0.142132
-0.00769813
-0.179277
-0.36592
0.0613514
-0.306994
-0.378046
-0.327423
-0.308498
0.0149283
-0.10645
-0.188164
-0.273279
-0.272736
-0.438279
0.023437
-0.267113
-0.157054
-0.437153
-0.0425233
-0.00396445
-0.283085
-0.195613
-0.0122215
-0.33888
0.0936687
-0.0468712
-0.0426043
-0.417485
-0.431645
-0.379116
0.00447844
0.0112035
-0.142619
0.0817055
-0.258178
0.349698
-0.201332
-0.128271
-0.0425296
-0.401013
-0.336883
-0.205507
-0.335882
-0.137718
-0.330986
-0.100904
-0.384526
0.0627783
-0.430212
-0.420141
0.0233215
-0.174816
-0.218625
-0.225038
0.0807474
-0.0133817
-0.435386
-0.142553
-0.242621
-0.425436
-0.412837
-0.124792
-0.179313
-0.154538
-0.141891
-0.144021
-0.333334
-0.0139587
-0.295662
-0.321646
0.155954
-0.257512
-0.398575
0.0447949
-0.324217
0.183492
-0.321317
-0.232345
-0.267038
-0.282129
-0.346848
-0.0901478
0.0472381
-0.0266726
0.00196291
0.00447372
-0.3024
-0.267875
-0.0336574
0.0234371
-0.208453
-0.0494665
-0.216818
-0.404586
-0.308498
-0.263636
-0.042433
-0.24497
0.00349409
-0.382245
-0.0391304
-0.275926
-0.421395
-0.179387
-0.204866
0.088314
-0.171609
-0.376424
-0.431693
-0.41921
-0.403143
-0.296571
-0.408848
-0.292144
-0.128235
-0.436231
-0.0247332
-0.0100082
-0.153018
-0.159017
-0.324176
-0.0434332
0.0665304
-0.0350809
-0.172559
-0.213077
-0.12977
-0.0214275
-0.317823
-0.143136
-0.047398
-0.0508888
-0.202657
-0.360572
-0.352927
-0.0229904
-0.236527
-0.0394066
0.0322792
-0.227197
-0.0175933
-0.155331
-0.285232
-0.130305
-0.144346
-0.131399
0.0526978
0.0109466
-0.0927397
-0.280569
-0.125519
-0.0451925
-0.144252
-0.336782
-0.295589
-0.42299
-0.0764502
-0.10087
-0.182004
-0.177225
-0.152149
-0.0104261
-0.0507336
-0.157122
-0.335992
-0.129703
-0.432897
-0.156936
-0.130356
-0.0126808
-0.0254392
-0.267774
-0.0684227
-0.0346276
0.200448
-0.0458042
-0.350185
-0.00633542
0.0102923
-0.0899473
-0.00975295
-0.208143
-0.404743
-0.296775
-0.289716
-0.391672
-0.179054
-0.121549
-0.0112438
-0.16441
-0.308403
-0.0211767
-0.369257
-0.390504
0.49675
-0.245776
-0.312404
-0.250125
-0.00739893
-0.332403
-0.390653
0.317664
0.0846412
-0.432413
-0.160441
-0.0958806
-0.00102835
0.102076
-0.432984
-0.247518
-0.425068
-0.346618
-0.231487
0.473741
-0.424781
-0.211143
-0.213897
0.0106967
-0.216822
-0.0121899
-0.273831
-0.344731
-0.43794
-0.172968
-0.20527
-0.323957
-0.0425938
-0.259375
0.229938
-0.0424206
-0.22939
-0.034132
-0.274746
0.0371116
-0.434278
-0.391542
-0.0208418
-0.0524014
-0.438313
-0.111415
0.444015
-0.131845
0.208031
-0.041883
-0.0694868
-0.000599731
-0.121733
0.504461
-0.390939
-0.310453
0.471082
-0.394908
-0.0339787
-0.231412
0.0466267
-0.118238
-0.205466
-0.324649
-0.413556
-0.183908
-0.0224961
-0.436061
-0.202832
-0.0226174
-0.00600287
-0.283145
-0.418306
-0.36011
-0.115405
-0.372355
-0.361912
-0.00469562
-0.218927
-0.202641
-0.119017
-0.433088
0.472826
-0.242525
-0.260267
-0.439161
0.0374152
0.012039
-0.119319
-0.0261936
-0.438757
-0.0122929
-0.307916
-0.0265283
-0.272585
0.203523
-0.182236
-0.368783
-0.169521
-0.348721
-0.00439873
0.464749
-0.397315
-0.420875
-0.109601
0.0364199
-0.267256
-0.238892
-0.270055
-0.0550124
0.0148819
0.0256113
-0.405185
-0.263337
-0.0628065
-0.166975
-0.241046
-0.00729659
-0.43701
-0.20398
-0.310638
-0.215746
-0.329145
-0.240072
-0.129501
-0.0886029
-0.399423
-0.0250051
0.419271
-0.173911
-0.40907
0.097811
-0.202851
0.0914599
-0.173987
-0.0945491
-0.258744
-0.0931979
-0.302582
-0.0546799
-0.410366
-0.116424
-0.16047
-0.264851
-0.409826
-0.404173
-0.344218
-0.166403
-0.300873
-0.144589
-0.129308
-0.0428179
-0.177821
0.00530974
-0.438096
-0.00931393
0.0314181
-0.242132
0.0263099
-0.0434055
-0.00492004
-0.309048
0.051066
-0.333271
-0.00649968
-0.300764
-0.273848
-0.278778
-0.00771728
-0.38514
-0.0686222
-0.0987831
-0.058432
-0.160128
0.0262492
-0.250953
-0.0159168
-0.436666
-0.303136
-0.0984317
-0.195634
-0.172459
-0.430003
-0.0675795
-0.40868
-0.19713
-0.401778
-0.107863
-0.0834047
-0.192623
-0.394942
0.0190109
-0.281279
-0.331915
-0.0632964
-0.143213
-0.0791274
-0.234896
-0.0966269
-0.0351132
0.0260944
-0.0850619
0.173926
0.0458469
-0.154822
0.0191665
-0.16465
0.215187
-0.281348
-0.160783
-0.00735551
0.313795
0.208445
-0.0425308
-0.18231
0.0409857
-0.349691
0.138875
-0.339643
0.0483201
0.385503
-0.0115562
0.170712
-0.386669
-0.421742
-0.33567
-0.437877
-0.277713
-0.175813
-0.0620651
-0.0535078
-0.253576
-0.311986
-0.397267
-0.434551
-0.00853801
0.506497
-0.0119724
-0.100734
-0.097439
0.202574
-0.0672599
-0.430657
0.511489
-0.253615
-0.434748
-0.193654
-0.279863
-0.164245
-0.100646
-0.00775958
-0.0658535
-0.0873438
-0.111605
-0.178497
-0.159522
-0.0611376
0.0177573
-0.439164
-0.197342
-0.26902
-0.417561
-0.307207
-0.364303
0.187063
0.211042
-0.195078
-0.0923498
-0.0563692
0.125691
-0.229848
-0.0758751
-0.187193
-0.198569
-0.437276
0.027138
0.227749
-0.18437
-0.115471
-0.166578
0.0324424
-0.0778267
-0.243895
-0.178169
-0.254732
-0.0662464
-0.0302165
-0.369906
0.0148671
-0.262995
-0.394818
-0.131496
-0.281392
-0.0680542
-0.133303
-0.0476018
-0.0680028
0.0308663
-0.434887
-0.406945
-0.00725477
-0.216209
-0.350836
-0.0445542
-0.0389756
-0.12775
-0.299486
-0.221952
-0.192819
-0.00668144
-0.0606283
0.112529
0.279799
-0.374107
-0.107188
-0.0507325
-0.0661037
-0.199103
-0.102836
-0.350305
-0.304368
-0.00844832
-0.273261
0.0126715
-0.434549
0.0239704
-0.161042
-0.312795
-0.101219
-0.311985
-0.116985
-0.0686527
0.42101
0.139976
-0.0256452
0.0505044
0.227822
-0.185242
-0.169966
-0.315627
0.0586908
0.0225735
-0.0645629
-0.307079
0.0655626
-0.185344
0.490569
-0.369496
-0.201673
-0.219015
0.0161121
-0.167037
-0.0785766
-0.0448441
-0.0207924
-0.000967372
-0.0629055
0.170828
-0.195516
-0.0127184
-0.102994
-0.399532
0.0241433
-0.36289
-0.03629
-0.0435319
0.0825958
-0.236324
0.389296
-0.363807
-0.136603
-0.0423458
0.105193
-0.008151
-0.436045
-0.120004
-0.307777
-0.350453
-0.378159
-0.0255689
-0.18487
-0.0641221
-0.274647
-0.162106
-0.437308
-0.169368
-0.197711
0.0530097
-0.237763
-0.428782
0.440087
-0.312886
-0.406563
-0.180166
-0.246349
-0.12358
-0.348645
-0.0697542
-0.241319
-0.380884
0.267051
0.0230564
-0.201112
-0.188172
-0.0817055
-0.0666294
-0.424274
0.0220341
-0.279736
-0.163413
-0.248325
0.33948
-0.109844
0.00735358
0.232759
-0.240526
0.0094311
-0.188162
0.452925
-0.34243
0.061423
-0.306017
-0.0061914
-0.425061
-0.0632616
-0.244443
-0.0639425
-0.149231
-0.023901
-0.419443
0.386275
-0.171354
-0.437086
-0.257379
0.0254465
-0.290892
-0.354461
-0.370191
-0.420914
-0.434302
0.0267771
-0.0315057
0.434689
0.0278169
-0.384237
-0.222121
0.117081
-0.437104
-0.141452
0.121636
-0.265885
-0.0920961
-0.262832
-0.435421
0.0857498
-0.133465
-0.164948
-0.0779587
-0.0257389
-0.0672159
0.0528121
-0.0412455
0.015549
-0.327139
0.0142245
-0.0488233
-0.0746084
-0.0129978
-0.0733084
0.0126238
-0.229293
-0.279812
-0.218442
-0.035735
0.372737
-0.342847
-0.0511183
-0.436231
-0.0204488
-0.0765228
-0.150008
0.101257
-0.374495
-0.43008
0.19285
-0.0700315
-0.363725
-0.259363
-0.306622
-0.081021
-0.142488
-0.428097
-0.363005
-0.422907
-0.0580699
0.365386
-0.433241
-0.0275207
0.175658
-0.07449
0.109569
-0.236245
-0.385397
-0.403744
-0.0457408
-0.347554
-0.171478
-0.0364551
-0.112137
-0.0378979
-0.0244998
-0.129116
-0.0447893
-0.405191
-0.140779
-0.436841
-0.251658
0.0141787
-0.012265
-0.0115275
-0.251676
-0.00179562
-0.368564
-0.319803
-0.0319178
-0.0443777
-0.177353
-0.268324
-0.265704
-0.0823096
-0.249566
0.0378294
-0.0684517
-0.203985
-0.0498638
-0.0434675
-0.14801
-0.0136912
-0.37947
-0.217059
-0.0439194
0.08078
-0.170478
-0.0385748
-0.434274
-0.100841
0.00446424
-0.143383
-0.0381921
0.208052
-0.0504224
-0.181836
-0.0676011
0.129634
-0.0925548
-0.154466
-0.042725
-0.424695
-0.437554
-0.10585
-0.0112721
-0.393932
-0.231312
-0.302515
-0.22759
-0.0773329
-0.0522545
-0.0084551
-0.258852
-0.254702
0.334882
-0.237088
-0.14915
-0.120463
-0.185918
-0.0129045
-0.161855
-0.0322348
-0.18222
0.0263095
-0.0149914
-0.0758546
0.00499824
-0.230755
0.133967
-0.269707
-0.302369
-0.150518
-0.429831
-0.0616223
-0.0884531
-0.0356464
-0.392328
-0.0627761
-0.057189
-0.0249592
-0.152918
-0.173534
-0.178785
-0.246117
-0.263817
-0.43692
-0.0352107
0.240205
0.204941
-0.437003
-0.232361
0.0242363
-0.0163738
-0.205359
0.0295308
0.11148
-0.0513349
-0.120134
-0.110464
-0.432933
-0.0344552
0.00292452
-0.391855
-0.428262
-0.160298
-0.0604935
0.00629754
-0.198355
-0.346816
-0.148698
-0.265479
-0.09332
0.101037
0.228843
-0.173293
0.0970181
-0.184312
-0.308503
0.0243945
-0.309652
-0.195635
0.381744
-0.19503
-0.209773
-0.432325
-0.425267
-0.129489
-0.317457
-0.00774113
-0.0992065
-0.293642
-0.147256
-0.207242
0.0179082
-0.245005
-0.321006
-0.298924
-0.226412
-0.165151
-0.0705969
-0.296594
-0.426586
0.0621449
-0.367043
-0.131501
0.0703669
-0.438689
-0.130182
-0.397653
0.15965
0.487583
-0.300427
-0.408033
-0.116368
-0.436106
-0.0530556
0.00112184
-0.165951
-0.0755374
-0.019069
-0.00574564
-0.147169
-0.232913
-0.169423
-0.431446
-0.411747
0.25395
0.0288628
-0.323091
-0.131187
0.046307
-0.382835
-0.232611
-0.0153983
-0.053994
0.134183
0.105534
-0.129864
-0.40814
-0.264021
-0.293758
-0.0674123
-0.236765
-0.0718723
-0.145538
-0.421578
-0.0407566
-0.0106049
-0.130407
-0.0377289
-0.321115
-0.30423
-0.0868754
-0.0393382
-0.117021
-0.0164883
-0.0774541
-0.310895
-0.0502319
-0.259613
-0.328316
-0.0073728
-0.316556
-0.0751086
-0.171454
-0.340285
-0.294338
-0.370158
-0.234872
-0.170163
-0.424345
-0.0221016
-0.437359
0.051824
0.0862793
0.0900884
0.188575
-0.226691
0.150332
-0.346219
-0.283115
0.0154842
-0.299877
-0.437339
0.0263363
-0.240388
-0.0422961
-0.377988
0.468646
-0.28549
-0.176253
-0.438229
-0.144292
-0.196946
-0.26432
0.0684391
-0.242214
-0.425534
-0.436498
-0.021777
0.0436647
0.0653901
-0.333432
-0.0723804
-0.241654
-0.0408826
-0.0467277
-0.0307304
-0.281712
-0.033465
0.00323332
0.159734
-0.304012
-0.0416827
0.0234854
0.349171
-0.00581401
-0.146071
-0.250702
-0.0116662
-0.392476
-0.256389
-0.177406
-0.412736
-0.188293
-0.239622
-0.371161
-0.00763294
-0.0782274
-0.205674
-0.00927826
-0.389737
-0.367245
0.0831231
-0.0182536
-0.431322
-0.396681
-0.23533
-0.26005
-0.0259967
-0.376061
-0.235226
0.0012538
-0.386336
-0.363319
-0.413408
-0.425675
-0.0372439
-0.0652656
0.0258182
0.0308961
-0.0796977
-0.0110145
-0.217506
-0.178118
-0.383195
0.0503021
-0.0744408
-0.0391277
0.0184499
-0.435244
0.132267
-0.422673
-0.262871
-0.0718836
-0.0510402
-0.252547
0.490454
-0.3652
-0.125914
-0.254742
-0.227337
-0.188321
-0.0891518
-0.0434259
-0.399018
-0.0147486
-0.409319
-0.267118
-0.437144
-0.338426
-0.437855
-0.0557396
-0.340548
0.0382704
-0.176148
-0.434507
-0.403121
-0.261301
0.0667003
-0.192921
-0.310702
-0.00182741
-0.404996
-0.248111
-0.371091
-0.436367
-0.400635
-0.0904175
-0.330049
-0.151136
-0.110554
-0.1293
-0.254861
-0.00536689
0.405435
0.0245841
-0.171521
-0.371498
0.0282147
-0.377623
-0.433046
-0.0525773
-0.0384032
-0.0559635
-0.240002
-0.383639
-0.088173
-0.261439
-0.100941
-0.167206
-0.252555
-0.177146
-0.178291
-0.148401
-0.277519
-0.261048
-0.422379
0.104188
-0.315911
-0.349541
-0.185861
-0.0404393
-0.189899
-0.204105
-0.307345
-0.184876
-0.0132066
-0.00508777
0.279101
-0.0558798
-0.297079
-0.0401594
-0.244451
0.0794634
-0.390915
-0.425067
-0.254633
-0.320698
-0.391264
-0.0422031
-0.0676834
-0.125873
-0.385886
0.0045816
0.100432
-0.414387
-0.428393
-0.402717
-0.184698
0.0264546
-0.186558
-0.185766
-0.220136
-0.420936
-0.257714
-0.185198
-0.28542
-0.303655
-0.436441
-0.0357043
-0.0592888
-0.0154387
-0.153305
-0.426766
-0.0272854
-0.0905141
-0.297797
-0.352107
-0.170562
-0.30671
0.480161
-0.256839
-0.299771
0.391578
-0.0295549
-0.369321
-0.2336
-0.436913
-0.0746744
-0.275869
-0.0812974
-0.435063
-0.213531
0.384414
-0.3148
-0.164837
-0.432289
-0.312196
-0.176194
-0.424153
-0.436122
0.00613262
-0.357467
-0.347187
0.11105
-0.235241
-0.0735765
0.0878063
0.0817003
-0.3638
-0.154037
0.10693
-0.175624
-0.00455091
0.130351
-0.393638
-0.438475
-0.344436
-0.24918
-0.0886614
-0.170208
-0.294403
0.0612868
-0.0121677
-0.424484
-0.281038
-0.298765
-0.360598
-0.0940329
-0.319483
-0.114577
-0.164917
-0.0914614
0.106693
-0.404807
-0.327432
-0.246723
0.511925
-0.26166
-0.0962978
-0.43211
-0.28356
-0.337885
-0.247354
-0.0537685
-0.0045584
-0.138766
-0.290818
-0.0323666
-0.0762585
-0.231201
0.00285482
-0.396213
-0.0309308
-0.00362588
-0.0442553
-0.0134766
-0.380178
-0.185556
0.00334055
-0.0709105
-0.0908891
-0.243864
-0.199365
-0.418999
0.165143
-0.406922
-0.016342
-0.415684
-0.132592
-0.199027
-0.329191
0.0179631
-0.0444068
-0.0433865
-0.030066
-0.436066
-0.0683111
-0.0357197
-0.391022
0.468061
0.00533724
-0.0805864
-0.0550577
0.317343
0.447385
-0.412562
0.362
-0.355385
-0.194355
-0.377735
-0.304195
0.0473718
-0.0295073
-0.271765
-0.290304
-0.437204
0.0096357
-0.384546
-0.320528
-0.140055
-0.38192
-0.376896
-0.15504
-0.0668581
-0.435679
-0.200147
-0.0734686
-0.0904973
-0.0304582
-0.332843
-0.207495
0.458633
-0.409249
0.50356
-0.0891548
-0.368191
0.0351832
-0.204526
-0.0373021
-0.201461
0.376535
-0.437127
-0.407771
-0.0157671
-0.125634
0.102843
-0.196901
-0.0654343
-0.218742
-0.413362
-0.14115
-0.246336
-0.0900451
-0.0163489
-0.265055
-0.363145
0.115573
0.38388
-0.144819
0.0163142
-0.190727
-0.40071
-0.148072
-0.343561
-0.177544
0.444775
-0.0349441
-0.276714
-0.0404204
-0.143535
0.00759088
-0.0421479
-0.0923674
-0.402692
0.139457
-0.364031
-0.436782
-0.219039
-0.162056
0.487402
-0.385078
-0.0301084
-0.220643
-0.165337
-0.0395105
0.0135164
-0.148658
-0.27864
0.0831368
0.194845
0.28474
-0.40502
-0.359074
0.103368
-0.233149
-0.3214
-0.0650531
0.502709
-0.0960432
-0.44027
-0.147698
0.462141
-0.117312
0.448421
-0.145563
0.0125777
-0.0669168
-0.0904658
-0.180703
0.0624456
-0.105206
-0.258954
-0.286135
-0.277887
0.181328
-0.385711
-0.153424
0.11734
-0.320796
-0.391146
0.0826508
-0.395951
-0.402253
-0.226823
-0.261165
-0.164173
-0.39038
-0.39199
-0.161478
-0.137242
-0.125513
-0.262324
-0.396125
-0.292437
-0.380776
-0.397572
-0.39952
-0.00176627
-0.417514
-0.193005
-0.422533
-0.11578
-0.0237089
-0.169416
0.457279
-0.375999
-0.325915
-0.339657
0.228713
0.48263
0.224354
-0.112347
-0.0704816
-0.0637321
-0.116729
-0.178425
0.445538
-0.386518
-0.369755
-0.435257
-0.0162399
0.031175
-0.11472
-0.14231
0.0179193
-0.376928
0.187974
-0.251808
-0.414574
-0.0244894
-0.192848
-0.386093
-0.185214
-0.0256291
-0.203388
-0.208588
-0.414094
-0.118489
-0.129105
-0.216957
-0.147408
-0.196129
-0.268465
-0.133757
-0.185151
-0.357864
-0.219337
-0.233475
0.213509
-0.00930249
-0.00966059
-0.314613
-0.212099
-0.375274
0.0124744
-0.344874
-0.213979
-0.37084
-0.0692335
-0.319874
-0.262224
-0.269214
0.440548
-0.236731
-0.240432
-0.0462535
-0.291032
-0.329902
-0.012525
-0.357536
-0.247892
-0.27635
-0.233828
-0.298158
-0.0207994
0.0219953
-0.238122
-0.260789
-0.256437
-0.192355
-0.112455
-0.415548
-0.152275
-0.393569
-0.245535
-0.364043
-0.237052
-0.252794
-0.328955
-0.354303
-0.226401
-0.0481216
-0.254855
-0.346494
-0.136397
-0.351671
-0.0883889
-0.265695
-0.267329
-0.157396
-0.347142
0.135311
-0.00734701
-0.11284
-0.245763
-0.334195
-0.252753
-0.327121
-0.268779
0.0271119
-0.26122
-0.0599386
0.116914
-0.40094
0.0848218
-0.197163
-0.311572
-0.316318
-0.0621769
-0.421671
-0.310466
-0.283591
-0.29428
-0.338253
0.0738295
-0.28565
-0.297332
-0.107188
0.104956
-0.0496754
-0.156169
0.015176
-0.238449
-0.268991
-0.0664663
-0.322254
-0.154767
-0.148764
0.0856665
-0.150915
-0.147108
-0.126555
0.0154663
0.0262579
-0.113736
0.239066
-0.28372
-0.142484
0.430561
-0.133688
0.0167308
0.213731
-0.327701
-0.381814
-0.0424123
0.440735
0.228031
-0.260894
-0.173461
-0.230592
-0.348701
-0.0784356
0.00252118
-0.160658
-0.435066
-0.308505
0.499179
-0.347725
-0.167033
-0.432927
0.0424329
-0.422599
-0.126693
-0.0900303
-0.259645
-0.421946
-0.437368
-0.399583
0.0346453
-0.142794
-0.0776316
-0.0452582
-0.139355
0.00415451
-0.202712
0.513241
0.0663961
-0.235534
-0.307348
-0.39837
-0.110791
-0.197106
-0.416626
-0.120928
-0.165149
-0.0454849
-0.184422
-0.172391
-0.307658
-0.141927
-0.438045
-0.226005
-0.23556
-0.340117
0.0937425
-0.11346
-0.149228
0.00482772
-0.225973
0.481001
-0.224846
0.125758
-0.109504
-0.219872
-0.338658
-0.0475893
0.172793
-0.297531
-0.0659005
-0.18955
0.0213279
-0.0308507
-0.0341119
-0.435168
-0.287064
0.00318252
0.239214
0.211007
-0.257366
-0.139013
0.417333
-0.200408
-0.254736
-0.0987976
-0.182224
-0.427495
0.302867
-0.166126
-0.127995
-0.0430933
0.0804759
0.499651
-0.0599837
-0.419656
-0.14314
0.141363
0.20416
-0.168871
-0.0143399
-0.228975
0.00621121
-0.408243
-0.0457729
-0.160427
-0.118794
-0.204655
-0.0291439
0.0137721
-0.00209638
-0.112197
-0.267425
-0.0596556
0.0278928
0.462354
0.0459222
-0.277326
-0.069863
-0.0175231
-0.43745
-0.438534
-0.00552085
0.0781447
-0.24081
0.137273
0.266177
-0.146969
-0.192123
-0.435712
-0.168547
-0.416208
-0.288585
-0.0462647
-0.293436
-0.0285696
0.0278721
0.0195773
0.315376
-0.19443
-0.341452
0.334032
-0.0481224
-0.157917
-0.0997766
-0.364085
-0.396941
-0.0746471
0.0489961
-0.436773
-0.238035
0.00710233
0.478216
-0.0402599
0.0347764
-0.430303
-0.0335607
-0.23131
-0.294405
-0.16854
-0.187917
-0.190954
-0.412391
0.205763
-0.366421
-0.320023
-0.107799
-0.207596
-0.426635
0.428536
-0.43449
-0.412478
0.0247276
-0.296893
-0.043797
-0.240027
-0.290152
0.0161451
-0.40598
-0.0225908
-0.0142066
0.0558614
-0.0504521
-0.04182
-0.30886
-0.138439
-0.0407308
-0.0484233
-0.0899631
0.0152321
-0.434239
-0.191155
-0.420237
-0.263487
-0.390766
-0.385175
-0.0653637
0.184034
-0.255617
0.405136
-0.398274
-0.174528
-0.0417597
-0.279203
-0.16457
-0.411545
0.499682
-0.126838
-0.0136378
-0.118969
-0.170647
-0.0420785
-0.0433982
-0.360123
-0.177979
-0.377193
-0.251549
-0.0362793
0.494975
-0.278185
-0.0601326
-0.421059
-0.39231
0.0145029
-0.131565
-0.0952058
-0.19778
-0.318695
-0.258586
-0.00349372
0.0328047
0.481581
-0.108687
-0.0901899
0.0440009
-0.21299
-0.127262
0.0465536
-0.29611
-0.14914
0.0814638
-0.249188
0.101084
-0.0323841
-0.357233
0.0136552
-0.383294
-0.200161
-0.1518
-0.17874
-0.0368626
-0.43762
-0.358753
-0.0685858
0.168585
-0.215775
-0.0848634