/*--------------------------------*- C++ -*----------------------------------*\
| =========                 |                                                 |
| \\      /  F ield         | OpenFOAM: The Open Source CFD Toolbox           |
|  \\    /   O peration     | Version:  v2012                                 |
|   \\  /    A nd           | Website:  www.openfoam.com                      |
|    \\/     M anipulation  |                                                 |
\*---------------------------------------------------------------------------*/
FoamFile
{
    version     2.0;
    format      ascii;
    class       surfaceScalarField;
    location    "400";
    object      phi;
}
// * * * * * * * * * * * * * * * * * * * * * * * * * * * * * * * * * * * * * //

dimensions      [0 3 -1 0 0 0 0];
oriented        oriented;


internalField   nonuniform List<scalar> 
22717
(
-0.00178303
-0.0111974
0.0129805
0.000527397
0.107717
-0.108244
-0.0158088
0.017775
-0.00196618
-0.129489
0.172232
-0.0427431
0.0088758
-0.00876085
-0.000114953
-0.334607
0.00649595
0.328111
0.178408
-0.0368405
-0.141567
0.151065
-0.08231
-0.0687546
-0.223507
0.0234073
0.2001
-0.0133748
0.0115918
-0.015783
-2.5827e-05
-0.130275
-0.216126
0.00190143
0.00697437
-0.000451545
0.00264409
-0.00219254
0.000129144
-0.0312918
0.0311627
0.111108
-0.10338
-0.00772791
-0.600227
0.0123217
-0.0101235
-0.0021982
0.283798
-0.446971
0.163173
-0.0086021
0.00891982
-0.00031772
0.00343777
-0.00024605
-0.00319172
0.00453583
-0.00109806
0.104877
0.0735303
-0.417848
0.52522
-0.107372
-0.168876
0.107848
0.0610286
-0.153279
0.0697009
0.0835777
0.0154585
-0.0154585
-0.117294
-0.0359849
0.00452837
-0.00334104
-0.00118733
-0.254872
0.0755103
0.179361
0.0166615
-0.0166615
-0.0316371
0.0393193
-0.00768222
-0.64891
0.45442
-0.0426781
-0.280864
0.323542
-0.287219
0.467622
-0.180402
0.140004
-0.126935
-0.0130691
0.0857945
0.0542096
0.0311543
0.0595974
-0.0907517
-0.0081492
0.00836342
-0.000214226
-0.102822
-0.00220714
0.105029
0.123022
0.00481052
-0.127833
-0.107973
-0.0028369
0.11081
-0.229922
0.363825
-0.133903
0.279908
-0.232434
-0.047474
-0.0151415
0.00025693
0.0148846
-0.106701
-0.30493
0.411631
-0.0111228
0.0128908
-0.00176801
0.00310588
-0.033747
0.0306412
-0.00104622
0.000594679
0.218294
0.019726
-0.23802
-0.572635
0.154786
0.0256797
0.00397
-0.0296497
0.107608
0.0034992
-0.288324
-0.129788
0.37887
-0.249081
-0.175803
0.177391
-0.00158851
-0.0508294
0.0882257
-0.0373963
-0.0044412
0.0301209
-0.000303523
-0.00825052
0.00855404
0.0152234
-0.0157206
0.000497227
-0.00155062
-0.00309109
0.00464171
0.0264573
-0.0233515
-0.00903181
0.13664
-0.127608
-0.198547
0.0605579
0.137989
-0.162723
0.426293
-0.26357
0.238935
-0.36921
0.116367
-0.103156
-0.0132116
-0.0386953
0.00705823
-0.107983
-0.313607
0.42159
0.0137818
-0.479633
0.465852
0.259924
-0.0768329
-0.183092
0.227039
0.0357192
-0.262758
-0.0616972
-0.107179
0.00357479
-0.00168083
-0.00189396
-0.0826363
0.101453
-0.018817
0.004977
-0.00674196
0.00176496
0.123747
-0.000724368
-0.00788632
-0.126114
0.134
0.0246812
0.0161851
-0.0408663
-0.361159
-0.160445
0.521604
-0.0075473
0.000335472
0.00721183
0.0116462
-0.0116462
-0.0088469
-0.000753905
0.0096008
0.145392
-0.148376
0.00298393
0.00677099
0.00989055
0.500657
-0.607359
-0.222216
0.506014
-0.0172783
-0.188332
0.20561
-0.11927
-0.0126877
0.131958
0.00539163
-0.00768171
0.00229008
-0.162332
0.18375
-0.0214178
-0.294443
0.400608
-0.106165
0.0276775
-0.0356007
0.00792321
-0.00865247
0.00834895
-0.229526
-0.072339
0.301865
0.634737
-0.469064
-0.165673
-0.244367
0.209387
0.0349802
0.287779
0.229555
-0.517334
0.257925
-0.619084
0.206279
-0.436201
0.00680736
-0.00183035
-0.130902
0.135899
-0.00499641
0.189708
-0.192263
0.00255536
-0.0482677
-0.285848
0.334116
-0.232861
0.00935365
-0.405878
0.27609
0.112574
-0.011995
-0.100579
-0.00142538
-0.0121326
0.013558
0.177581
-0.118267
-0.0593133
-0.0018627
0.00136864
0.000494062
-0.135227
-0.00536128
0.140588
-0.253442
-0.211516
0.464958
0.133667
-0.349793
-0.0706441
-0.0327355
-0.224129
0.20685
0.10427
0.155654
-0.00962286
0.0373004
0.00785929
-0.00246767
-0.116379
0.00840579
0.00580757
0.00167408
-0.00748166
-0.100522
0.104699
-0.00417751
0.00296305
-0.000992706
-0.00197035
-0.0532114
0.0733596
-0.0201482
-0.155944
0.390684
-0.23474
0.10302
-0.361361
0.258341
-0.0837845
0.0329551
0.369734
-0.611852
0.242118
-0.00434652
-0.179358
-0.187486
0.366844
0.00909167
-0.010345
0.00125337
-0.0138975
-0.00124404
-0.5404
0.514757
0.0256437
-0.0911054
0.105573
-0.0144681
0.130711
-0.138597
-0.51251
0.642123
-0.129613
-0.009632
0.000785104
0.0125817
-0.00805334
-0.10971
0.100678
0.0825202
0.0685444
-0.167204
0.00487181
-0.133888
0.0146178
-0.144363
0.142561
0.00180235
-0.0293268
-0.570901
0.00119373
0.00148263
-0.00267636
0.0649591
-0.0338048
0.00131312
0.00226167
0.00321362
-0.00321362
-0.140734
0.096746
0.0439878
0.00111038
-0.0085222
0.00741182
-0.305935
0.0461614
0.259773
0.0367036
-0.0357502
-0.00095338
-0.263955
0.366975
-0.301678
0.0721522
-0.00489923
0.00400217
0.000897061
0.503327
0.157029
-0.660356
0.0158835
-0.0126369
-0.00324656
0.000160812
-0.00831001
-0.0207131
0.0170905
0.00362265
0.0473794
-0.0496973
0.00231798
0.0135211
0.489806
0.145349
-0.0084264
-0.136922
-0.0713862
0.0181748
-0.146266
0.197772
-0.051506
-0.00718463
0.00818975
-0.00100512
0.0100681
-0.0126066
0.00253848
0.0120202
-0.00195208
0.410434
-0.525049
0.114615
0.0447428
-0.00719416
-0.0375486
-0.00667579
-0.00444698
-0.0230822
0.0921168
-0.0690345
-0.11802
0.0473757
0.0073741
-0.0100218
0.00264772
0.0285
0.0493794
-0.0778794
-0.0438347
0.153155
-0.109321
0.213118
-0.373563
-0.682684
0.372833
0.309851
-0.0698309
-0.00634692
0.0761778
-0.0570932
0.0340109
-0.00126566
-0.0992559
0.073298
-0.117133
0.0447428
0.00163274
-0.00318337
0.194773
-0.223818
0.0290442
-0.0120062
0.20678
0.00107186
-0.00903812
0.00796626
-0.0114271
-0.213378
0.224805
-0.162275
0.0327865
0.00128222
0.0102196
-0.00112794
0.0128026
-0.0166564
0.00385385
-0.132617
0.102783
0.0298345
0.278375
-0.0344736
-0.243902
-0.172853
0.111155
0.0161065
-0.119072
0.102965
-0.00297853
0.00364366
-0.000665127
-0.437269
0.480057
-0.0427873
0.0140264
-0.0132352
-0.000791291
-0.105793
0.380131
-0.274338
0.00615909
-0.00425766
-0.0768466
-0.167521
-0.105347
0.0142417
0.123791
0.017129
-0.14092
-0.0131672
0.0167321
-0.00356492
-0.0159556
0.0166794
-0.00072381
0.0187313
-0.145924
0.127193
-0.376303
-0.30638
0.0721374
-0.00179974
-0.0703377
-0.149967
0.0480345
0.101933
0.0135399
-0.193358
0.179818
0.014016
-0.163953
0.149937
0.169928
-0.383535
0.213607
-0.00337734
-0.00152189
-0.0300471
-0.224825
-0.0656721
-0.0322369
0.0979089
0.0240003
0.0481372
-0.000559601
-0.0015911
0.0382947
-0.158372
0.180235
-0.0218625
-0.0248499
0.00423346
0.0206165
-0.426129
0.270185
0.298509
0.188813
-0.487322
-0.217673
0.0200123
0.197661
-0.369975
0.29257
0.0774055
-0.103805
0.132409
-0.028604
0.112158
-0.139707
0.0275488
0.359763
-0.459821
0.100058
0.00906357
-0.00906357
0.171608
-0.198822
0.0272144
-0.0789574
0.0814357
-0.00247826
0.182552
-0.448834
0.266282
0.450081
0.0900386
-0.540119
-0.000489673
-0.000556551
-0.0240397
0.00505299
0.0189867
-0.000953267
0.115865
-0.16042
0.0445547
-0.0995547
-0.162582
0.00420951
-0.647934
0.429839
0.218094
0.0827796
-0.0666732
-0.0126326
0.00969236
0.0029402
0.0899726
0.087608
-0.00220901
0.0012163
-0.20444
0.191758
0.0126819
-0.0165118
0.00334459
-0.267306
0.565969
-0.298663
0.142928
0.160224
-0.303152
-0.00370921
0.0332166
-0.0312146
-0.002002
0.0336559
-0.000439239
-0.0184174
0.00246176
-0.0125883
0.0131651
-0.000576845
-0.507762
-0.0326385
-0.1622
-0.201223
0.0549567
-0.0128314
0.0133277
-0.000496341
-0.172153
0.00494948
-0.0086956
0.0102382
-0.00154261
-0.447033
0.460815
-0.0989766
0.117708
-0.0144413
0.0144413
0.340058
0.223758
-0.563816
-0.478483
0.129304
0.349179
0.0437065
-0.378314
-0.336094
0.228112
-0.503083
0.0425896
0.460493
-0.00615462
0.053534
0.00740585
-0.00674804
-0.000657814
0.00117879
-0.205655
0.362426
-0.156771
0.0441742
-0.044045
-0.00862836
0.00970022
0.000139331
0.00726652
0.473629
-0.291077
-0.00399294
0.00517904
-0.0011861
0.171628
0.0695214
-0.24115
0.34131
-0.281376
-0.0599347
0.0187499
0.114717
-0.133467
-0.0393948
-0.159152
-0.0296148
0.00264409
-0.00499193
-0.00197508
0.00696701
-0.388261
-0.0329595
0.42122
-0.16326
-0.00889351
0.26674
-0.263349
-0.00339116
-0.00582207
0.00693245
0.0137706
0.00211286
-0.307881
-0.00975444
0.317636
-0.26213
0.205807
0.0563229
0.390157
-0.241033
-0.149124
0.0114454
0.000574794
0.038047
-0.33249
-0.0154863
-0.0880046
0.103491
-0.0325325
-0.0771927
0.109725
-0.273982
0.109983
0.163998
-0.0224333
-0.367336
-0.111147
0.014468
-0.12571
0.111242
-0.380415
0.0931961
-0.0102787
0.00158307
0.314643
0.0760416
-0.00852354
-0.00410902
0.169539
-0.11486
-0.0546794
0.068463
-0.0776067
0.00914367
0.469921
0.076473
-0.546394
-0.00807989
0.0327611
0.0112241
0.000221285
-0.275101
-0.0803293
0.0889909
-0.00866159
-0.0453318
0.1807
-0.135368
0.00885676
-0.00964826
0.000791504
-0.331724
-0.0170368
0.348761
0.142625
0.00276724
0.00829433
0.0649441
-0.0732384
-0.0864982
0.00616881
0.438414
-0.147579
-0.290836
0.116715
0.204913
-0.321627
0.00442952
-0.00551108
0.00108156
0.0997624
-0.128167
0.0284048
-0.0280162
0.0039765
-0.118322
-0.0142954
-0.355977
0.193254
0.00981025
-0.00981025
-0.00402405
0.00231256
0.00171149
0.0328736
0.175007
-0.20788
-0.00471831
0.00134097
0.0101765
-0.000309566
-0.00986691
-0.0733456
-0.00561178
0.076119
0.19563
-0.271749
-0.112537
-0.193398
-0.30614
0.564065
0.100217
0.069322
-0.273768
0.207379
0.0663894
0.0786831
-0.111237
0.0325534
-0.0624699
0.0999681
-0.0374982
-0.000286047
-0.130616
0.142416
-0.0186248
0.000713593
-0.00470654
0.00651585
0.00894262
-0.0141721
0.0154341
-0.00126193
-0.0353679
-0.140435
-0.149773
0.141508
0.00826513
0.390901
0.165861
-0.556762
-0.138658
-0.0111143
-0.269638
0.0775852
0.192053
0.107593
-0.152925
-0.310467
0.267789
0.122606
-0.127078
0.00447181
0.570353
-0.193834
-0.376518
-0.00187414
0.00377772
-0.00258399
0.0107011
-0.0018443
-0.0375639
0.264603
0.0528931
0.0392237
0.0158366
-0.0165331
0.000696516
-0.0901063
0.388615
-0.000375977
0.116127
-0.115751
-0.169315
0.184684
-0.0153692
-0.136965
0.191222
-0.0542576
-0.153051
0.157869
-0.00481808
-0.0876367
-0.220244
0.141184
-0.179687
0.0385035
0.258564
0.00817661
-0.0686801
0.0898464
-0.0211663
-0.138402
-0.011565
0.0107505
-0.00953106
-0.0105958
-0.0101173
0.178135
-0.0369518
0.284307
-0.276374
-0.00793354
0.674405
-0.247617
-0.426788
0.0758195
-0.00735652
-0.0185429
0.236836
0.172796
-0.183883
0.0110878
0.0357758
-0.0369116
0.00113586
0.262542
0.175872
0.111872
0.0332904
-0.0400378
0.00674747
-0.135133
-0.234842
-0.0229532
-0.0415342
0.0644874
-0.0026721
-0.00204621
-0.0778422
0.468743
-0.0746888
-0.199293
-0.0106461
0.0112729
-0.000626829
0.0767657
0.0396017
0.194622
-0.206049
0.258901
0.214728
-0.142993
0.00776696
0.0842582
-0.0557582
0.0996766
0.0135151
-0.113192
0.000128992
0.367326
0.098609
-0.465935
0.227078
-0.0554497
0.49161
-0.232709
0.117954
-0.0182777
0.0962017
-0.0914956
-0.00470616
-0.0961618
0.127545
-0.0313834
0.125955
-0.00334901
-0.298429
0.220568
0.0778612
0.131556
-0.0899731
-0.0415833
0.0104052
-0.0133813
0.00297608
-0.145285
-0.00776546
-0.166002
0.0207164
0.00226885
-0.00708119
0.00481235
-0.216398
0.292517
-0.0514243
-0.23694
0.288365
0.141631
0.0162377
0.0673001
-0.0928407
0.0255406
-0.0373506
0.0256151
0.0117356
0.0835664
-0.034404
-0.0491623
0.0839287
-0.116461
0.140369
0.00225593
0.0069462
0.0135654
-0.000636504
-0.0012262
-0.114308
0.131024
-0.0167162
0.0071642
-0.00273468
-0.00250235
-0.0015217
-0.304245
0.044513
0.259732
0.0421848
-0.00529583
-0.036889
-0.00613399
-0.138229
0.180346
-0.0289547
-0.151391
-0.016676
0.0164011
0.000274947
0.00352865
0.329807
0.119883
-0.132571
-0.101008
0.0487778
0.0522306
0.13503
0.00647802
0.00648873
-0.0063719
-0.000116824
-0.269239
0.270608
-0.00136952
-0.0142889
0.0142889
0.0017954
0.00971002
-0.0115054
0.0968615
-0.11382
0.016959
0.0104408
0.00409635
-0.0145372
0.00301142
-0.0120065
0.00899508
0.000794043
-0.000272649
-0.000521394
-0.030788
-0.109946
-0.0121306
0.0108008
0.00132979
-0.0176307
-4.54035e-05
0.0176761
0.480935
-0.0463924
-0.434542
0.225779
-0.405137
0.0990239
0.0262112
-0.125235
-0.00907149
-0.000194564
0.00926605
0.167773
-0.43562
0.267847
0.118297
-0.0396142
0.00309931
0.172403
-0.175502
0.0117212
-0.082781
0.0710599
-0.00721022
-0.00139188
0.154007
-0.0189771
-0.166958
0.00437599
0.0827467
-0.0998892
0.0171425
-0.00258078
-0.0839197
0.0152396
0.14594
-0.0300748
-0.210091
0.229817
0.00415995
-0.0132605
0.00910053
-0.00406068
0.00822063
-0.212393
-0.112959
0.325352
0.00292764
0.00160819
-0.00158404
-0.000624964
-0.157636
-0.0093216
-0.0024382
-0.0293263
0.119149
-0.0898227
0.021318
-0.12414
0.0133776
-0.00297242
-0.189973
0.0530083
-0.187438
0.220312
-0.210209
-0.0166986
0.226908
0.246447
-0.35224
-0.129788
0.0389082
0.0908799
0.0644222
-0.0561278
0.00943849
-0.125278
0.125806
-0.105514
0.00235775
0.32196
0.0453662
-0.577959
0.338686
0.239273
-0.349004
0.0172802
0.00198511
0.00711605
-0.00910115
0.0384983
-0.00520799
-0.00908593
0.00943285
-0.000346918
-0.0047954
0.00678051
-0.136265
0.0324606
-0.013726
0.0137765
-5.05584e-05
0.2064
-0.231523
0.0251229
-0.00857598
0.00102868
-0.272902
0.0107724
0.386286
-0.461142
0.0748563
0.554484
-0.296665
-0.257819
-0.00430578
0.0835622
-0.0792564
0.257579
0.230507
-0.488086
0.0044983
-0.00204186
-0.00245645
-0.572797
0.302598
0.270199
0.0442234
-0.211537
0.167314
-0.512617
0.0924418
0.420175
-0.0618868
-0.0391216
0.0382428
0.0594303
-0.0976731
-0.581551
0.275411
-0.162163
-0.136266
0.140551
0.0752679
0.105078
0.0415094
0.117152
-0.158662
0.000772439
0.00571629
0.241135
-0.318077
0.0769427
-0.11081
-0.113709
0.0145692
-0.00412837
0.00119376
-0.197952
0.196758
-0.203755
0.420758
-0.217003
3.44284e-06
0.212892
0.0802788
-0.293171
-0.0295446
0.141203
-0.111659
0.0725892
-0.00528911
0.35124
0.323165
0.497087
0.016477
-0.0162209
-0.000256101
0.125932
-0.0111797
-0.114752
-0.0143624
-0.0992918
0.113654
0.220441
0.0770983
-0.297539
-0.114463
0.13787
-0.17168
-0.197042
0.368722
-0.0493626
-0.0077306
-0.0766508
0.0817991
-0.00514829
0.618894
-0.349647
-0.269247
0.00115229
-0.0665731
-0.0258613
0.0924344
0.00340216
-0.00176941
0.00598665
0.000820708
0.214758
-0.316621
0.101863
0.0633215
-0.0676273
0.0256188
-0.0318802
0.00626141
0.00134077
0.00757026
-0.00891103
-0.016482
-0.00114872
0.249851
-0.0434515
-0.00930658
-0.0246232
0.0339297
0.0630065
0.0685499
-0.0189417
0.118704
-0.00351979
0.00276341
-0.00300946
-0.0133716
0.0124184
-0.00548856
0.00530049
0.000188075
0.00484417
-0.00336132
-0.00148286
0.00131689
-0.00440798
0.0431035
0.267567
-0.266373
0.25689
-0.252845
-0.00404463
-0.0151713
0.177739
-0.162568
0.541614
0.0383132
-0.579927
-0.102446
0.123764
-0.158363
0.160842
-0.00247874
0.0129627
-0.000663656
0.118351
-0.148477
0.0301261
0.149614
-0.141881
-0.00773268
0.104611
-0.133937
-0.035453
0.00423843
-0.0156445
-0.00267038
0.0183149
0.00623101
-0.00189833
-0.00433268
-0.12966
0.115241
0.0144197
-0.107136
0.041464
-0.331763
-0.246196
0.280087
-0.273258
-0.00682991
-0.022148
-0.00711811
-0.154605
0.161723
-0.0285492
-0.00690388
-0.37124
0.0962618
0.274978
0.221847
0.0099792
-0.231826
-0.136915
-0.000827531
0.137742
0.00379622
-0.0175222
-0.103911
0.111471
-0.00755995
-0.00115302
-0.00652928
0.00768229
0.0177401
0.105827
-0.123567
0.00694603
-0.00094004
-0.00600599
0.245971
0.221651
-0.237568
-0.0362003
0.467941
-0.145495
-0.0167808
0.0027447
0.00341439
-0.170799
0.155628
0.00347936
-0.0283293
0.218861
-0.422616
0.169044
0.0428238
-0.211868
-0.00664023
0.0012914
0.00534882
0.107964
-0.496225
-0.0231826
0.113155
0.00761676
-0.00582137
0.00604607
0.00627566
0.000312426
-0.0164123
0.0160999
-0.245747
-0.180382
-0.297052
0.222364
0.101582
-0.218357
0.116775
-0.000247763
-0.0310441
0.0824042
-0.100455
0.018051
-0.213847
0.0178163
0.196031
-0.0134133
-0.46622
-0.562703
0.0501925
0.287828
0.266656
0.0753255
-0.0794115
0.00408602
-0.146928
0.141418
0.00550981
0.00983116
-0.00771391
-0.00211725
-0.000655345
-0.00483322
0.0217695
-0.260755
0.238986
0.155386
-0.0630673
-0.0923184
0.285124
-0.00674887
-0.11054
-0.193704
0.0539274
-0.0345529
-0.0193745
-0.350678
0.0194658
0.331212
0.00176764
0.228162
-0.22993
0.00576231
-0.00198459
-0.310847
-0.20177
-0.011706
0.0125923
-0.000886285
-0.00416504
-0.0724857
0.107095
0.102676
-0.117039
2.55665e-05
0.0314332
-0.00581441
0.243766
-0.122922
-0.120844
0.037641
-0.0469476
-0.0123535
0.0820544
-0.205703
0.0160732
0.189629
-0.103119
0.472853
0.152361
0.0204344
-0.155538
0.159216
-0.00367801
0.0294081
0.0245193
0.136969
-0.213802
-0.618899
0.305505
0.313394
-0.00853733
-0.0288133
-0.027212
-0.410057
-0.0222145
-0.00529946
-0.0246428
-0.021501
-0.115414
-0.000596341
0.00236359
-0.224538
0.222175
-0.610142
0.337462
0.27268
0.471745
-0.223777
-0.247969
0.202177
-0.0549264
-0.147251
0.33995
0.278945
-0.00368504
0.00669645
0.278704
-0.0658116
0.145121
0.00449216
-0.0154482
0.0151174
0.00033082
0.548628
-0.0424993
-0.506129
0.0739
-0.294194
0.220294
-0.00274169
-0.0127065
0.185532
-0.163057
-0.0224749
0.000395047
0.0565376
-0.0569326
0.0265459
-0.0278444
0.00129851
0.191872
0.198285
0.0107084
-0.0747744
0.405183
-0.330409
-0.00799323
-0.00538805
0.0706174
-0.111344
0.0407266
0.0152259
0.01916
-0.115322
0.00774719
0.000112105
0.00052821
0.0713247
-0.086811
-0.106748
-0.192994
0.495771
-0.302777
0.0246971
-0.0206701
-0.0457269
0.066397
0.00576304
-0.000894345
-0.00486869
0.163153
0.0216808
-0.0156347
0.226614
-0.0100941
0.00862037
-0.21883
-0.00100347
0.451804
-0.0920407
-0.142264
-0.228976
0.138333
-0.105996
-0.0323368
-0.120844
0.138584
-0.320388
0.114733
0.193486
-0.229643
0.0361563
-0.383056
0.240791
-0.0477043
0.00651027
-0.00766329
-0.0342492
-0.179598
-0.0162071
0.016821
-0.000613919
0.00435345
0.00446478
0.000379393
0.355065
-0.0213928
0.00574832
-0.0956056
0.238533
-0.133425
0.583506
-0.139158
0.133445
0.00571351
0.178665
-0.165125
-0.206085
-0.00673919
0.212824
0.0085879
-0.00555519
-0.00303271
-0.226863
0.228631
0.110028
0.0921486
0.113289
0.00749853
-0.120787
0.0750086
-0.391745
0.316736
0.207608
0.34102
-0.0128593
0.00486609
-0.0730442
-0.00475097
0.0777951
0.468941
-0.181162
0.161121
0.409232
-0.135127
0.153877
-0.508946
0.410077
0.0988684
0.000197993
-0.158094
0.134911
0.00604234
0.00170484
-0.0348083
0.0372085
-0.00240014
0.425352
0.0469411
0.105599
-0.152541
0.00249728
0.013836
-0.0163333
-0.127176
0.173124
-0.0459473
-0.592959
0.296293
0.0999626
0.00123427
-0.101197
0.218008
-0.0489635
0.376207
0.0742246
-0.0213315
0.00537212
0.00321577
-0.202421
-0.00201868
-0.00156836
-0.00141017
0.117853
-0.0188293
-0.216136
0.0137152
0.443631
0.127374
-0.571006
0.0111482
-0.047612
0.0364638
0.0177544
0.425877
-0.223152
0.147101
-0.140979
-0.0061226
-0.287746
0.606297
-0.318551
0.337972
-0.24171
-0.148252
0.00909349
-0.0902543
0.00954912
0.0807052
0.00169573
0.00995043
0.00380357
0.00149692
-0.0662425
0.0743581
-0.00811563
-0.12594
-0.322656
0.448596
-0.00689599
0.00190406
-0.0133716
0.00415208
0.167592
-0.171744
-0.00790328
0.00800644
-0.000103166
-0.026835
-0.0896096
0.116445
-0.106358
0.111099
-0.00474081
0.0119396
0.0509591
-0.00632508
0.00824633
-0.00192125
-0.105166
0.101296
0.00387039
-0.00868214
0.00940741
-0.000725268
0.00786935
0.0920932
0.211693
-0.0366861
-0.0254589
0.0945373
-0.0690783
0.0828737
0.0554594
0.0656304
0.00287505
-0.0685055
-0.191695
0.371154
-0.179459
-0.0944552
0.108471
-0.00260635
0.00998045
0.100551
-0.122747
0.00614943
-0.219527
0.000941007
0.0096665
-0.000144477
-0.00952203
0.000258201
-0.000506551
-0.217605
0.334319
0.0936196
0.0249407
-0.11856
0.0106413
-0.000421701
0.000157867
-0.0129266
0.0127687
0.0164027
-0.00109923
-0.0153035
-0.402937
0.17169
0.231247
-0.0490697
0.0733011
0.0820846
0.00030437
0.000500124
3.89142e-06
-0.000504016
-0.197126
0.236725
-0.0395991
-0.00898778
0.0026627
0.00393696
0.510998
-0.514935
0.0554135
0.0281529
0.228708
-0.0112153
-0.217493
0.000564225
-0.206267
-0.00202705
-0.00809648
-0.367379
-0.000211118
0.00597282
-0.0057617
0.216506
-0.223796
0.00728936
-0.02982
0.164743
-0.16937
0.00462676
0.12254
-0.130966
-0.00239226
-0.0092539
0.458317
-0.561436
-0.359622
-0.0759984
0.00703236
-0.00842719
0.00139483
-0.000566441
-0.0136057
-0.00967594
-0.524563
0.257257
-0.202292
0.00893424
-0.000498721
-0.0114432
0.0119419
0.163418
-0.159181
-0.00423692
0.00247008
0.00659349
0.0379158
-0.0311888
-0.00672701
-0.213194
-0.00447922
0.540871
-0.253043
-0.00111451
0.00338335
-0.0850144
0.0595555
-0.00183463
0.0056382
0.225806
-0.223443
0.112913
-0.156613
0.159258
-0.00264424
0.151432
-0.532684
0.51927
-0.216508
0.0193817
-0.0658258
-0.0623415
-0.0423405
0.0427355
0.132324
-0.135098
0.00277359
0.542963
-0.0282064
-4.96653e-06
0.01572
0.0596055
-0.108764
-0.191716
0.30048
0.0206267
-0.371305
0.163757
-0.161326
-0.00243153
-0.485761
0.274245
0.0469843
0.054469
0.107619
-0.134454
-0.354878
-0.0670273
0.421905
-0.188282
-0.195253
-0.306694
-0.305158
0.329196
-0.244387
-0.0848091
-0.493808
0.2543
0.239508
-0.441679
-0.131118
0.0377644
0.00185755
-0.039622
0.0242235
-0.157386
0.133162
0.138894
-0.146012
0.0102364
-0.000569878
0.00114159
0.457175
0.160611
0.239997
0.0790481
0.2155
-0.294548
-0.0219109
0.0264156
-0.00450478
0.0151353
-0.0165607
0.00419435
-0.00126671
-0.181159
0.233958
-0.0527988
-0.606746
0.300052
-0.000870919
-0.373028
0.0921638
-0.00237572
0.00440848
-0.00203276
-0.220568
0.229189
0.133426
0.0187026
-0.152128
-0.114774
-0.00160501
-0.0119189
0.0127144
-0.000795481
0.0913704
0.243239
-0.33461
-0.104994
0.426232
-0.321237
-0.00250462
-0.0167178
0.0168757
0.196441
-0.245102
0.0486612
-0.17983
0.176848
0.00298169
-0.41521
-0.00946142
0.124702
0.243933
-0.0504462
0.250273
-0.0538316
-0.259541
0.0354122
0.423647
-0.121049
-0.00153759
-0.0103813
-0.212702
0.0467102
0.165992
0.570695
-0.409575
-0.00991756
-0.0300547
0.0399723
0.00215206
-0.00879033
0.00663827
-0.0124178
0.0124178
-0.000130445
-0.154425
-0.00614764
-0.301653
0.481733
-0.180079
-0.0107655
0.140097
-0.0253801
-0.120588
0.0303335
0.0201189
-0.207557
0.130038
0.0271364
0.00976355
-0.189594
0.00700323
0.00100321
-0.0328157
0.133379
-0.100563
-0.0927819
-0.168153
0.0114239
0.156729
-0.00436639
-0.151834
0.156201
-0.165503
0.320905
-0.155402
-0.0013459
0.00455952
-0.115338
-0.213641
0.328979
0.203151
-0.19049
-0.0126611
0.00505152
0.00211268
-0.0313911
0.0324131
-0.00102209
-0.248346
0.323355
-0.00169728
0.00393007
-0.00223279
0.00270491
0.00305813
0.462894
-0.540736
0.306537
-0.233361
-0.0731761
0.0161767
0.106494
-0.122671
-0.0369604
0.0270428
0.0358675
-0.270993
0.500548
0.0271159
-0.184733
0.157617
0.221458
-0.208762
-0.0126953
-0.0259471
0.0303568
-0.00440969
-0.00366875
-0.0030732
-0.00118207
0.00572523
-0.00454317
-0.0460251
0.0577462
-0.297268
-0.105669
-0.00206174
-0.0812372
0.00969453
-0.0875225
0.077828
-0.209438
0.284245
-0.0748063
0.00770879
-0.00245464
0.0446394
0.0692653
-0.570986
0.606366
-0.0353791
0.236855
-0.0203488
0.0156721
0.00600868
-0.00832025
-0.0225754
0.0308956
-0.361305
0.252802
0.0618409
0.000276131
-0.00632174
0.00604561
-0.17826
-0.227004
0.405263
0.0301698
-0.014015
-0.0161549
0.0527471
-0.084984
-0.19544
-0.308786
0.504226
-0.45354
0.138362
0.315178
-0.0152433
-0.219351
0.225501
0.0010401
0.00984098
-0.0108811
-0.0488534
0.0496446
-0.000791278
0.121106
0.220205
0.28335
-0.0925841
-0.190766
0.129744
0.0242628
0.238325
0.0459822
0.157292
-0.000154356
-0.157137
-0.00994564
0.139689
0.132631
-0.0298219
-0.102809
0.0492401
-0.404118
-0.466433
-0.00286496
-0.00160093
0.00446589
-0.191768
0.211887
-0.261377
-0.232431
0.00171692
0.00404539
-0.00227447
-0.00518392
0.00745839
-0.306055
-0.0342137
0.340269
0.0425425
-0.00440449
-0.038138
-0.22569
0.444551
0.126365
0.156985
-0.119888
0.308554
-0.188666
0.000256401
-0.00940411
0.00914771
0.00829607
0.000257081
-0.00855315
-0.0594587
0.274217
-0.294414
0.0180032
0.276411
-0.00566898
0.00617427
-0.00050529
-0.122447
0.151809
-0.152637
0.233015
-0.281282
-0.107981
-0.030003
0.137984
-0.295531
0.285489
0.0100417
0.0274322
0.181955
0.293827
0.086304
0.0142194
-0.133291
-0.00467619
-0.00566884
0.216143
0.196475
-0.183668
-0.012807
0.00113699
-0.147097
-0.147097
0.0031674
-0.0154611
0.0122937
-0.0210013
0.117863
-0.0373623
-0.195498
0.3294
0.182265
-0.511665
0.000542957
-0.00621194
-0.120678
0.091388
0.0292899
0.451993
-0.402752
-0.00867403
-0.1099
0.118574
-0.337492
-0.112807
-0.0217139
0.134521
-0.00111903
0.0130738
-0.0119547
0.33783
0.26764
-0.60547
0.0347626
-0.00755331
-0.0272093
0.380051
0.0719413
0.00766984
0.00256655
-0.0743796
0.11652
-0.0421401
0.091758
-0.076038
-0.0196608
0.000227475
-0.463936
0.162282
0.00530464
-0.000253122
-0.43861
0.0205397
0.41807
0.017977
0.238913
-0.000363704
-0.00284992
-0.00305144
-0.00159811
0.00464956
0.0546873
-0.0987644
0.0440771
-0.00227341
0.00117811
-0.00445401
0.0032759
0.116535
-0.0657376
-0.0507971
0.00217244
0.0132616
-0.0248122
0.0359603
0.0123168
-0.0270773
-0.00302101
0.0300983
-0.110599
0.0872852
0.0233139
0.0946825
0.108986
-0.203668
0.0336025
0.0223779
-0.0559804
-0.106452
-0.041924
0.0158478
0.527115
-0.113981
0.0293585
0.0846226
0.13037
0.0229501
-0.15332
0.0623794
0.0702518
-0.0141491
0.0117568
0.0215851
-0.0311434
0.00955825
0.376047
-0.138093
-0.237955
0.0643076
-0.023529
-0.0407787
-0.30266
0.0834206
0.219239
0.0960781
0.0119841
-0.108062
0.361457
-0.480372
0.118915
0.0133127
-0.0108154
0.382344
0.183625
0.000100322
-0.00712457
0.00702425
-3.43432e-05
-0.00855928
0.00859362
-0.00588944
0.125773
-0.119681
-0.0060293
-0.00331253
0.0132032
-0.00989069
0.0827518
-0.512905
0.407064
0.10584
-0.0330141
-0.130939
-0.0122689
0.0419474
-0.116327
-0.526832
0.481511
0.0453209
0.0344355
-0.335181
0.143486
0.0952276
0.0770044
-0.0677775
0.0374064
0.00347495
-0.00218355
-0.000123225
0.0113979
-0.0112747
0.341095
0.259948
-0.601043
0.00538092
-0.00504545
-0.0468335
-0.122482
0.111415
-0.120089
-0.0115827
0.0765268
0.00337155
-0.0637744
0.119254
-0.0554795
-0.382868
-0.143964
0.073537
-0.0241576
0.00310749
0.196265
0.00498857
0.00945273
0.512319
-0.435846
-0.1275
0.4569
-0.386324
0.0154418
0.370882
0.150582
0.417412
-0.567994
-0.0304981
0.323068
0.0486345
-0.0150321
0.134803
0.102977
-0.155468
0.0238572
0.131611
0.0127861
-0.451396
0.178137
-0.34364
0.00590028
0.00234605
-0.0389159
0.029293
-0.349369
0.153589
0.19578
0.156593
-0.00449687
-0.152096
0.000262093
0.000701317
0.0317882
-0.0225564
-0.00923177
0.0195904
-0.165085
-0.0124764
0.121685
-0.109208
-0.0109017
-0.259995
-0.193545
0.256267
-0.220547
0.109324
0.0265744
0.349495
0.122251
0.0104505
-0.0101941
-0.559509
0.0904453
-0.521536
-0.0494503
-0.00403391
0.00521202
-0.222928
0.146082
0.125278
-0.0194511
0.000577398
0.00129349
-0.00187089
0.153707
-0.0531561
-0.256327
-0.312265
0.140585
0.130606
0.00286586
-0.00486801
0.00200215
0.0107129
-0.00706925
-0.0134457
-0.000518869
0.0139646
-0.493426
-0.453351
-0.222901
0.301949
-0.318279
-0.288466
0.0387463
-0.2399
0.373117
-0.133217
0.588082
-0.498043
0.337817
0.132873
-0.159986
0.0271132
0.0994822
-0.413089
-0.464401
0.33846
0.00670725
0.00312391
-0.0011374
0.00952574
-0.00838835
0.211361
0.0127798
-0.224141
0.000361356
-0.370307
0.245094
0.125214
-0.197837
-0.00824779
-0.000144968
0.0134125
-0.0132675
0.0748619
0.0416727
0.1214
-0.191302
0.0699022
0.00780681
-0.00367287
-0.00413394
-0.0144269
0.000572029
0.0138549
-0.0260223
-0.0019939
0.389603
0.0969938
-0.486597
-0.112914
-0.00185942
0.00352947
-0.0109347
0.00740525
0.0643818
0.0141233
-0.0104779
-0.00364541
0.0051759
0.00263091
-0.00550089
0.00352581
0.0812948
-0.0156643
-0.203127
0.245951
0.200142
0.0365834
-0.0124532
0.0528294
-0.022906
-0.0299234
-0.208367
-0.079868
0.288235
-0.0439635
-0.00929409
0.0101711
-0.000876995
0.137137
0.00856326
-0.1457
-0.00612455
-0.00389727
-0.570636
0.28289
0.444868
0.142683
-0.587551
0.001264
-0.101511
0.119769
-0.0182574
-0.00604801
0.00592479
-0.17846
0.0152677
0.163192
-0.604116
0.316246
0.28787
-0.107321
0.00394735
0.103373
-0.0359617
0.00477287
0.00531375
-0.0586363
0.0968792
-0.0675418
-0.053046
0.107759
-0.0116805
0.00911221
0.00069804
0.282804
0.0237323
-0.000934865
0.147352
0.00689352
-0.154245
0.100099
-0.10242
0.00232094
0.00190288
-0.129857
0.127954
0.00566229
-0.00793677
0.44601
-0.12809
0.129993
0.00162645
-0.00623672
-0.00922175
0.530575
0.0185148
-0.54909
0.0290775
0.433816
-0.0968429
0.108612
-0.0117689
0.163134
-0.0302613
0.361424
0.265131
-0.626555
-0.00939581
0.0133393
-0.00394346
-0.069641
0.178627
-0.155104
-0.250774
0.122166
-0.606885
0.484719
-0.00737027
0.0076464
0.0123614
-0.0133424
0.000980982
-0.00566444
0.00588727
-0.000222831
-0.612403
0.28064
0.431525
-0.0337189
-0.397807
0.00999308
-0.104159
0.0401884
-0.0745924
-0.00221137
-0.139295
0.141507
-0.032372
-0.00474877
0.0371208
0.165815
-0.15371
-0.0121054
-0.213632
0.21194
0.00169269
-0.573665
0.544339
-0.00912384
-6.8699e-05
0.00919253
-0.126842
-0.0267258
-0.00583163
0.0325575
-0.00131735
0.0121768
-0.0108595
0.154946
-0.130723
0.0290132
0.0901358
-0.213764
-0.0292865
0.243051
-3.18756e-05
0.0111101
-0.0110782
0.106764
0.0344392
-0.00139787
0.00392356
-0.0025257
0.00169815
-0.0151439
0.300259
0.296756
-0.172254
0.00996033
0.162293
-0.0316797
0.165105
-0.00690009
-0.00423561
0.0111357
-0.0720436
0.248008
-0.175964
0.637225
-0.325632
-0.311593
0.00866233
-0.20518
0.0215114
0.00471087
0.00825482
4.12547e-05
0.0153936
-0.015318
-7.55972e-05
0.0175631
-0.214906
0.197343
0.00372277
-0.0699653
0.0319858
-0.00484068
-0.0271451
0.0913538
0.152413
0.00378114
-0.00127716
-0.00250398
0.0185615
-0.00470822
-0.270539
0.275247
0.0126075
-0.0120466
-0.000560893
0.0156762
-0.00792289
-0.00775327
0.0413544
-0.0641549
0.0721508
-0.0079959
0.00157723
-0.0985404
-0.271767
0.00762246
0.00805371
-0.097983
0.00271044
0.0952725
0.00263601
0.00628381
-0.159013
0.13096
0.028052
-0.00168652
0.00455238
-0.107612
0.0107693
0.00419637
-0.117004
-0.218752
0.145556
-0.383842
0.238286
-0.193556
-0.224914
0.41847
0.237935
-0.614239
-0.336626
-0.275777
0.0021046
0.0739472
-0.116237