/*--------------------------------*- C++ -*----------------------------------*\
| =========                 |                                                 |
| \\      /  F ield         | OpenFOAM: The Open Source CFD Toolbox           |
|  \\    /   O peration     | Version:  v2012                                 |
|   \\  /    A nd           | Website:  www.openfoam.com                      |
|    \\/     M anipulation  |                                                 |
\*---------------------------------------------------------------------------*/
FoamFile
{
    version     2.0;
    format      ascii;
    class       volVectorField;
    location    "400";
    object      U;
}
// * * * * * * * * * * * * * * * * * * * * * * * * * * * * * * * * * * * * * //

dimensions      [0 1 -1 0 0 0 0];


internalField   nonuniform List<vector> 
15335
(
(-0.306459 -0.0100163 0)
(1.20096 0.0877568 -3.47424e-20)
(-0.311298 -0.0126058 1.11662e-19)
(0.939731 -0.183858 -2.47244e-20)
(-0.145393 -0.0254944 1.17614e-19)
(0.986171 -0.0326846 -7.9673e-21)
(1.19696 0.0550401 0)
(1.29696 -0.202759 9.26775e-20)
(1.13533 -0.0856595 -1.01574e-20)
(-0.287442 -0.00775559 0)
(-0.299419 -0.0121224 -9.59527e-20)
(1.07636 0.014458 -3.75185e-20)
(-0.128581 -0.0277254 -7.75971e-20)
(-0.0438966 0.00252932 4.44472e-20)
(0.481854 -0.0111833 0)
(1.27176 -0.231758 1.78389e-19)
(1.01802 0.00010658 1.21113e-20)
(0.129705 -0.0348874 3.59602e-21)
(1.03596 -0.00322278 -2.08491e-20)
(-0.176076 -0.02773 -6.55145e-20)
(-0.0627302 0.0147385 0)
(-0.0532758 0.0161156 0)
(1.19571 0.0575278 3.10565e-20)
(1.0309 -0.0065727 4.21797e-21)
(1.28157 -0.0412005 0)
(1.13699 -0.329822 1.01736e-19)
(-0.210736 -0.0106473 -1.065e-19)
(1.1295 -0.337489 -7.57903e-20)
(0.0267382 -0.0507783 -6.50725e-20)
(0.952916 -0.0813997 -4.51156e-20)
(-0.233617 -0.0123607 -5.34396e-20)
(0.509079 0.0464248 1.53314e-20)
(0.999879 -0.00116811 2.20537e-21)
(1.01762 -0.0553756 2.97023e-21)
(1.0322 -0.0387432 1.26353e-21)
(1.32077 -0.082322 3.92241e-20)
(1.31665 -0.0782175 -5.33108e-20)
(1.17405 -0.622654 1.17041e-19)
(-0.14338 0.00161146 2.22143e-20)
(1.15127 -0.427006 0)
(1.16607 0.0975795 8.91776e-21)
(1.31469 -0.0894924 -5.38635e-20)
(0.999756 -0.0410501 0)
(1.09542 0.0241416 1.75258e-20)
(-0.269278 -0.00632747 -3.43459e-20)
(1.01745 -0.00223338 0)
(-0.167403 -0.076879 5.67331e-21)
(0.449936 0.0804802 2.68839e-20)
(-0.0217768 0.00618711 -8.70376e-21)
(1.02303 -0.116344 4.35373e-21)
(1.03003 -0.00642633 0)
(0.385802 0.0166155 3.98646e-20)
(1.31768 -0.234627 -1.00268e-19)
(0.999949 -0.000655429 5.56654e-21)
(1.04972 -0.0310592 -8.88851e-21)
(1.19518 0.049351 0)
(0.766827 -0.396024 0)
(0.430902 0.0185865 6.96929e-23)
(-0.195338 -0.0138114 1.73581e-19)
(-0.300824 -0.012369 -2.09881e-19)
(-0.0731986 0.0194561 -3.19737e-22)
(0.397911 0.0770374 2.83572e-20)
(0.912185 -0.206949 2.16179e-20)
(0.896739 -0.0631906 2.09013e-20)
(1.04504 -0.01492 0)
(1.0749 0.0131342 -1.6352e-20)
(1.19786 -0.0168081 0)
(0.463008 0.042651 -3.16909e-20)
(1.0466 -0.00836642 -7.19851e-21)
(1.02926 -0.000900942 1.48439e-20)
(1.15957 -0.0316006 -8.11349e-20)
(1.04911 -0.0922639 0)
(1.28143 -0.0444061 0)
(-0.0304174 0.0249017 0)
(1.11072 0.0215932 -7.78746e-20)
(-0.108384 0.0150772 9.26439e-20)
(1.16539 0.0992148 -1.81426e-20)
(1.26036 -0.114677 -2.41795e-20)
(0.536078 -0.111294 -2.41781e-20)
(0.999836 -0.00286264 3.215e-21)
(-0.124211 -0.0238255 7.38646e-20)
(-0.175366 -0.00871107 0)
(-0.150014 -0.0218507 -1.7487e-20)
(1.27687 -0.0300166 0)
(-0.323458 -0.0147102 0)
(1.01722 -0.0016308 8.67673e-21)
(1.03541 -0.00291283 9.64113e-21)
(1.09381 0.0249921 0)
(0.971763 -0.093121 -1.84256e-20)
(1.21307 0.0799201 -4.64135e-20)
(-0.109905 -0.0277555 -1.41673e-19)
(1.17847 0.0483147 -5.52759e-21)
(1.07757 0.00992563 -4.12932e-20)
(0.152318 -0.633242 7.57771e-20)
(-0.180227 -0.0153812 0)
(1.09386 -0.026492 -3.87911e-21)
(1.01644 -0.00292987 0)
(1.0956 -0.15646 -2.6894e-20)
(1.02527 -0.0105102 0)
(0.999879 -0.00208589 0)
(1.00054 -0.0397505 1.12828e-21)
(-0.0955708 0.0162736 -1.00939e-19)
(1.31871 -0.03669 -9.62416e-20)
(1.13729 0.0651114 1.397e-20)
(1.07708 -0.00885219 0)
(1.13136 -0.0869867 0)
(1.04802 -0.029951 -7.77548e-21)
(0.827021 -0.080826 0)
(0.0952505 -0.233397 0)
(1.01212 -0.250676 -9.55339e-22)
(-0.0292353 0.0162226 5.43896e-20)
(1.22071 0.0156078 -3.68448e-20)
(1.00387 -0.0199548 0)
(1.07832 0.0143592 -3.34129e-22)
(1.30972 -0.246095 0)
(0.975615 -0.0927861 1.5037e-20)
(1.15896 -0.0294256 -2.30441e-22)
(0.215885 -0.659238 2.19883e-20)
(-0.12335 -0.0273875 1.51529e-19)
(1.33859 -0.0970765 6.02352e-20)
(-0.112405 -0.0266121 -7.53568e-20)
(1.14397 0.0927274 9.62553e-21)
(-0.0249878 0.0253355 0)
(0.853214 0.105289 0)
(0.985524 -0.0234735 1.08535e-20)
(0.996217 -0.0331217 7.16094e-21)
(0.777374 -0.376075 3.75628e-20)
(0.999295 -0.00821646 0)
(1.13515 0.0648096 0)
(1.04615 -0.0397275 0)
(-0.173018 -0.00190364 1.37748e-19)
(-0.256335 -0.0044742 0)
(1.02013 -0.00113335 0)
(0.941282 -0.300968 0)
(1.25463 -0.114442 -6.7759e-20)
(1.01134 -0.00375067 7.21169e-21)
(-0.139297 -0.0221533 0)
(0.140139 -0.0683887 0)
(0.902797 -0.210968 3.19478e-20)
(1.29827 -0.198243 -1.58039e-19)
(1.17842 0.0464154 -5.52752e-21)
(1.21493 0.080166 1.24844e-19)
(1.09271 -0.234557 -8.38108e-21)
(1.02724 0.000268427 -1.08728e-20)
(-0.0421905 0.0238354 -5.1959e-20)
(1.04172 -0.529109 -1.30811e-19)
(-0.042747 0.0219283 2.00907e-20)
(0.0242619 -0.0417804 -1.39841e-19)
(1.21975 -0.276465 6.88736e-20)
(-0.142551 -0.0190321 -8.5633e-21)
(1.10091 -0.0381818 -3.59094e-20)
(0.517404 0.0345717 8.28471e-21)
(0.996999 -0.0335491 3.04189e-21)
(1.09163 -0.0271059 0)
(0.0580003 0.0274045 1.74833e-20)
(0.999849 -0.00142523 -1.44133e-20)
(0.213109 0.0538106 -7.11011e-21)
(-0.152554 -0.000684708 0)
(0.100608 0.324095 -1.27516e-19)
(0.686293 -0.0341216 7.60711e-20)
(0.999709 -0.0017398 2.03504e-20)
(0.881127 -0.0909342 2.63168e-20)
(0.81027 0.101621 8.0282e-21)
(1.18084 -0.0522862 0)
(-0.147174 0.00182207 0)
(-0.245686 -0.00667717 1.83634e-20)
(-0.234252 -0.00566941 2.40448e-20)
(1.02873 -0.00670453 1.63856e-20)
(0.192282 0.807494 9.89199e-20)
(-0.165784 -0.0176184 -8.0682e-21)
(1.0395 -0.445367 2.35905e-20)
(1.34033 -0.261022 3.12281e-20)
(0.117202 0.0434773 3.05444e-20)
(0.706851 0.1024 -3.12583e-20)
(1.2671 -0.0526456 5.53596e-20)
(0.999805 -0.00263481 -5.4524e-21)
(1.00028 -0.00416937 0)
(0.851765 0.104583 -7.79325e-20)
(0.751664 -0.328828 8.82866e-20)
(1.18063 0.0906356 8.39947e-21)
(1.2719 -0.0525836 -7.54353e-20)
(0.107623 0.700773 -9.05716e-20)
(-0.0523767 0.0233932 0)
(1.14811 -0.0781869 0)
(1.14725 -0.0756065 0)
(-0.196346 -0.000496073 -6.69417e-20)
(1.12305 -0.0455215 2.10201e-22)
(0.94277 -0.1762 2.58372e-20)
(-0.0399864 0.0226686 0)
(-0.158344 -0.00184136 -1.04091e-19)
(-0.328445 -0.0121555 -7.4275e-20)
(1.23152 -0.35078 1.03277e-19)
(1.10142 0.0142384 -1.81998e-20)
(1.27587 -0.0465035 7.52782e-20)
(1.33271 -0.0683405 1.05319e-19)
(0.000245251 -0.0424896 0)
(1.00285 -0.0185651 3.36313e-22)
(-0.254191 -0.00432512 0)
(0.996071 -0.0400873 3.96016e-21)
(-0.0955408 -0.0316056 -1.42542e-19)
(1.09037 -0.15964 -1.07728e-20)
(0.928996 -0.298185 -6.69999e-21)
(1.0399 -0.223241 -1.25619e-20)
(-0.331574 -0.0122648 2.17457e-19)
(-0.314903 -0.0132072 0)
(1.26022 -0.075556 0)
(1.00024 -0.00348733 0)
(0.674774 -0.00981753 -2.97306e-21)
(0.867964 -0.109818 -1.13567e-21)
(0.994714 -0.142666 -4.92478e-21)
(1.12625 -0.248831 -4.15445e-20)
(1.00249 -0.0394304 0)
(0.0665706 0.0291291 -5.64297e-21)
(0.955283 -0.0784472 2.81845e-20)
(1.03193 -0.53027 0)
(0.659118 -0.0127577 4.97506e-20)
(-0.313594 -0.0119131 1.12252e-19)
(0.472056 0.0376676 0)
(1.14983 0.074548 0)
(0.313593 -0.111573 2.09522e-21)
(0.98675 -0.0240601 0)
(1.00661 -0.0236303 3.0515e-22)
(1.12924 -0.0514277 -3.11781e-20)
(1.09237 0.0193643 -2.36007e-20)
(1.24173 -0.267663 0)
(1.29083 -0.0357252 0)
(1.03093 -0.0142486 4.98985e-21)
(-0.144006 -0.000495996 -3.86955e-21)
(1.17769 -0.0608894 6.73806e-20)
(0.952185 0.0680246 0)
(1.01402 -0.0119298 -5.34656e-21)
(1.02079 -0.00340092 -5.13058e-21)
(-0.0104951 0.00804686 0)
(0.325729 0.0183532 7.58358e-20)
(-0.247201 -0.0103643 -1.29544e-19)
(1.12466 -0.216841 4.52377e-21)
(1.27558 -0.0503385 -8.92426e-20)
(1.1504 0.0731325 0)
(1.00044 -0.00549656 1.37793e-22)
(1.31406 -0.0632657 -3.6781e-20)
(0.14604 0.0512203 7.3684e-21)
(1.02128 -0.252595 0)
(-0.0338034 0.0228461 0)
(1.15268 -0.0527685 0)
(-0.318208 -0.0108252 -1.80909e-19)
(1.01831 -0.0126669 0)
(0.997153 -0.07766 4.96577e-21)
(-0.318383 -0.0130855 0)
(0.432829 0.0779822 -5.47933e-20)
(0.409818 0.0766939 5.63094e-20)
(-0.326771 -0.0123586 0)
(-0.255872 -0.00646065 -1.6141e-22)
(1.01984 -0.00152194 1.06057e-20)
(1.02963 -0.00699041 -1.67331e-20)
(1.17764 -0.0535381 2.06257e-21)
(-0.258441 -0.00872769 0)
(1.18164 0.0448166 6.3225e-21)
(-0.161903 -0.00323556 8.43183e-20)
(1.02948 -0.0011788 -1.54322e-20)
(1.26493 -0.0744168 6.36224e-20)
(-0.222355 -0.00462528 1.30815e-19)
(0.999871 -0.00151535 0)
(1.03051 -0.010115 1.04866e-20)
(0.987387 -0.0320325 0)
(1.04768 -0.0088266 5.98814e-23)
(1.03023 -0.00135964 -1.32314e-20)
(0.619507 -0.0199633 2.11146e-20)
(-0.126941 0.00330767 5.75594e-21)
(-0.157489 -0.000736881 -2.87639e-20)
(0.976871 -0.0183902 0)
(0.588102 -0.0174215 -8.48353e-20)
(-0.215188 -0.0037466 0)
(-0.139054 0.000427699 3.28309e-21)
(1.01402 -0.0113951 9.52361e-21)
(-0.109198 0.00167539 1.0886e-19)
(0.972042 -0.0840153 9.06198e-21)
(1.00051 -0.0550299 6.9093e-21)
(1.25562 -0.00369248 4.13873e-20)
(0.901779 -0.0624048 -2.04362e-20)
(1.17574 -0.0586915 -6.82558e-20)
(-0.0467651 0.00458912 -2.09988e-20)
(-0.110434 0.0145554 0)
(1.03768 -0.0147297 1.14076e-20)
(1.18176 0.0426657 -2.23172e-20)
(1.10253 0.00400497 4.25054e-20)
(-0.114566 -0.0200469 1.30926e-19)
(0.188315 0.0531448 0)
(1.10409 -0.0145301 0)
(0.954036 -0.0567918 0)
(1.04389 -0.0567065 0)
(-0.24716 -0.00642431 -4.75946e-23)
(1.0794 0.00953707 3.40858e-20)
(0.868616 -0.275271 -4.45626e-20)
(1.26819 0.0118989 0)
(1.09316 -0.0780828 2.25551e-20)
(0.75367 0.598807 -3.84938e-21)
(1.03007 -0.0106002 0)
(1.19714 0.0803638 -4.13025e-20)
(1.03147 -0.0397765 0)
(-0.175868 -0.00329245 -1.38849e-19)
(0.984387 -0.0241648 -1.38414e-22)
(0.162561 0.0528266 0)
(1.18411 -0.282684 -3.90203e-20)
(0.932242 0.0836731 2.98647e-21)
(1.00956 -0.00294267 5.09671e-21)
(0.426862 -0.0844828 9.06986e-20)
(-0.237313 -0.00427262 -5.13776e-22)
(1.00031 -0.00495012 0)
(1.11773 0.0103092 7.69869e-20)
(0.925074 -0.0716374 -3.06011e-20)
(-0.158071 -0.00593006 1.1565e-19)
(1.04904 -0.0104022 -4.99073e-21)
(1.2789 -0.0261241 -4.04297e-21)
(0.90174 0.102384 -3.624e-20)
(1.06572 0.0111694 -4.09943e-20)
(0.993079 -0.0260768 0)
(0.985973 -0.0446823 -2.24802e-20)
(0.0814377 0.00698461 -4.66401e-20)
(1.22002 0.0625369 0)
(0.357109 0.0333831 -1.24065e-19)
(1.22852 -0.360921 -9.75785e-20)
(1.04371 -0.0145577 1.72362e-20)
(-0.183105 -0.00453149 0)
(-0.0401872 -0.0236922 0)
(1.12656 -0.0989409 -4.88907e-21)
(0.0535718 0.0274767 0)
(-0.158793 -0.00583029 -1.06443e-19)
(0.991054 0.0646903 0)
(1.10108 -0.00323978 1.76289e-20)
(1.09922 -0.0394081 0)
(0.999868 -0.00256838 6.861e-21)
(1.19157 -0.27645 -4.19187e-20)
(0.96804 -0.0577703 -4.5406e-21)
(1.19688 0.0911218 6.94406e-21)
(0.95528 -0.316401 0)
(1.32249 -0.0400079 8.96496e-20)
(1.04556 -0.229606 1.31025e-20)
(-0.0965206 0.00466327 -9.48887e-20)
(-0.291152 -0.0128927 0)
(-0.268049 -0.00526923 0)
(1.19817 0.0485283 0)
(1.15789 0.0863358 -6.78403e-21)
(1.00381 -0.016373 0)
(1.15902 0.084888 2.44825e-20)
(1.10005 0.0282886 0)
(0.922598 -0.0683801 0)
(1.01666 -0.0567619 1.36523e-21)
(1.28715 -0.22986 9.51291e-20)
(1.02274 -0.00744173 -6.11692e-21)
(-0.126668 -0.0263066 -1.10139e-20)
(-0.0648594 0.0214962 -6.37287e-20)
(-0.171884 -0.00728368 -1.23867e-19)
(1.05146 -0.0942505 0)
(1.09575 -0.452771 0)
(-0.314665 -0.0104437 4.48908e-20)
(1.00676 -0.0247375 -1.27691e-21)
(0.851083 -0.0747958 0)
(1.08935 -0.179702 1.91067e-20)
(1.13413 0.0491867 2.41598e-20)
(1.23201 -0.051951 0)
(1.10283 -0.0159267 1.9965e-20)
(1.17693 0.0193787 0)
(1.10098 0.00484733 -3.5793e-20)
(1.15819 -0.0260518 -1.35583e-19)
(0.870163 -0.101993 -2.67539e-20)
(-0.192528 0.00411623 7.12242e-20)
(0.122954 0.27845 6.17249e-20)
(1.17419 0.0201233 -1.81829e-20)
(1.09242 -0.0549138 3.26148e-20)
(1.01213 -0.00284018 0)
(0.969306 0.0842427 0)
(1.02446 -0.120088 -6.8367e-21)
(1.10876 -0.164961 2.12414e-20)
(0.526188 0.0309473 7.42611e-20)
(0.992415 -0.0273564 0)
(1.31503 -0.0360657 0)
(0.55607 0.00899186 0)
(1.09395 0.0183302 -1.23648e-20)
(0.616456 -0.62967 6.02348e-20)
(0.0614031 0.0293496 1.14277e-20)
(1.00419 -0.0166046 0)
(1.09042 -0.0788958 0)
(-0.192703 -0.0177199 -7.50303e-20)
(1.16519 -0.0113752 0)
(1.12594 -0.0467615 -2.31023e-22)
(1.0149 -0.0115531 -4.97108e-21)
(1.22328 0.0141647 0)
(0.718925 0.115886 3.09116e-20)
(1.15902 0.104406 4.15234e-20)
(-0.268371 -0.00577384 0)
(0.993878 -0.0284671 0)
(0.969429 -0.0856088 5.03209e-21)
(1.01499 -0.0110013 0)
(1.15791 0.103589 0)
(1.10642 0.0169452 0)
(1.21839 -0.304488 -2.98271e-22)
(1.28515 -0.223543 -8.42203e-20)
(1.10098 0.0250572 -3.96836e-20)
(0.81462 -0.242533 2.81241e-20)
(0.194719 0.0559465 -1.29576e-20)
(1.22936 -0.0562927 -6.4378e-20)
(1.23217 -0.0591687 8.85266e-20)
(-0.0921975 -0.0310756 1.43308e-19)
(1.0987 -0.00287921 -1.59496e-20)
(1.07031 -0.0478029 -5.30371e-21)
(1.22993 -0.0488132 0)
(1.09279 -0.137006 1.99641e-19)
(0.373844 -0.278504 1.37443e-19)
(0.765479 -0.592808 0)
(1.26584 0.00945616 -7.62761e-20)
(1.2754 -0.0226563 6.36154e-20)
(0.878558 -0.099775 6.15595e-21)
(1.056 0.021548 0)
(-0.0211649 0.017252 1.60421e-20)
(1.16219 0.100279 2.37764e-21)
(0.108548 0.0107598 0)
(-0.0624116 -0.0216272 0)
(1.08774 -0.0532165 0)
(0.507817 0.46289 0)
(1.08691 -0.239299 0)
(0.906706 -0.116448 3.66705e-20)
(-0.314344 -0.0120863 -4.79953e-20)
(0.820484 0.103659 6.24416e-20)
(1.01709 -0.00285599 5.67284e-21)
(1.21085 0.0769612 0)
(0.982376 0.0753719 4.75068e-20)
(1.15533 0.0863835 -5.41977e-20)
(0.0892489 -0.00208145 -1.69667e-19)
(1.10793 -0.0205569 0)
(-0.237967 -0.00961409 7.84083e-21)
(0.171122 0.0384625 1.84748e-20)
(1.31577 -0.0746303 0)
(-0.324126 -0.0110256 8.06435e-20)
(0.158865 0.0314974 0)
(-0.00583805 0.00756322 3.44025e-20)
(1.21575 -0.285533 1.01235e-21)
(0.147787 0.0514991 -2.68885e-20)
(-0.3187 -0.0125766 -5.06796e-20)
(1.02972 -0.00177676 1.7929e-20)
(1.04462 -0.0382839 0)
(1.30049 -0.0230791 -5.29784e-20)
(-0.157967 -0.00415716 6.12699e-20)
(1.03593 -0.0350162 -1.2088e-20)
(1.19458 0.0902942 2.3521e-20)
(1.14254 0.0387113 2.90247e-20)
(0.735306 -0.171581 0)
(-0.125612 -0.03219 9.78301e-21)
(1.15451 0.0876827 5.07872e-20)
(1.15315 0.0728015 -8.46769e-20)
(1.15553 -0.153853 4.25815e-21)
(-0.32633 -0.0120426 2.46887e-20)
(1.2117 -0.0380765 1.30016e-19)
(1.13169 -0.218801 0)
(1.02628 -0.113712 3.40809e-21)
(0.180141 0.0431475 -8.68027e-21)
(0.14009 0.0405594 9.37588e-21)
(0.999683 -0.0444539 -8.31442e-22)
(-0.0709081 0.0150905 0)
(-0.0242741 0.0243824 3.95549e-20)
(1.15396 0.0711837 7.34299e-20)
(0.16664 0.0525753 -6.51683e-21)
(1.27252 -0.320105 0)
(1.1359 -0.425354 -6.05604e-20)
(0.213718 0.0581334 2.22738e-20)
(1.13401 0.0479221 -5.25467e-20)
(1.12406 -0.0955162 4.6012e-21)
(1.1144 -0.0597604 -2.55835e-20)
(0.994768 -0.0397423 -4.17694e-21)
(0.978559 -0.333192 0)
(0.839988 0.100929 3.71046e-20)
(1.16289 0.0990818 1.69897e-20)
(1.19753 0.085443 2.96407e-20)
(1.14846 -0.0162394 0)
(0.994203 -0.0298589 1.06227e-21)
(1.00019 -0.00342668 -6.88979e-22)
(1.04941 -0.0109681 0)
(0.11077 -0.124424 1.46159e-19)
(0.500908 0.0136383 -2.74827e-20)
(-0.158562 -0.00340306 0)
(0.0753757 -0.118005 -1.5433e-19)
(1.23369 -0.267559 6.61099e-20)
(0.238157 -0.0367434 5.56509e-20)
(1.11917 0.0126391 1.33029e-20)
(-0.14289 -0.0219245 0)
(0.956901 -0.0557853 0)
(1.04041 -0.0148648 0)
(0.999854 -0.00219723 8.08002e-21)
(1.08696 0.100218 -1.75177e-20)
(1.03454 -0.0322542 0)
(-0.0574934 0.0229543 7.14861e-20)
(1.02933 -0.0025969 0)
(0.94187 -0.0171991 3.96859e-20)
(1.03106 -0.0159427 -1.28437e-20)
(0.983943 0.0752444 0)
(1.24277 -0.460919 1.37049e-19)
(0.999917 -0.00205961 4.90741e-22)
(1.10219 0.0241169 0)
(1.19467 0.0520894 5.50983e-20)
(0.9064 -0.122337 0)
(0.885491 -0.0140775 -7.88803e-20)
(0.115023 -0.00158826 5.06801e-20)
(1.10203 0.000618658 6.89121e-21)
(1.19878 0.0825849 -4.74334e-20)
(1.07304 0.013404 3.69114e-20)
(-0.313946 -0.0118487 -6.03285e-20)
(1.07203 -0.0529284 3.36383e-21)
(1.02435 -0.0304592 0)
(-0.326639 -0.0124899 -6.7323e-21)
(1.06004 -0.0629986 -1.03276e-20)
(0.929662 -0.212115 -1.97823e-20)
(1.01939 -0.118503 -1.96093e-19)
(1.01273 -0.00282176 0)
(0.999789 -0.00187107 0)
(-0.311589 -0.0120018 -8.80054e-20)
(1.32016 -0.0922618 3.14159e-21)
(1.31813 -0.0150177 7.42648e-20)
(1.08909 -0.0298939 -1.54349e-20)
(1.13839 -0.086892 1.66776e-20)
(1.0623 -0.0202885 -2.37941e-20)
(0.691787 -0.314641 -1.58397e-19)
(0.969315 0.0524957 -1.30727e-19)
(1.0001 -0.000708561 3.33893e-21)
(-0.17253 -0.00370916 3.26563e-20)
(1.01419 0.0560599 0)
(-0.0435336 0.0249793 2.23553e-21)
(-0.109466 0.0146911 0)
(0.9739 -0.0249302 1.29662e-20)
(1.02769 0.0991293 -5.69835e-20)
(0.427586 0.0764378 0)
(-0.1404 -0.0209597 4.28472e-21)
(-0.309086 -0.0122808 -2.30551e-20)
(1.11991 0.0140485 0)
(0.481246 0.0847433 4.03664e-20)
(0.818347 -0.256705 -6.99723e-20)
(1.24995 0.0626198 -5.52543e-20)
(1.19888 0.089309 7.95923e-20)
(-0.0869116 0.0142875 3.70421e-20)
(-0.31053 -0.0112155 7.40882e-20)
(-0.09938 0.0128328 0)
(-0.0624563 0.0227589 0)
(-0.0812608 0.0177611 -4.11552e-20)
(0.951919 -0.310056 0)
(1.07061 -0.0516361 -2.47785e-21)
(1.10849 -0.013161 0)
(1.12067 -0.151998 2.56713e-20)
(1.00407 -0.00160548 4.7444e-21)
(1.13247 -0.404669 -8.74258e-20)
(1.20594 -0.186521 -7.79409e-20)
(-0.258066 -0.00994728 -3.66871e-20)
(1.22657 0.00926431 1.13356e-20)
(1.19779 0.0197382 1.5507e-20)
(1.29015 -0.331155 1.01353e-19)
(0.40744 0.0772316 0)
(0.252062 0.0598947 0)
(0.0990733 0.0309025 6.69815e-20)
(1.2734 -0.0151467 -1.46522e-19)
(1.01153 -0.515055 0)
(1.00013 -0.0024423 1.38077e-21)
(1.10566 -0.0382666 6.25623e-22)
(1.03019 -0.00165918 -9.97037e-22)
(1.01809 -0.177598 0)
(0.429633 0.0792694 -4.33043e-22)
(1.05987 -0.0227731 5.69308e-21)
(1.1201 0.00900896 0)
(1.22074 -0.158663 -1.9542e-20)
(0.259022 -0.0102602 6.15982e-22)
(1.16714 -0.0660658 6.06213e-20)
(-0.146594 -0.0216176 0)
(1.26535 -0.213531 6.89828e-20)
(-0.122282 0.0030564 1.15638e-20)
(1.03367 -0.0388283 -1.45333e-21)
(0.968262 -0.0548099 9.44736e-21)
(0.999835 -0.00159368 -2.77099e-21)
(0.937157 -0.168553 1.08707e-20)
(-0.069422 -0.0352475 1.758e-19)
(1.12314 -0.157214 0)
(0.346193 -0.115996 2.48463e-21)
(1.02342 -0.0291356 0)
(1.15675 -0.0410349 0)
(-0.0924948 -0.0228443 -1.73539e-20)
(1.03641 -0.0146596 0)
(1.02976 -0.247308 0)
(0.12868 0.0359946 5.70824e-20)
(0.158823 -0.0352536 -5.74984e-20)
(-0.313618 -0.0119398 0)
(0.987827 -0.0228552 1.27531e-20)
(1.08825 -0.07556 -3.34087e-22)
(0.926767 -0.0341295 -2.23085e-20)
(0.43277 -0.0111775 0)
(1.21645 -0.175544 -7.65662e-20)
(1.05988 -0.162577 -1.83595e-20)
(1.02885 -0.000940706 1.34605e-20)
(1.0108 -0.00322048 -6.55339e-21)
(0.999737 -0.00304711 -8.79858e-21)
(0.83732 0.105918 5.20524e-20)
(1.17239 0.0839597 2.94401e-20)
(0.092752 0.133628 7.5402e-20)
(-0.0843526 0.0154319 4.50853e-20)
(1.07437 -0.0600856 -2.24449e-20)
(1.29922 -0.14763 0)
(1.10173 0.0158891 1.76124e-20)
(1.08541 -0.0539057 1.6457e-20)
(0.591078 0.0653878 1.87871e-19)
(1.01414 -0.0442767 0)
(1.12329 -0.0251004 2.78023e-20)
(-0.0851311 0.0179051 2.1438e-20)
(1.03037 -0.0164938 1.84617e-20)
(-0.248963 -0.00452477 0)
(1.00839 0.0478341 1.05213e-19)
(0.919635 -0.214557 -4.70461e-20)
(1.31376 -0.016389 -2.41405e-20)
(0.476068 0.0322588 9.49798e-21)
(0.457314 0.0801462 0)
(1.14459 -0.0988714 -1.19816e-20)
(0.541539 0.0892694 -3.88785e-21)
(1.13652 -0.323296 -3.70512e-20)
(1.04981 -0.11057 0)
(0.999039 -0.00864932 0)
(1.11283 -0.160824 2.83813e-21)
(1.1452 0.0757005 0)
(0.590575 0.067006 -6.00669e-20)
(1.1636 -0.0329646 0)
(1.00018 -0.000218332 0)
(0.406893 -0.315433 -1.83781e-19)
(1.00277 -0.0177029 -4.60788e-22)
(1.10318 0.0017943 -2.53519e-21)
(-0.111217 -0.0217683 -7.16295e-20)
(1.2233 0.0103237 0)
(1.22111 -0.164054 -8.81975e-23)
(-0.00168403 -0.046865 0)
(1.12809 -0.00825058 2.99154e-20)
(1.00456 -0.0128052 1.72985e-22)
(1.04959 -0.00437823 1.65689e-20)
(0.986317 -0.164898 0)
(1.0002 -0.000986345 -3.5108e-21)
(0.11421 0.0289101 0)
(1.06224 -0.0642949 4.34729e-21)
(1.19519 0.0211496 0)
(-0.248353 -0.0123407 7.78092e-20)
(1.02459 -0.00296688 0)
(1.08357 -0.0728871 0)
(-0.258457 -0.0122027 0)
(0.974266 -0.16455 -5.90036e-21)
(0.658851 -0.302583 4.56852e-20)
(0.362534 0.027637 1.6367e-19)
(1.04606 -0.0566873 1.08496e-20)
(1.2769 -0.0192307 -7.14357e-20)
(1.00048 -0.00684558 0)
(0.20809 0.0586331 -2.83214e-20)
(1.21019 -0.365753 0)
(0.962749 0.0523751 1.65409e-21)
(1.20869 -0.305317 0)
(-0.120436 -0.0267615 -3.98347e-20)
(-0.171226 -0.00650188 1.27832e-19)
(0.856957 -0.282171 0)
(1.24027 -0.0790325 -6.78695e-20)
(1.03401 -0.00289068 0)
(1.14747 0.076174 4.61704e-21)
(0.688738 -0.339634 -1.22359e-19)
(-0.0903696 -0.0414198 -1.21654e-19)
(0.942032 -0.0151153 -2.62045e-20)
(0.26589 -0.0460316 1.51347e-19)
(1.00345 -0.0197174 -3.54682e-22)
(1.05297 -0.129729 -7.72744e-20)
(1.11123 -0.0610594 2.59144e-20)
(1.31461 -0.0866786 -8.36229e-20)
(1.03211 -0.0145772 0)
(1.05857 -0.0238187 -1.95166e-20)
(1.18715 -0.321499 -5.84219e-20)
(1.25764 -0.209958 0)
(0.977568 -0.0168989 0)
(1.11313 0.0288774 4.99431e-20)
(1.0568 -0.0231991 -5.83828e-21)
(1.22029 -0.366979 2.98565e-20)
(-0.163927 -0.0190655 0)
(1.05491 -0.16414 1.74514e-20)
(-0.306137 -0.0132143 7.4394e-20)
(-0.164476 -0.0277771 0)
(-0.0758821 0.019877 -7.47472e-21)
(1.00047 -0.00667493 -4.10148e-23)
(0.286893 0.0590414 0)
(0.999782 -0.0783948 -3.88888e-21)
(1.02146 -0.0038108 -4.36155e-21)
(1.27008 -0.110715 0)
(0.990387 -0.146589 0)
(0.957339 -0.0957434 -3.34044e-20)
(-0.119121 -0.0191702 0)
(1.12024 -0.0244356 -8.14385e-23)
(0.990865 -0.168531 4.32798e-21)
(0.863324 -0.0812539 3.5124e-20)
(0.996086 -0.0455859 7.6613e-21)
(1.02517 -0.00298108 -7.82947e-21)
(0.186152 0.0549106 3.62258e-20)
(1.0638 -0.111867 -1.13993e-19)
(1.02616 -0.010858 4.18027e-21)
(1.0234 -0.00714892 6.39676e-21)
(1.25079 -0.00458124 -1.26025e-19)
(1.02353 -0.0156873 1.03962e-20)
(-0.135581 0.00128915 0)
(1.03239 -0.240485 -1.90372e-20)
(-0.101255 -0.0303014 -3.80297e-20)
(0.535356 0.0253914 0)
(1.03582 -0.0334882 0)
(1.1179 -0.176362 -1.58617e-20)
(0.250325 0.0577385 4.87256e-21)
(1.17405 0.0251149 0)
(0.9999 -0.00185232 -7.88855e-21)
(0.897921 -0.292023 -5.43268e-20)
(1.15958 -0.0395739 2.09698e-21)
(1.00183 -0.0405882 0)
(0.88368 -0.352217 1.6962e-21)
(-0.119258 -0.0169975 0)
(1.1537 -0.0561799 0)
(-0.0533395 -0.0306773 0)
(1.31702 -0.0227698 0)
(1.1505 -0.0584789 4.78595e-20)
(1.00097 -0.0136774 -4.08356e-22)
(0.608797 0.0757597 0)
(1.00124 -0.0141738 4.92047e-22)
(1.08569 -0.0758838 -4.52874e-22)
(1.16277 0.0833171 0)
(1.00049 -0.000352246 0)
(1.06176 -0.0233702 -1.40988e-20)
(1.27293 -0.116152 4.71516e-20)
(1.34721 -0.334721 0)
(-0.247037 -0.0117105 1.48878e-19)
(-0.10082 0.0124974 -1.1027e-19)
(0.861411 0.106676 0)
(1.00034 -0.00762669 0)
(-0.122433 0.0135579 -3.47742e-21)
(-0.227945 -0.00523734 -7.06725e-20)
(1.15737 0.000892815 2.90771e-20)
(-0.171032 -0.015857 1.81759e-20)
(1.29944 0.0261477 4.50583e-20)
(1.19065 0.0918794 0)
(1.19245 0.0923693 -3.4011e-21)
(1.17321 0.0234382 3.63002e-20)
(-0.150981 -0.010755 0)
(0.809846 -0.058927 1.26678e-19)
(-0.186679 0.00435746 0)
(0.908146 -0.296484 3.89379e-20)
(1.13101 -0.0986133 0)
(0.894713 -0.408059 -7.49928e-21)
(1.19243 -0.313164 6.43698e-20)
(0.925133 -0.722469 4.59794e-20)
(1.0681 0.00412188 -2.40697e-22)
(1.13081 -0.256285 0)
(0.140023 0.0464497 0)
(0.880992 0.00279266 9.97542e-20)
(1.12033 -0.0475181 -1.74076e-21)
(0.0914708 0.0290492 -5.08011e-20)
(-0.204678 -0.0138053 -1.41001e-19)
(0.00373539 0.00784234 3.29864e-20)
(0.987479 -0.045519 7.15081e-21)
(1.3481 -0.277162 0)
(-0.171647 -0.00265671 0)
(0.237162 0.0580676 -3.8203e-20)
(-0.315337 -0.0106603 1.86254e-19)
(1.05588 -0.0347075 -1.25472e-20)
(1.10175 0.0268876 3.59698e-20)
(1.29923 -0.143868 1.0364e-19)
(-0.017342 0.00560833 0)
(-0.000418815 0.00787611 0)
(1.13952 -0.0244895 -1.25395e-21)
(-0.166386 -0.00977603 -1.77848e-20)
(1.01433 -0.00155079 -8.39381e-21)
(0.794143 -0.611492 0)
(1.11507 0.0259727 0)
(1.04735 -0.108157 9.37828e-21)
(0.166468 -0.0415371 -7.32828e-20)
(1.03038 -0.0148231 -4.90253e-21)
(-0.118962 0.00316762 0)
(1.1304 -0.0145027 -1.81005e-20)
(0.964769 -0.33123 0)
(0.917612 -0.101037 4.04176e-21)
(0.875972 -0.0860294 -1.01867e-21)
(-0.250262 -0.0141859 1.3437e-19)
(0.99907 -0.00791077 0)
(1.03472 -0.0353441 0)
(-0.180209 -0.013435 -7.51153e-20)
(-0.279077 -0.00728041 7.95152e-20)
(1.12091 0.0106678 -1.65058e-20)
(1.0176 -0.0117898 0)
(0.993726 -0.13686 -9.85739e-22)
(-0.242934 -0.00457719 -8.29284e-20)
(1.18491 0.0386899 -2.49208e-20)
(-0.19684 0.000319602 -3.94705e-20)
(0.528398 0.0233947 0)
(1.12963 -0.0544463 5.60812e-20)
(0.999638 -0.00331565 -1.46947e-22)
(-0.0516048 -0.0349688 0)
(0.881296 -0.420491 -4.44298e-21)
(-0.0885585 0.0126765 8.9976e-20)
(1.12527 -0.00862324 -5.67833e-23)
(0.854574 -0.0816618 0)
(1.17318 0.0511729 -2.27313e-20)
(1.00041 -0.0430057 -2.79557e-21)
(1.0286 -0.000572365 1.21657e-20)
(1.13758 -0.025825 -1.75235e-20)
(1.23442 0.0591337 0)
(0.635265 -0.299653 6.305e-20)
(1.16621 0.0814412 -3.8062e-20)
(1.02114 -0.00150442 -1.33624e-21)
(-0.322761 -0.0118616 1.09934e-19)
(0.859468 0.106554 0)
(0.97631 -0.0273286 -6.1309e-21)
(1.01362 -0.0426831 0)
(0.89996 -0.104652 -5.56908e-21)
(1.00385 -0.0190301 -2.51276e-22)
(1.09076 0.0248281 6.27337e-22)
(1.28983 0.0232591 0)
(1.00227 -0.0278017 -7.98536e-22)
(1.00209 -0.0376767 -6.5368e-21)
(0.99944 -0.007256 7.14777e-21)
(1.02826 -0.05184 3.23909e-22)
(1.00121 -0.0202513 3.36783e-22)
(1.02904 -0.00278996 0)
(0.576907 0.00677759 7.03964e-20)
(1.14132 -0.167155 0)
(1.01498 -0.18282 1.35359e-21)
(-0.208371 -0.0123812 1.28681e-19)
(0.998807 -0.00836222 0)
(1.07736 0.0114397 -7.54626e-21)
(1.08789 -0.0362656 1.47638e-20)
(0.302318 -0.0704788 -3.57162e-21)
(0.140677 -0.247888 0)
(-0.053169 0.0155714 -1.21388e-20)
(1.08141 -0.119455 0)
(0.999605 -0.0069846 -7.04323e-21)
(-0.17228 -0.0170248 -7.95789e-20)
(1.01707 -0.0532291 -3.78265e-21)
(0.0731305 0.0300287 7.25573e-22)
(1.10868 -0.0589515 -2.41794e-20)
(1.20131 -0.169072 -4.28662e-21)
(1.32209 -0.0997935 -6.04748e-20)
(-0.204169 0.00285067 -5.33758e-20)
(0.992537 -0.040426 0)
(1.04052 0.00258491 -7.31643e-23)
(1.0603 0.016823 -4.80764e-20)
(0.268699 0.0626152 -3.66638e-20)
(1.12423 -0.0204595 0)
(1.01835 -0.166012 0)
(1.03454 -0.0031759 2.26121e-20)
(1.27464 -0.0120413 1.39793e-19)
(1.11343 0.0302937 -4.24159e-20)
(1.12627 -0.019283 1.11428e-21)
(0.9774 -0.0884257 -1.64307e-20)
(1.02922 -0.00216408 -9.0187e-21)
(-0.211456 0.00146418 9.94137e-20)
(1.08592 -0.132026 -2.41236e-20)
(1.02312 -0.00631965 0)
(0.346573 0.697034 9.64529e-20)
(-0.183241 -0.0146277 1.1408e-19)
(-0.21162 -0.00793859 1.42969e-19)
(-0.326306 -0.0109676 -2.72472e-19)
(1.1421 0.0773696 0)
(1.02665 -0.00338988 1.78938e-20)
(-0.236247 -0.00860074 0)
(1.25707 -0.00107182 -5.58817e-20)
(1.3284 -0.341307 4.22389e-20)
(1.11979 -0.0957122 -4.25061e-24)
(0.867881 -0.087397 6.41734e-20)
(1.17606 0.0509605 5.7693e-21)
(1.01568 -0.160041 -6.37796e-22)
(-0.166192 -0.0167805 6.50164e-20)
(1.32384 -0.0485212 1.0316e-19)
(1.01011 -0.00348141 1.79713e-21)
(1.20372 -0.0252295 6.43676e-21)
(1.17029 0.0544323 -4.20653e-20)
(1.00369 -0.0495832 6.14536e-22)
(0.0419588 -0.096059 4.75764e-22)
(1.07942 -0.00307268 -1.50777e-20)
(0.960698 -0.0858624 1.40214e-20)
(0.10771 0.00950801 -4.62227e-20)
(0.457566 0.0778619 0)
(0.997606 -0.0457476 0)
(0.0562695 0.0290312 0)
(-0.0896973 -0.0290916 0)
(1.00411 -0.0156498 2.96222e-22)
(0.999505 -0.0713577 0)
(1.22 0.0613856 0)
(0.43719 0.620863 -4.55879e-20)
(0.665433 -0.333665 4.94476e-20)
(1.02517 -0.00984015 7.10753e-21)
(1.18029 -0.0393135 0)
(1.162 -0.0492902 0)
(0.434691 0.0792617 6.62611e-20)
(-0.101873 0.0152826 0)
(-0.110262 -0.0221958 6.0441e-21)
(0.721104 -0.167302 -7.93365e-20)
(1.05431 -0.0352154 0)
(-0.155047 -0.0209906 0)
(1.09139 -0.0296034 3.16029e-20)
(0.757074 -0.00358108 -9.17942e-20)
(1.06644 -0.0638098 -1.40853e-21)
(0.40959 0.0757014 -5.34107e-20)
(0.502638 0.515905 5.83925e-20)
(1.06431 -0.0628556 -4.78797e-21)
(1.00552 -0.00101099 5.17809e-21)
(1.12862 -0.0126952 3.47597e-20)
(0.270161 -0.0440776 -7.29281e-20)
(0.369121 -0.156256 0)
(0.998363 -0.0438714 -3.69839e-21)
(0.984221 -0.0253947 5.2209e-21)
(-0.125282 -0.0121167 6.39693e-20)
(1.02252 -0.0309413 8.44958e-22)
(0.381603 0.186952 0)
(1.03042 -0.554949 0)
(1.0239 -0.00863474 1.33904e-20)
(1.0209 -0.0337106 -2.01973e-22)
(0.185881 0.0509264 0)
(1.11749 -0.0461046 -2.46413e-20)
(0.15654 0.0240565 0)
(0.519736 -0.679449 1.77515e-19)
(1.0018 -0.0570699 -3.4073e-21)
(1.07436 -0.0848731 2.60477e-20)
(1.1522 0.0889879 0)
(1.09279 -0.0523894 -3.29818e-20)
(1.20051 -0.00702472 -8.65344e-22)
(1.15011 0.0884161 0)
(0.824917 -0.0990062 -1.32506e-20)
(1.00249 -0.0269266 0)
(1.02406 -0.00931441 -7.2502e-21)
(-0.0704517 0.0214008 0)
(1.11739 -0.0923921 4.14775e-24)
(1.00103 -0.0192138 2.5827e-21)
(-0.0861391 0.0199469 -2.25981e-20)
(-0.17926 -0.0222188 0)
(1.03542 -0.0452735 0)
(0.540346 -0.542857 7.2106e-20)
(1.02391 -0.0282845 -6.94668e-21)
(1.07664 -0.0840017 4.82384e-21)
(0.990281 -0.0448922 1.06547e-20)
(-0.209002 -0.000156363 -7.44306e-20)
(-0.142873 -0.0145715 -1.27482e-19)
(0.97343 -0.0262479 -8.72065e-21)
(1.03615 -0.0664493 0)
(0.0884791 -0.0042889 0)
(1.10279 -0.00157558 2.48023e-20)
(1.21519 -0.156482 1.74658e-20)
(1.07894 -0.00928672 4.57261e-20)
(1.06006 -0.23402 -2.20104e-20)
(0.981624 -0.0316415 -1.90124e-20)
(1.10111 -0.158363 -7.37996e-23)
(0.996462 -0.0418489 1.86556e-21)
(1.33488 -0.0746121 -9.90371e-20)
(-0.167057 -0.00178024 -7.2137e-20)
(1.07167 -0.0497625 5.83589e-21)
(1.14779 -0.0638399 1.20451e-20)
(-0.0697852 0.020921 -8.49728e-20)
(1.08085 -0.0734143 1.78336e-20)