/*--------------------------------*- C++ -*----------------------------------*\
| =========                 |                                                 |
| \\      /  F ield         | OpenFOAM: The Open Source CFD Toolbox           |
|  \\    /   O peration     | Version:  v2012                                 |
|   \\  /    A nd           | Website:  www.openfoam.com                      |
|    \\/     M anipulation  |                                                 |
\*---------------------------------------------------------------------------*/
FoamFile
{
    version     2.0;
    format      ascii;
    class       volVectorField;
    location    "400";
    object      U_0;
}
// * * * * * * * * * * * * * * * * * * * * * * * * * * * * * * * * * * * * * //

dimensions      [0 1 -1 0 0 0 0];


internalField   nonuniform List<vector> 
15335
(
(-0.306459 -0.0100163 0)
(1.20096 0.087757 -3.47414e-20)
(-0.311299 -0.0126058 1.11657e-19)
(0.939731 -0.183858 -2.47248e-20)
(-0.145392 -0.0254944 1.17606e-19)
(0.986171 -0.0326846 -7.96698e-21)
(1.19696 0.0550401 0)
(1.29696 -0.202759 9.26735e-20)
(1.13533 -0.0856595 -1.01568e-20)
(-0.287442 -0.0077556 0)
(-0.299419 -0.0121224 -9.59492e-20)
(1.07636 0.014458 -3.75168e-20)
(-0.128581 -0.0277254 -7.75921e-20)
(-0.0438965 0.00252932 4.44456e-20)
(0.481854 -0.0111832 0)
(1.27176 -0.231757 1.78382e-19)
(1.01802 0.00010658 1.21107e-20)
(0.129705 -0.0348875 3.59588e-21)
(1.03596 -0.00322278 -2.0848e-20)
(-0.17607 -0.0277318 -6.55139e-20)
(-0.0627301 0.0147385 0)
(-0.0532758 0.0161155 0)
(1.19571 0.0575278 3.10555e-20)
(1.0309 -0.0065727 4.21773e-21)
(1.28157 -0.0412005 0)
(1.13699 -0.329822 1.01727e-19)
(-0.210736 -0.0106473 -1.06495e-19)
(1.1295 -0.337489 -7.57836e-20)
(0.0267383 -0.0507784 -6.50686e-20)
(0.952916 -0.0813997 -4.51146e-20)
(-0.233617 -0.0123607 -5.34376e-20)
(0.509079 0.0464247 1.5331e-20)
(0.999879 -0.00116811 2.20519e-21)
(1.01762 -0.0553756 2.96961e-21)
(1.0322 -0.0387432 1.26343e-21)
(1.32077 -0.0823219 3.92228e-20)
(1.31665 -0.0782175 -5.33091e-20)
(1.17407 -0.622646 1.17036e-19)
(-0.14338 0.00161147 2.22137e-20)
(1.15127 -0.427006 0)
(1.16607 0.0975796 8.91748e-21)
(1.31469 -0.0894923 -5.38618e-20)
(0.999756 -0.0410501 0)
(1.09542 0.0241416 1.75251e-20)
(-0.269278 -0.00632748 -3.43449e-20)
(1.01745 -0.00223338 0)
(-0.167401 -0.0768776 5.67252e-21)
(0.449937 0.0804803 2.6883e-20)
(-0.0217767 0.00618711 -8.70346e-21)
(1.02303 -0.116344 4.35243e-21)
(1.03003 -0.00642633 0)
(0.385802 0.0166156 3.98634e-20)
(1.31769 -0.234627 -1.00264e-19)
(0.999949 -0.00065543 5.56609e-21)
(1.04972 -0.0310592 -8.88796e-21)
(1.19518 0.049351 0)
(0.766827 -0.396024 0)
(0.430902 0.0185866 6.96914e-23)
(-0.195338 -0.0138115 1.73565e-19)
(-0.300824 -0.012369 -2.09873e-19)
(-0.0731987 0.0194561 -3.19732e-22)
(0.397911 0.0770375 2.83563e-20)
(0.912185 -0.206949 2.16181e-20)
(0.896739 -0.0631906 2.09005e-20)
(1.04504 -0.01492 0)
(1.0749 0.0131342 -1.63513e-20)
(1.19786 -0.0168081 0)
(0.463008 0.0426509 -3.169e-20)
(1.0466 -0.00836642 -7.19813e-21)
(1.02926 -0.000900942 1.48431e-20)
(1.15957 -0.0316006 -8.11315e-20)
(1.04911 -0.0922639 0)
(1.28143 -0.0444061 0)
(-0.0304174 0.0249018 0)
(1.11072 0.0215932 -7.78724e-20)
(-0.108384 0.0150772 9.26414e-20)
(1.16539 0.0992148 -1.8142e-20)
(1.26036 -0.114677 -2.41786e-20)
(0.536078 -0.111294 -2.41771e-20)
(0.999836 -0.00286264 3.2148e-21)
(-0.124211 -0.0238255 7.38612e-20)
(-0.175366 -0.00871106 0)
(-0.150014 -0.0218508 -1.74863e-20)
(1.27687 -0.0300166 0)
(-0.323458 -0.0147102 0)
(1.01722 -0.0016308 8.67619e-21)
(1.03541 -0.00291283 9.64061e-21)
(1.09381 0.0249921 0)
(0.971763 -0.093121 -1.84255e-20)
(1.21307 0.0799201 -4.64122e-20)
(-0.109905 -0.0277555 -1.41666e-19)
(1.17847 0.0483147 -5.52741e-21)
(1.07757 0.00992563 -4.12913e-20)
(0.152319 -0.633241 7.57562e-20)
(-0.180227 -0.0153812 0)
(1.09386 -0.026492 -3.87892e-21)
(1.01644 -0.00292987 0)
(1.0956 -0.15646 -2.68918e-20)
(1.02527 -0.0105102 0)
(0.999879 -0.00208589 0)
(1.00054 -0.0397505 1.12828e-21)
(-0.0955708 0.0162736 -1.00936e-19)
(1.31871 -0.0366899 -9.62387e-20)
(1.13729 0.0651114 1.39695e-20)
(1.07708 -0.00885219 0)
(1.13136 -0.0869867 0)
(1.04802 -0.029951 -7.775e-21)
(0.827021 -0.080826 0)
(0.0952505 -0.233396 0)
(1.01212 -0.250676 -9.54875e-22)
(-0.0292352 0.0162226 5.43879e-20)
(1.22071 0.0156078 -3.68436e-20)
(1.00387 -0.0199548 0)
(1.07832 0.0143592 -3.34119e-22)
(1.30972 -0.246095 0)
(0.975615 -0.0927861 1.5037e-20)
(1.15896 -0.0294256 -2.30444e-22)
(0.215884 -0.659236 2.19751e-20)
(-0.12335 -0.0273875 1.51522e-19)
(1.33859 -0.0970765 6.02332e-20)
(-0.112405 -0.0266121 -7.53532e-20)
(1.14397 0.0927275 9.62525e-21)
(-0.0249878 0.0253356 0)
(0.853214 0.105289 0)
(0.985524 -0.0234735 1.08529e-20)
(0.996217 -0.0331217 7.16072e-21)
(0.777374 -0.376075 3.75619e-20)
(0.999295 -0.00821646 0)
(1.13515 0.0648096 0)
(1.04615 -0.0397275 0)
(-0.173018 -0.00190362 1.37744e-19)
(-0.256335 -0.00447421 0)
(1.02013 -0.00113335 0)
(0.941282 -0.300968 0)
(1.25463 -0.114442 -6.77563e-20)
(1.01134 -0.00375067 7.2112e-21)
(-0.139297 -0.0221533 0)
(0.14014 -0.0683886 0)
(0.902797 -0.210968 3.19478e-20)
(1.29827 -0.198243 -1.58032e-19)
(1.17842 0.0464154 -5.52734e-21)
(1.21493 0.0801661 1.2484e-19)
(1.09271 -0.234557 -8.38026e-21)
(1.02724 0.000268427 -1.08722e-20)
(-0.0421906 0.0238354 -5.19576e-20)
(1.04171 -0.52911 -1.30801e-19)
(-0.042747 0.0219283 2.00901e-20)
(0.0242619 -0.0417803 -1.39832e-19)
(1.21975 -0.276465 6.88695e-20)
(-0.142551 -0.0190321 -8.56296e-21)
(1.10091 -0.0381818 -3.59076e-20)
(0.517404 0.0345717 8.28449e-21)
(0.996999 -0.0335491 3.04182e-21)
(1.09163 -0.0271059 0)
(0.0580004 0.0274045 1.74827e-20)
(0.999849 -0.00142523 -1.44122e-20)
(0.213109 0.0538105 -7.10991e-21)
(-0.152554 -0.000684699 0)
(0.100609 0.324096 -1.2751e-19)
(0.686293 -0.0341216 7.60687e-20)
(0.999709 -0.00173981 2.03488e-20)
(0.881127 -0.0909342 2.6316e-20)
(0.81027 0.101621 8.02796e-21)
(1.18084 -0.0522862 0)
(-0.147174 0.00182208 0)
(-0.245686 -0.00667718 1.83629e-20)
(-0.234252 -0.00566942 2.40442e-20)
(1.02873 -0.00670453 1.63847e-20)
(0.192284 0.807494 9.89097e-20)
(-0.165782 -0.0176184 -8.06708e-21)
(1.0395 -0.445368 2.35881e-20)
(1.34033 -0.261022 3.12267e-20)
(0.117202 0.0434773 3.05436e-20)
(0.706851 0.1024 -3.12567e-20)
(1.2671 -0.0526456 5.53577e-20)
(0.999805 -0.00263481 -5.45206e-21)
(1.00028 -0.00416937 0)
(0.851765 0.104584 -7.79302e-20)
(0.751669 -0.328838 8.82814e-20)
(1.18063 0.0906357 8.39922e-21)
(1.2719 -0.0525836 -7.54326e-20)
(0.107624 0.700779 -9.05633e-20)
(-0.0523767 0.0233932 0)
(1.14811 -0.0781869 0)
(1.14725 -0.0756065 0)
(-0.196346 -0.000496075 -6.69398e-20)
(1.12305 -0.0455215 2.10191e-22)
(0.94277 -0.1762 2.58377e-20)
(-0.0399864 0.0226686 0)
(-0.158344 -0.00184133 -1.04088e-19)
(-0.328445 -0.0121555 -7.42728e-20)
(1.23152 -0.35078 1.0327e-19)
(1.10142 0.0142384 -1.8199e-20)
(1.27587 -0.0465035 7.52756e-20)
(1.33271 -0.0683406 1.05315e-19)
(0.000245247 -0.0424896 0)
(1.00285 -0.0185651 3.36335e-22)
(-0.254191 -0.00432513 0)
(0.996071 -0.0400873 3.96008e-21)
(-0.0955407 -0.0316056 -1.42533e-19)
(1.09037 -0.15964 -1.07717e-20)
(0.928996 -0.298185 -6.70051e-21)
(1.0399 -0.223241 -1.25598e-20)
(-0.331574 -0.0122648 2.1745e-19)
(-0.314903 -0.0132072 0)
(1.26022 -0.075556 0)
(1.00024 -0.00348733 0)
(0.674774 -0.00981756 -2.97289e-21)
(0.867964 -0.109818 -1.13563e-21)
(0.994714 -0.142666 -4.9254e-21)
(1.12625 -0.248831 -4.15412e-20)
(1.00249 -0.0394304 0)
(0.0665707 0.0291291 -5.64278e-21)
(0.955283 -0.0784472 2.81838e-20)
(1.03193 -0.53027 0)
(0.659119 -0.0127577 4.97483e-20)
(-0.313594 -0.0119131 1.12248e-19)
(0.472056 0.0376676 0)
(1.14983 0.074548 0)
(0.313593 -0.111573 2.09469e-21)
(0.98675 -0.0240601 0)
(1.00661 -0.0236303 3.05009e-22)
(1.12924 -0.0514277 -3.11765e-20)
(1.09237 0.0193643 -2.35997e-20)
(1.24173 -0.267663 0)
(1.29083 -0.035725 0)
(1.03093 -0.0142486 4.98954e-21)
(-0.144006 -0.000495993 -3.86943e-21)
(1.17769 -0.0608894 6.73777e-20)
(0.952185 0.0680247 0)
(1.01402 -0.0119298 -5.34619e-21)
(1.02079 -0.00340092 -5.13026e-21)
(-0.010495 0.00804686 0)
(0.325729 0.0183533 7.58317e-20)
(-0.247199 -0.0103652 -1.29549e-19)
(1.12466 -0.216841 4.52341e-21)
(1.27558 -0.0503385 -8.92396e-20)
(1.1504 0.0731325 0)
(1.00044 -0.00549656 1.37785e-22)
(1.31406 -0.0632657 -3.67799e-20)
(0.14604 0.0512203 7.36819e-21)
(1.02128 -0.252595 0)
(-0.0338034 0.0228461 0)
(1.15268 -0.0527685 0)
(-0.318208 -0.0108252 -1.80904e-19)
(1.01831 -0.0126669 0)
(0.997153 -0.07766 4.96599e-21)
(-0.318383 -0.0130855 0)
(0.432829 0.0779822 -5.47915e-20)
(0.409818 0.0766938 5.63075e-20)
(-0.326771 -0.0123586 0)
(-0.25587 -0.00645961 -1.61341e-22)
(1.01984 -0.00152194 1.06051e-20)
(1.02963 -0.00699041 -1.67322e-20)
(1.17764 -0.0535381 2.06248e-21)
(-0.258441 -0.00872699 0)
(1.18164 0.0448166 6.32229e-21)
(-0.161903 -0.00323553 8.43159e-20)
(1.02948 -0.0011788 -1.54314e-20)
(1.26493 -0.0744167 6.36201e-20)
(-0.222355 -0.00462529 1.30812e-19)
(0.999871 -0.00151535 0)
(1.03051 -0.010115 1.04859e-20)
(0.987387 -0.0320325 0)
(1.04768 -0.0088266 5.98781e-23)
(1.03023 -0.00135964 -1.32307e-20)
(0.619507 -0.0199633 2.1114e-20)
(-0.126941 0.00330768 5.75576e-21)
(-0.157489 -0.000736874 -2.87631e-20)
(0.976871 -0.0183902 0)
(0.588102 -0.0174214 -8.48328e-20)
(-0.215188 -0.00374661 0)
(-0.139054 0.000427708 3.28299e-21)
(1.01402 -0.0113951 9.52295e-21)
(-0.109198 0.0016754 1.08857e-19)
(0.972042 -0.0840153 9.06188e-21)
(1.00051 -0.0550299 6.90947e-21)
(1.25562 -0.00369256 4.1386e-20)
(0.901779 -0.0624048 -2.04354e-20)
(1.17574 -0.0586915 -6.82528e-20)
(-0.0467651 0.00458912 -2.0998e-20)
(-0.110434 0.0145554 0)
(1.03768 -0.0147297 1.14069e-20)
(1.18176 0.0426657 -2.23165e-20)
(1.10253 0.00400497 4.25035e-20)
(-0.114566 -0.0200469 1.30921e-19)
(0.188315 0.0531448 0)
(1.10409 -0.0145301 0)
(0.954036 -0.0567918 0)
(1.04389 -0.0567065 0)
(-0.24716 -0.00642431 -4.75937e-23)
(1.0794 0.00953707 3.40842e-20)
(0.868616 -0.275271 -4.45628e-20)
(1.26819 0.0118989 0)
(1.09316 -0.0780828 2.25537e-20)
(0.75357 0.598833 -3.84849e-21)
(1.03007 -0.0106002 0)
(1.19714 0.0803639 -4.13013e-20)
(1.03147 -0.0397765 0)
(-0.175868 -0.00329242 -1.38845e-19)
(0.984387 -0.0241648 -1.38403e-22)
(0.162561 0.0528267 0)
(1.18411 -0.282684 -3.90176e-20)
(0.932242 0.083673 2.98637e-21)
(1.00956 -0.00294267 5.09636e-21)
(0.426862 -0.0844829 9.06945e-20)
(-0.237313 -0.00427263 -5.13762e-22)
(1.00031 -0.00495012 0)
(1.11773 0.0103091 7.69847e-20)
(0.925074 -0.0716374 -3.06001e-20)
(-0.158071 -0.00593004 1.15647e-19)
(1.04904 -0.0104022 -4.99047e-21)
(1.2789 -0.026124 -4.04284e-21)
(0.90174 0.102384 -3.62389e-20)
(1.06572 0.0111694 -4.09931e-20)
(0.993079 -0.0260768 0)
(0.985973 -0.0446823 -2.24795e-20)
(0.0814377 0.00698468 -4.66387e-20)
(1.22002 0.0625366 0)
(0.357109 0.0333832 -1.24058e-19)
(1.22852 -0.360921 -9.7574e-20)
(1.04371 -0.0145577 1.72353e-20)
(-0.183109 -0.00453171 0)
(-0.0401872 -0.0236922 0)
(1.12656 -0.0989409 -4.88879e-21)
(0.053572 0.0274767 0)
(-0.158793 -0.00583026 -1.0644e-19)
(0.991054 0.0646903 0)
(1.10108 -0.00323978 1.76281e-20)
(1.09922 -0.0394081 0)
(0.999868 -0.00256838 6.86054e-21)
(1.19157 -0.27645 -4.1916e-20)
(0.96804 -0.0577703 -4.54047e-21)
(1.19688 0.091122 6.94386e-21)
(0.95528 -0.316401 0)
(1.32249 -0.0400078 8.96469e-20)
(1.04556 -0.229606 1.31003e-20)
(-0.0965205 0.00466328 -9.48857e-20)
(-0.291152 -0.0128927 0)
(-0.268049 -0.00526924 0)
(1.19817 0.0485283 0)
(1.15789 0.0863358 -6.78381e-21)
(1.00381 -0.016373 0)
(1.15902 0.0848881 2.44817e-20)
(1.10005 0.0282886 0)
(0.922598 -0.0683801 0)
(1.01666 -0.0567619 1.36489e-21)
(1.28715 -0.229861 9.5124e-20)
(1.02274 -0.00744173 -6.11655e-21)
(-0.126668 -0.0263066 -1.10134e-20)
(-0.0648595 0.0214962 -6.37269e-20)
(-0.171884 -0.00728366 -1.23863e-19)
(1.05146 -0.0942505 0)
(1.09575 -0.452755 0)
(-0.314665 -0.0104437 4.48894e-20)
(1.00676 -0.0247375 -1.27655e-21)
(0.851083 -0.0747958 0)
(1.08935 -0.179702 1.91049e-20)
(1.13413 0.0491867 2.41589e-20)
(1.23201 -0.051951 0)
(1.10283 -0.0159267 1.99641e-20)
(1.17693 0.0193787 0)
(1.10098 0.00484733 -3.57914e-20)
(1.15819 -0.0260517 -1.35579e-19)
(0.870163 -0.101993 -2.6753e-20)
(-0.192532 0.00411432 7.12286e-20)
(0.122955 0.27845 6.1722e-20)
(1.17419 0.0201233 -1.81822e-20)
(1.09242 -0.0549138 3.2613e-20)
(1.01213 -0.00284018 0)
(0.969306 0.0842427 0)
(1.02446 -0.120088 -6.83475e-21)
(1.10876 -0.164961 2.12398e-20)
(0.526188 0.0309473 7.42591e-20)
(0.992415 -0.0273564 0)
(1.31503 -0.0360656 0)
(0.55607 0.00899196 0)
(1.09395 0.0183302 -1.23643e-20)
(0.616457 -0.62967 6.02332e-20)
(0.0614032 0.0293497 1.14273e-20)
(1.00419 -0.0166046 0)
(1.09042 -0.0788958 0)
(-0.192703 -0.0177199 -7.50273e-20)
(1.16519 -0.0113751 0)
(1.12594 -0.0467615 -2.31012e-22)
(1.0149 -0.0115531 -4.97073e-21)
(1.22328 0.0141647 0)
(0.718925 0.115886 3.091e-20)
(1.15902 0.104406 4.15221e-20)
(-0.268371 -0.00577385 0)
(0.993878 -0.0284671 0)
(0.969429 -0.0856088 5.03202e-21)
(1.01499 -0.0110013 0)
(1.15791 0.103589 0)
(1.10642 0.0169452 0)
(1.21839 -0.304488 -2.98252e-22)
(1.28515 -0.223544 -8.42166e-20)
(1.10098 0.0250572 -3.9682e-20)
(0.814621 -0.242533 2.81235e-20)
(0.194719 0.0559466 -1.29573e-20)
(1.22936 -0.0562927 -6.43755e-20)
(1.23217 -0.0591687 8.85232e-20)
(-0.0921974 -0.0310756 1.433e-19)
(1.0987 -0.00287921 -1.59488e-20)
(1.07031 -0.0478029 -5.30339e-21)
(1.22993 -0.0488132 0)
(1.09279 -0.137006 1.99634e-19)
(0.373853 -0.278506 1.37424e-19)
(0.765479 -0.592808 0)
(1.26584 0.00945612 -7.62737e-20)
(1.2754 -0.0226562 6.36133e-20)
(0.878558 -0.099775 6.15575e-21)
(1.056 0.021548 0)
(-0.0211649 0.017252 1.60416e-20)
(1.16219 0.100279 2.37756e-21)
(0.108548 0.0107598 0)
(-0.0624116 -0.0216272 0)
(1.08774 -0.0532165 0)
(0.507818 0.462889 0)
(1.08691 -0.239299 0)
(0.906706 -0.116448 3.66696e-20)
(-0.314344 -0.0120863 -4.79938e-20)
(0.820484 0.103659 6.24397e-20)
(1.01709 -0.00285599 5.67248e-21)
(1.21085 0.0769613 0)
(0.982376 0.0753716 4.75052e-20)
(1.15533 0.0863835 -5.4196e-20)
(0.0892488 -0.00208141 -1.69661e-19)
(1.10793 -0.0205569 0)
(-0.237967 -0.00961409 7.84055e-21)
(0.171122 0.0384625 1.84743e-20)
(1.31577 -0.0746301 0)
(-0.324126 -0.0110256 8.06412e-20)
(0.158865 0.0314974 0)
(-0.00583795 0.00756322 3.44014e-20)
(1.21575 -0.285533 1.01229e-21)
(0.147786 0.0514991 -2.68877e-20)
(-0.3187 -0.0125766 -5.06779e-20)
(1.02972 -0.00177676 1.79281e-20)
(1.04462 -0.0382839 0)
(1.30049 -0.023079 -5.29768e-20)
(-0.157967 -0.00415713 6.12681e-20)
(1.03593 -0.0350162 -1.20872e-20)
(1.19458 0.0902943 2.35203e-20)
(1.14254 0.0387113 2.90237e-20)
(0.735306 -0.171581 0)
(-0.125606 -0.0321882 9.78277e-21)
(1.15451 0.0876827 5.07856e-20)
(1.15315 0.0728015 -8.46741e-20)
(1.15553 -0.153853 4.25799e-21)
(-0.32633 -0.0120425 2.46879e-20)
(1.2117 -0.0380763 1.30012e-19)
(1.13169 -0.218801 0)
(1.02628 -0.113712 3.40738e-21)
(0.180141 0.0431474 -8.68004e-21)
(0.14009 0.0405593 9.37563e-21)
(0.999683 -0.0444539 -8.31446e-22)
(-0.0709081 0.0150904 0)
(-0.0242741 0.0243824 3.95537e-20)
(1.15396 0.0711837 7.34275e-20)
(0.16664 0.0525754 -6.51664e-21)
(1.27252 -0.320106 0)
(1.1359 -0.425354 -6.05544e-20)
(0.213718 0.0581335 2.22731e-20)
(1.13401 0.0479221 -5.25449e-20)
(1.12406 -0.0955162 4.60093e-21)
(1.1144 -0.0597604 -2.55821e-20)
(0.994768 -0.0397423 -4.17685e-21)
(0.978559 -0.333192 0)
(0.839988 0.100929 3.71035e-20)
(1.16289 0.0990818 1.69892e-20)
(1.19753 0.0854431 2.96399e-20)
(1.14846 -0.0162394 0)
(0.994203 -0.0298589 1.06223e-21)
(1.00019 -0.00342668 -6.88977e-22)
(1.04941 -0.0109681 0)
(0.11077 -0.124424 1.46149e-19)
(0.500908 0.0136384 -2.74819e-20)
(-0.158562 -0.00340303 0)
(0.0753757 -0.118005 -1.54319e-19)
(1.23369 -0.267559 6.61061e-20)
(0.238157 -0.0367434 5.56475e-20)
(1.11917 0.0126391 1.33023e-20)
(-0.14289 -0.0219245 0)
(0.956901 -0.0557853 0)
(1.04041 -0.0148648 0)
(0.999854 -0.00219723 8.07945e-21)
(1.08696 0.100218 -1.75172e-20)
(1.03454 -0.0322542 0)
(-0.0574935 0.0229543 7.14841e-20)
(1.02933 -0.0025969 0)
(0.94187 -0.0171991 3.96838e-20)
(1.03106 -0.0159427 -1.28429e-20)
(0.983943 0.0752441 0)
(1.24277 -0.460921 1.3704e-19)
(0.999917 -0.00205962 4.90698e-22)
(1.10219 0.0241169 0)
(1.19467 0.0520894 5.50966e-20)
(0.9064 -0.122337 0)
(0.885491 -0.0140775 -7.88765e-20)
(0.115023 -0.00158821 5.06786e-20)
(1.10203 0.000618657 6.89091e-21)
(1.19878 0.082585 -4.7432e-20)
(1.07304 0.013404 3.69097e-20)
(-0.313946 -0.0118487 -6.03268e-20)
(1.07203 -0.0529284 3.36363e-21)
(1.02435 -0.0304592 0)
(-0.326639 -0.0124899 -6.73208e-21)
(1.06004 -0.0629986 -1.03269e-20)
(0.929662 -0.212115 -1.97827e-20)
(1.01939 -0.118503 -1.96086e-19)
(1.01273 -0.00282176 0)
(0.999789 -0.00187108 0)
(-0.311589 -0.0120018 -8.80025e-20)
(1.32016 -0.0922615 3.14148e-21)
(1.31813 -0.0150178 7.42626e-20)
(1.08909 -0.0298939 -1.54341e-20)
(1.13839 -0.086892 1.66767e-20)
(1.0623 -0.0202885 -2.37928e-20)
(0.69179 -0.314642 -1.58388e-19)
(0.969315 0.0524955 -1.30723e-19)
(1.0001 -0.000708561 3.33865e-21)
(-0.17253 -0.00370913 3.26553e-20)
(1.01419 0.0560597 0)
(-0.0435337 0.0249794 2.23546e-21)
(-0.109466 0.0146911 0)
(0.9739 -0.0249302 1.29655e-20)
(1.02769 0.0991295 -5.69818e-20)
(0.427585 0.0764379 0)
(-0.1404 -0.0209597 4.28455e-21)
(-0.309086 -0.0122808 -2.30543e-20)
(1.11991 0.0140485 0)
(0.481246 0.0847434 4.03651e-20)
(0.818347 -0.256705 -6.99707e-20)
(1.24994 0.0626177 -5.52567e-20)
(1.19888 0.0893092 7.95899e-20)
(-0.0869116 0.0142875 3.70411e-20)
(-0.310529 -0.011216 7.4091e-20)
(-0.09938 0.0128328 0)
(-0.0624564 0.0227589 0)
(-0.0812609 0.0177611 -4.1154e-20)
(0.951919 -0.310056 0)
(1.07061 -0.0516361 -2.4777e-21)
(1.10849 -0.013161 0)
(1.12067 -0.151998 2.56696e-20)
(1.00407 -0.00160548 4.74404e-21)
(1.13247 -0.404669 -8.74175e-20)
(1.20594 -0.186521 -7.79367e-20)
(-0.258066 -0.00994773 -3.66887e-20)
(1.22657 0.00926428 1.13352e-20)
(1.19779 0.0197382 1.55065e-20)
(1.29015 -0.331155 1.01347e-19)
(0.40744 0.0772316 0)
(0.252062 0.0598947 0)
(0.0990734 0.0309025 6.69792e-20)
(1.2734 -0.0151467 -1.46517e-19)
(1.01153 -0.515055 0)
(1.00013 -0.00244231 1.38077e-21)
(1.10566 -0.0382666 6.25592e-22)
(1.03019 -0.00165918 -9.96982e-22)
(1.01809 -0.177598 0)
(0.429633 0.0792694 -4.33029e-22)
(1.05987 -0.0227731 5.69276e-21)
(1.1201 0.00900896 0)
(1.22074 -0.158663 -1.95411e-20)
(0.259022 -0.0102602 6.15992e-22)
(1.16714 -0.0660658 6.06194e-20)
(-0.146594 -0.0216178 0)
(1.26535 -0.213531 6.89795e-20)
(-0.122282 0.00305641 1.15635e-20)
(1.03367 -0.0388283 -1.45322e-21)
(0.968262 -0.0548099 9.44707e-21)
(0.999835 -0.00159368 -2.77077e-21)
(0.937157 -0.168553 1.08708e-20)
(-0.0694219 -0.0352474 1.75789e-19)
(1.12314 -0.157214 0)
(0.346193 -0.115996 2.48423e-21)
(1.02342 -0.0291356 0)
(1.15675 -0.0410349 0)
(-0.0924947 -0.0228443 -1.73532e-20)
(1.03641 -0.0146596 0)
(1.02976 -0.247308 0)
(0.12868 0.0359946 5.70809e-20)
(0.158823 -0.0352537 -5.74962e-20)
(-0.313618 -0.0119398 0)
(0.987827 -0.0228552 1.27524e-20)
(1.08825 -0.07556 -3.34079e-22)
(0.926767 -0.0341295 -2.23075e-20)
(0.43277 -0.0111775 0)
(1.21645 -0.175544 -7.65633e-20)
(1.05988 -0.162577 -1.83573e-20)
(1.02885 -0.000940706 1.34597e-20)
(1.0108 -0.00322048 -6.55295e-21)
(0.999737 -0.00304712 -8.79796e-21)
(0.83732 0.105918 5.20507e-20)
(1.17239 0.0839598 2.94392e-20)
(0.0927521 0.133628 7.53983e-20)
(-0.0843526 0.0154319 4.50841e-20)
(1.07437 -0.0600856 -2.24435e-20)
(1.29922 -0.14763 0)
(1.10173 0.0158891 1.76117e-20)
(1.08541 -0.0539057 1.6456e-20)
(0.591078 0.0653877 1.87866e-19)
(1.01414 -0.0442767 0)
(1.12329 -0.0251004 2.78011e-20)
(-0.0851312 0.0179051 2.14374e-20)
(1.03037 -0.0164938 1.84606e-20)
(-0.24896 -0.00452478 0)
(1.00839 0.047834 1.0521e-19)
(0.919635 -0.214557 -4.70467e-20)
(1.31376 -0.016389 -2.41398e-20)
(0.476068 0.0322588 9.49772e-21)
(0.457314 0.0801463 0)
(1.14459 -0.0988714 -1.19809e-20)
(0.541539 0.0892695 -3.88772e-21)
(1.13652 -0.323296 -3.7048e-20)
(1.04981 -0.11057 0)
(0.999039 -0.00864932 0)
(1.11283 -0.160824 2.83792e-21)
(1.1452 0.0757005 0)
(0.590575 0.0670059 -6.00653e-20)
(1.1636 -0.0329646 0)
(1.00018 -0.000218332 0)
(0.406898 -0.315424 -1.83755e-19)
(1.00277 -0.0177029 -4.60807e-22)
(1.10318 0.0017943 -2.53508e-21)
(-0.111217 -0.0217683 -7.16266e-20)
(1.2233 0.0103237 0)
(1.22111 -0.164054 -8.81958e-23)
(-0.00168389 -0.046865 0)
(1.12809 -0.00825058 2.99141e-20)
(1.00456 -0.0128053 1.72967e-22)
(1.04959 -0.00437823 1.65681e-20)
(0.986317 -0.164898 0)
(1.0002 -0.000986345 -3.51051e-21)
(0.11421 0.02891 0)
(1.06224 -0.0642949 4.34698e-21)
(1.19519 0.0211496 0)
(-0.248353 -0.0123407 7.78065e-20)
(1.02459 -0.00296688 0)
(1.08357 -0.0728871 0)
(-0.258457 -0.0122027 0)
(0.974266 -0.16455 -5.90072e-21)
(0.658851 -0.302583 4.56829e-20)
(0.362534 0.027637 1.63666e-19)
(1.04606 -0.0566873 1.08488e-20)
(1.2769 -0.0192306 -7.14334e-20)
(1.00048 -0.00684558 0)
(0.20809 0.0586332 -2.83206e-20)
(1.21019 -0.365753 0)
(0.962748 0.0523749 1.65404e-21)
(1.20869 -0.305317 0)
(-0.120436 -0.0267614 -3.98327e-20)
(-0.171226 -0.00650185 1.27828e-19)
(0.856957 -0.282171 0)
(1.24027 -0.0790325 -6.78674e-20)
(1.03401 -0.00289068 0)
(1.14747 0.076174 4.61689e-21)
(0.688739 -0.339634 -1.22354e-19)
(-0.0903727 -0.0414238 -1.21631e-19)
(0.942032 -0.0151153 -2.62031e-20)
(0.26589 -0.0460316 1.51342e-19)
(1.00345 -0.0197174 -3.54706e-22)
(1.05297 -0.129729 -7.72715e-20)
(1.11123 -0.0610594 2.5913e-20)
(1.31461 -0.0866784 -8.36202e-20)
(1.03211 -0.0145772 0)
(1.05857 -0.0238187 -1.95155e-20)
(1.18715 -0.321499 -5.84178e-20)
(1.25764 -0.209959 0)
(0.977568 -0.0168989 0)
(1.11313 0.0288774 4.99411e-20)
(1.0568 -0.0231991 -5.83796e-21)
(1.22029 -0.366979 2.98542e-20)
(-0.163927 -0.0190657 0)
(1.05491 -0.16414 1.74493e-20)
(-0.306137 -0.0132143 7.43914e-20)
(-0.164481 -0.0277732 0)
(-0.0758822 0.019877 -7.4745e-21)
(1.00047 -0.00667493 -4.10115e-23)
(0.286893 0.0590414 0)
(0.999782 -0.0783948 -3.88902e-21)
(1.02146 -0.0038108 -4.36129e-21)
(1.27008 -0.110715 0)
(0.990386 -0.146589 0)
(0.957339 -0.0957434 -3.34041e-20)
(-0.119121 -0.0191703 0)
(1.12024 -0.0244356 -8.14448e-23)
(0.990865 -0.168531 4.32872e-21)
(0.863324 -0.0812539 3.51226e-20)
(0.996086 -0.0455859 7.6612e-21)
(1.02517 -0.00298108 -7.82901e-21)
(0.186152 0.0549107 3.62247e-20)
(1.0638 -0.111867 -1.13989e-19)
(1.02616 -0.010858 4.18001e-21)
(1.0234 -0.00714892 6.39637e-21)
(1.25079 -0.0045813 -1.2602e-19)
(1.02353 -0.0156873 1.03955e-20)
(-0.135581 0.00128916 0)
(1.03239 -0.240485 -1.90334e-20)
(-0.101255 -0.0303014 -3.80277e-20)
(0.535356 0.0253915 0)
(1.03582 -0.0334882 0)
(1.1179 -0.176362 -1.58605e-20)
(0.250325 0.0577385 4.8724e-21)
(1.17405 0.0251149 0)
(0.9999 -0.00185232 -7.88799e-21)
(0.897921 -0.292023 -5.4329e-20)
(1.15958 -0.0395739 2.09689e-21)
(1.00183 -0.0405882 0)
(0.883678 -0.352221 1.69609e-21)
(-0.119258 -0.0169975 0)
(1.1537 -0.0561799 0)
(-0.0533395 -0.0306773 0)
(1.31702 -0.0227698 0)
(1.1505 -0.0584789 4.78573e-20)
(1.00097 -0.0136774 -4.08345e-22)
(0.608797 0.0757596 0)
(1.00124 -0.0141738 4.92037e-22)
(1.08569 -0.0758838 -4.52864e-22)
(1.16277 0.0833171 0)
(1.00049 -0.000352246 0)
(1.06176 -0.0233702 -1.4098e-20)
(1.27293 -0.116152 4.71498e-20)
(1.34721 -0.334721 0)
(-0.247037 -0.0117106 1.48869e-19)
(-0.10082 0.0124973 -1.10267e-19)
(0.861411 0.106677 0)
(1.00034 -0.00762669 0)
(-0.122433 0.0135578 -3.47733e-21)
(-0.227944 -0.00523763 -7.06752e-20)
(1.15737 0.000892815 2.9076e-20)
(-0.171032 -0.0158569 1.81736e-20)
(1.29944 0.0261475 4.5057e-20)
(1.19065 0.0918792 0)
(1.19245 0.0923695 -3.40101e-21)
(1.17321 0.0234382 3.62989e-20)
(-0.150981 -0.010755 0)
(0.809846 -0.058927 1.26672e-19)
(-0.186679 0.00436029 0)
(0.908146 -0.296484 3.89395e-20)
(1.13101 -0.0986133 0)
(0.894713 -0.408059 -7.50155e-21)
(1.19243 -0.313164 6.43653e-20)
(0.925135 -0.722464 4.59711e-20)
(1.0681 0.00412188 -2.40688e-22)
(1.13081 -0.256285 0)
(0.140023 0.0464497 0)
(0.880992 0.00279266 9.97491e-20)
(1.12033 -0.0475181 -1.74068e-21)
(0.0914709 0.0290492 -5.07994e-20)
(-0.204678 -0.0138053 -1.40991e-19)
(0.00373547 0.00784234 3.29852e-20)
(0.987479 -0.045519 7.15061e-21)
(1.3481 -0.277162 0)
(-0.171647 -0.00265668 0)
(0.237162 0.0580677 -3.82017e-20)
(-0.315337 -0.0106603 1.86248e-19)
(1.05588 -0.0347075 -1.25465e-20)
(1.10175 0.0268876 3.59683e-20)
(1.29923 -0.143868 1.03636e-19)
(-0.0173419 0.00560833 0)
(-0.000418738 0.0078761 0)
(1.13952 -0.0244895 -1.25389e-21)
(-0.166386 -0.00977603 -1.77842e-20)
(1.01433 -0.00155079 -8.39326e-21)
(0.794143 -0.611492 0)
(1.11507 0.0259727 0)
(1.04735 -0.108157 9.37718e-21)
(0.166468 -0.0415372 -7.32798e-20)
(1.03038 -0.0148231 -4.90223e-21)
(-0.118962 0.00316765 0)
(1.1304 -0.0145027 -1.80997e-20)
(0.964769 -0.33123 0)
(0.917612 -0.101037 4.04166e-21)
(0.875972 -0.0860294 -1.01864e-21)
(-0.250262 -0.0141859 1.34362e-19)
(0.99907 -0.00791077 0)
(1.03472 -0.0353441 0)
(-0.180209 -0.0134349 -7.51065e-20)
(-0.279077 -0.00728041 7.95131e-20)
(1.12091 0.0106678 -1.65051e-20)
(1.0176 -0.0117898 0)
(0.993726 -0.13686 -9.85663e-22)
(-0.242934 -0.0045772 -8.29262e-20)
(1.18491 0.0386899 -2.492e-20)
(-0.19684 0.000319606 -3.94694e-20)
(0.528398 0.0233947 0)
(1.12963 -0.0544463 5.60784e-20)
(0.999638 -0.00331565 -1.46936e-22)
(-0.0516047 -0.0349689 0)
(0.881296 -0.420491 -4.4437e-21)
(-0.0885584 0.0126764 8.99736e-20)
(1.12527 -0.00862324 -5.67809e-23)
(0.854574 -0.0816618 0)
(1.17318 0.0511729 -2.27306e-20)
(1.00041 -0.0430057 -2.79559e-21)
(1.0286 -0.000572365 1.2165e-20)
(1.13758 -0.025825 -1.75227e-20)
(1.23442 0.0591329 0)
(0.635265 -0.299653 6.30465e-20)
(1.16621 0.0814412 -3.80607e-20)
(1.02114 -0.00150442 -1.33616e-21)
(-0.322761 -0.0118616 1.0993e-19)
(0.859468 0.106554 0)
(0.97631 -0.0273286 -6.13061e-21)
(1.01362 -0.0426831 0)
(0.89996 -0.104652 -5.56892e-21)
(1.00385 -0.0190301 -2.51347e-22)
(1.09076 0.024828 6.2732e-22)
(1.28983 0.0232589 0)
(1.00227 -0.0278017 -7.98534e-22)
(1.00209 -0.0376767 -6.53685e-21)
(0.99944 -0.007256 7.14734e-21)
(1.02826 -0.05184 3.23888e-22)
(1.00121 -0.0202513 3.36762e-22)
(1.02904 -0.00278996 0)
(0.576907 0.00677769 7.03944e-20)
(1.14132 -0.167155 0)
(1.01498 -0.18282 1.35351e-21)
(-0.20837 -0.0123812 1.28672e-19)
(0.998807 -0.00836222 0)
(1.07736 0.0114397 -7.54593e-21)
(1.08789 -0.0362656 1.4763e-20)
(0.302318 -0.0704788 -3.57145e-21)
(0.140677 -0.247888 0)
(-0.053169 0.0155714 -1.21385e-20)
(1.08141 -0.119455 0)
(0.999605 -0.0069846 -7.04281e-21)
(-0.17228 -0.0170252 -7.95696e-20)
(1.01707 -0.0532291 -3.78188e-21)
(0.0731307 0.0300287 7.25549e-22)
(1.10868 -0.0589515 -2.41781e-20)
(1.20131 -0.169072 -4.2864e-21)
(1.32209 -0.0997935 -6.04729e-20)
(-0.204169 0.00285065 -5.33744e-20)
(0.992537 -0.040426 0)
(1.04052 0.00258491 -7.31606e-23)
(1.0603 0.016823 -4.80751e-20)
(0.268699 0.0626152 -3.66626e-20)
(1.12423 -0.0204595 0)
(1.01835 -0.166012 0)
(1.03454 -0.0031759 2.26108e-20)
(1.27464 -0.0120413 1.39789e-19)
(1.11343 0.0302937 -4.24143e-20)
(1.12627 -0.019283 1.11423e-21)
(0.9774 -0.0884257 -1.64308e-20)
(1.02922 -0.00216408 -9.0182e-21)
(-0.211456 0.00146416 9.9411e-20)
(1.08592 -0.132026 -2.41216e-20)
(1.02312 -0.00631965 0)
(0.346572 0.697035 9.6444e-20)
(-0.183241 -0.0146279 1.14069e-19)
(-0.211619 -0.00793893 1.42974e-19)
(-0.326306 -0.0109676 -2.72463e-19)
(1.1421 0.0773696 0)
(1.02665 -0.00338988 1.78927e-20)
(-0.236248 -0.00859993 0)
(1.25707 -0.00107189 -5.58798e-20)
(1.3284 -0.341307 4.22369e-20)
(1.11979 -0.0957122 -4.25036e-24)
(0.867881 -0.087397 6.41712e-20)
(1.17606 0.0509605 5.76911e-21)
(1.01568 -0.160041 -6.3652e-22)
(-0.166192 -0.0167807 6.50075e-20)
(1.32384 -0.048521 1.03157e-19)
(1.01011 -0.00348141 1.79701e-21)
(1.20372 -0.0252295 6.43653e-21)
(1.17029 0.0544324 -4.20639e-20)
(1.00369 -0.0495832 6.14567e-22)
(0.0419588 -0.096059 4.75962e-22)
(1.07942 -0.00307268 -1.5077e-20)
(0.960698 -0.0858624 1.40211e-20)
(0.10771 0.00950807 -4.62214e-20)
(0.457566 0.077862 0)
(0.997606 -0.0457476 0)
(0.0562696 0.0290313 0)
(-0.0897047 -0.0290992 0)
(1.00411 -0.0156498 2.96168e-22)
(0.999505 -0.0713577 0)
(1.22 0.0613856 0)
(0.437191 0.620863 -4.55845e-20)
(0.665433 -0.333665 4.94451e-20)
(1.02517 -0.00984015 7.1071e-21)
(1.18029 -0.0393135 0)
(1.162 -0.0492902 0)
(0.434691 0.0792617 6.62589e-20)
(-0.101873 0.0152826 0)
(-0.110262 -0.022196 6.04357e-21)
(0.721104 -0.167302 -7.93331e-20)
(1.05431 -0.0352154 0)
(-0.155047 -0.0209906 0)
(1.09139 -0.0296034 3.16012e-20)
(0.757074 -0.00358109 -9.17898e-20)
(1.06644 -0.0638098 -1.40844e-21)
(0.40959 0.0757014 -5.34089e-20)
(0.502638 0.515905 5.83886e-20)
(1.06431 -0.0628556 -4.78765e-21)
(1.00552 -0.00101099 5.17772e-21)
(1.12862 -0.0126952 3.47582e-20)
(0.270161 -0.0440777 -7.29252e-20)
(0.369122 -0.156255 0)
(0.998363 -0.0438714 -3.69836e-21)
(0.984221 -0.0253947 5.22064e-21)
(-0.125282 -0.0121167 6.39671e-20)
(1.02252 -0.0309413 8.44891e-22)
(0.381603 0.186952 0)
(1.03042 -0.554949 0)
(1.0239 -0.00863474 1.33895e-20)
(1.0209 -0.0337106 -2.01955e-22)
(0.185881 0.0509263 0)
(1.11749 -0.0461046 -2.46401e-20)
(0.15654 0.0240565 0)
(0.519639 -0.679509 1.77511e-19)
(1.0018 -0.0570699 -3.40739e-21)
(1.07436 -0.0848731 2.60459e-20)
(1.1522 0.0889879 0)
(1.09279 -0.0523894 -3.29799e-20)
(1.20051 -0.00702471 -8.65312e-22)
(1.15011 0.0884161 0)
(0.824917 -0.0990062 -1.32501e-20)
(1.00249 -0.0269266 0)
(1.02406 -0.00931441 -7.24976e-21)
(-0.0704518 0.0214009 0)
(1.11739 -0.0923921 4.14751e-24)
(1.00103 -0.0192138 2.58265e-21)
(-0.0861392 0.0199468 -2.25975e-20)
(-0.179259 -0.0222188 0)
(1.03542 -0.0452735 0)
(0.540346 -0.542857 7.20981e-20)
(1.02391 -0.0282845 -6.94616e-21)
(1.07664 -0.0840017 4.8235e-21)
(0.990281 -0.0448922 1.06544e-20)
(-0.209002 -0.00015637 -7.44286e-20)
(-0.142873 -0.0145715 -1.27478e-19)
(0.97343 -0.0262479 -8.72019e-21)
(1.03615 -0.0664493 0)
(0.0884791 -0.00428888 0)
(1.10279 -0.00157558 2.48012e-20)
(1.21519 -0.156482 1.74649e-20)
(1.07894 -0.00928672 4.57238e-20)
(1.06006 -0.23402 -2.20075e-20)
(0.981624 -0.0316415 -1.90116e-20)
(1.10111 -0.158363 -7.38247e-23)
(0.996462 -0.0418489 1.86553e-21)
(1.33488 -0.0746121 -9.90339e-20)
(-0.167057 -0.00178022 -7.2135e-20)
(1.07167 -0.0497625 5.83554e-21)
(1.14779 -0.0638399 1.20445e-20)
(-0.0697853 0.020921 -8.49704e-20)
(1.08085 -0.0734143 1.78325e-20)