/*--------------------------------*- C++ -*----------------------------------*\
| =========                 |                                                 |
| \\      /  F ield         | OpenFOAM: The Open Source CFD Toolbox           |
|  \\    /   O peration     | Version:  v2012                                 |
|   \\  /    A nd           | Website:  www.openfoam.com                      |
|    \\/     M anipulation  |                                                 |
\*---------------------------------------------------------------------------*/
FoamFile
{
    version     2.0;
    format      ascii;
    class       volScalarField;
    location    "400";
    object      ddt0(omega);
}
// * * * * * * * * * * * * * * * * * * * * * * * * * * * * * * * * * * * * * //

dimensions      [0 0 -2 0 0 0 0];


internalField   nonuniform List<scalar> 
14804
(
1.50103e-10
1.54389e-10
1.49423e-05
-2.9309e-10
-1.35875e-08
-1.58828e-08
7.68417e-06
3.38574e-09
-1.36461e-07
3.20441e-09
1.15405e-05
-0.000326197
-0.000400877
0.000180764
-5.17804e-06
-9.78883e-09
4.36462e-05
0.000152542
-8.76335e-09
-5.26182e-11
-1.07099e-09
-1.43874e-08
-1.1211e-06
-6.75247e-09
1.98633e-05
4.15784e-06
1.69253e-05
-1.28434e-09
-4.90564e-06
-1.20274e-05
-0.000312873
4.68141e-05
2.10093e-08
-3.76296e-10
-1.44091e-05
-4.77676e-10
-2.16953e-10
-3.47622e-09
0.000198065
7.05267e-10
0.000147504
2.63107e-06
1.36314e-05
8.80962e-09
3.98582e-05
0.000143435
-1.97642e-05
-3.02083e-10
-1.63531e-06
-7.6821e-10
-1.52568e-09
-1.55174e-10
-6.18277e-09
-1.22811e-06
2.34438e-08
-1.29323e-09
1.03374e-05
2.98489e-06
-2.2971e-05
-7.88631e-05
3.53942e-06
-1.32454e-05
9.42314e-10
2.72928e-10
-3.8e-09
-0.000272625
0.000200563
3.42695e-08
1.13111e-08
1.06087e-08
8.70479e-09
1.18183e-08
-6.77858e-09
1.09847e-07
9.93642e-06
-1.53991e-09
-2.65336e-09
-8.43761e-07
1.36126e-09
2.87864e-06
2.67898e-06
-2.3002e-05
3.00161e-08
9.78549e-06
-9.85884e-10
-6.10391e-09
2.54595e-10
5.28392e-10
1.1188e-08
6.76768e-09
0.000103095
4.10825e-10
4.89845e-10
1.9937e-10
2.18869e-08
1.95385e-05
6.07412e-10
8.11703e-05
1.80851e-08
-3.0105e-05
0.000256056
-5.62544e-05
2.80188e-06
-1.00429e-08
3.04736e-06
0.000127125
-3.66983e-09
1.77409e-10
1.98954e-08
0.000213683
1.10013e-09
-1.50251e-09
-0.00373479
1.92472e-07
-4.42852e-08
1.7254e-05
-9.11373e-05
-3.40712e-06
-8.77507e-09
-6.59584e-09
9.01359e-06
-1.10538e-05
-4.73059e-10
-1.24489e-06
-7.92898e-09
1.9909e-07
5.77779e-10
3.35088e-10
-4.03541e-08
5.62539e-07
-5.84623e-11
7.03832e-06
-1.01008e-07
4.49178e-05
-4.14505e-09
2.32955e-05
0.000564361
-2.16985e-07
1.2208e-05
6.95414e-05
-2.05434e-10
-8.66054e-08
-2.71943e-07
4.97463e-09
-0.00109046
1.60289e-08
5.28131e-07
0.000471696
3.70195e-06
2.5705e-08
0.000226183
-9.12645e-11
6.38738e-06
-0.00814147
2.72851e-10
-1.11366e-10
-2.14525e-05
1.11389e-08
1.54602e-09
2.7714e-06
-1.41573e-09
-3.32987e-09
4.60167e-10
-1.34307e-07
-6.81555e-08
0.000634455
8.70267e-11
4.57583e-08
-6.77848e-05
1.29636e-08
-1.62979e-09
-5.72132e-09
-4.73366e-05
1.54893e-08
-0.000150377
1.37326e-06
0.000250988
-0.00023242
-4.03844e-05
-0.000319569
-6.01426e-09
-1.52223e-06
-3.34421e-09
0.000136913
1.33633e-09
1.74089e-05
6.19101e-05
2.24134e-06
0.000111609
1.81267e-10
1.55101e-08
-1.95179e-06
-0.000265431
-0.000325232
0.000221095
0.000111844
0.000119351
1.92892e-06
-3.23602e-09
-6.25326e-05
2.44763e-09
5.75417e-09
-6.72248e-09
-1.01506e-05
-1.69496e-08
1.51983e-06
-0.000312267
-0.000212781
-7.94004e-08
8.01377e-10
6.98646e-10
1.2419e-05
-4.92857e-08
-2.78416e-10
-5.53861e-05
-9.25897e-11
0.000222034
3.82761e-10
-0.000116649
-0.00021946
4.91649e-07
8.33534e-05
5.68235e-10
-0.000234157
1.75321e-05
-1.54357e-05
1.49509e-06
-2.24738e-11
0.000171104
0.00043065
-8.39061e-07
0.000238845
2.22117e-09
5.13138e-10
3.04515e-05
-3.79115e-09
3.5131e-07
0.00012173
6.87412e-09
3.83067e-05
0.000141167
-1.17892e-06
8.06063e-05
-1.07585e-06
1.75449e-09
1.19829e-10
-5.73836e-07
3.64845e-06
-1.75819e-08
1.80692e-09
1.0136e-05
-4.72399e-05
-4.65718e-09
-4.80486e-08
-3.21236e-10
0.00042366
1.35405e-05
5.56504e-06
-6.40088e-05
-2.58037e-06
-5.9558e-08
-0.000130606
6.33118e-11
-1.55661e-05
1.41118e-08
8.42196e-06
3.17769e-10
0.00041857
0.000228807
5.33173e-10
-1.3849e-09
2.23391e-05
1.01897e-05
7.53633e-05
0.000153635
8.2812e-06
5.18575e-10
-1.79738e-05
8.67057e-10
5.74547e-05
3.07252e-10
3.42987e-07
2.55637e-09
-3.12773e-07
6.22802e-09
1.27205e-06
-6.33501e-09
1.0324e-05
-1.63765e-09
2.23695e-06
1.52464e-05
7.21866e-06
-0.00040322
-1.1145e-05
-3.20681e-09
-1.56973e-08
3.90702e-06
-1.76577e-09
4.97102e-08
-2.80551e-10
-7.28679e-11
8.79642e-08
-1.84693e-09
-9.86253e-07
4.23777e-10
-0.000761513
-6.37275e-05
1.39335e-09
-0.000264558
1.5483e-06
4.56413e-10
5.19019e-10
2.06478e-05
-3.7468e-10
0.00024304
-1.86416e-09
2.23053e-06
-4.86155e-10
-0.000203682
-3.49827e-10
2.97045e-09
-2.25908e-09
-7.2476e-06
-0.000214172
-1.26519e-09
2.6461e-12
5.36452e-07
1.77839e-05
2.55715e-06
-6.40047e-06
3.73523e-06
-3.87142e-09
-1.4599e-09
1.63955e-05
-3.47648e-09
1.21104e-06
0.000218142
2.22483e-05
1.91503e-05
1.74406e-06
1.9262e-06
1.39813e-05
-7.58598e-05
1.84325e-05
-4.09714e-08
-2.94205e-09
-0.000157028
-0.000165497
4.76799e-09
-1.02622e-10
1.2986e-07
-2.15843e-09
-6.58645e-10
-4.02972e-05
1.68692e-09
1.70563e-08
7.77171e-05
1.15787e-09
-0.00024083
5.01088e-10
2.23841e-06
8.27833e-10
-2.14215e-05
-2.03835e-05
1.9323e-05
1.25325e-07
1.04653e-09
-0.000984797
-2.0357e-05
1.67707e-06
2.88957e-08
3.30238e-06
1.27662e-08
-0.000139739
-9.85568e-07
1.20195e-05
0.000282968
-0.000101632
-1.25792e-10
-1.54978e-06
5.41409e-10
-5.91056e-05
2.01673e-05
-7.45798e-10
1.77207e-09
3.67116e-10
-5.70068e-10
1.02282e-09
1.44461e-05
6.58466e-10
2.97327e-06
9.33692e-07
-4.4383e-08
-3.79783e-10
1.22107e-09
-1.30044e-06
-0.000126554
1.65172e-07
-7.78987e-05
3.09301e-05
-7.15036e-09
-7.93298e-06
2.51742e-06
2.49705e-06
-2.29828e-05
-1.64963e-08
-3.9472e-06
-3.53473e-10
-3.53132e-06
-1.11297e-10
-3.55994e-12
-0.000351377
4.69041e-05
4.0723e-06
-9.16031e-06
-2.68474e-09
-0.000424225
7.85167e-10
9.61419e-09
-1.31572e-08
-0.000871744
-9.37854e-10
-1.5251e-05
-1.87704e-05
1.30921e-08
8.25005e-10
1.36789e-05
-6.40081e-05
-0.000184173
6.23925e-10
3.59304e-09
-7.23442e-09
-0.000361778
-4.5527e-06
-2.67729e-09
-4.15323e-05
1.42531e-05
-5.17007e-05
9.20042e-10
3.11871e-05
1.90658e-06
-6.27254e-09
-7.65538e-06
-3.51006e-10
-3.31018e-07
-1.25237e-06
0.000142845
1.1494e-08
2.92462e-09
-0.000233217
-9.5901e-06
0.000222439
2.34958e-05
-5.77597e-05
1.20513e-06
6.32629e-10
-0.000285344
-1.15035e-10
-2.48315e-06
5.13628e-07
7.08865e-11
-1.04632e-06
1.95236e-08
2.64746e-05
-1.90463e-09
0.00112741
-3.76819e-07
8.18974e-07
2.05912e-05
-6.04801e-09
-2.03001e-09
-3.23574e-10
2.69983e-06
-0.00248543
-0.000186121
0.000106815
-7.9632e-09
-1.42532e-05
2.65388e-08
-3.25966e-07
1.42537e-09
6.03992e-05
-5.52138e-05
-8.03459e-06
1.84828e-05
-0.000249852
-0.000958305
-4.5712e-09
-1.7261e-05
2.26319e-06
3.17012e-05
2.48751e-07
4.36619e-06
-0.000293045
1.23906e-05
9.37823e-10
2.54195e-09
-3.65723e-05
-2.86446e-10
4.73009e-09
7.78356e-08
3.48572e-09
2.16483e-08
-2.71991e-06
-1.98151e-08
-2.55671e-06
9.55142e-06
1.725e-08
-7.50286e-09
-8.46465e-06
1.12335e-05
3.22772e-05
-0.000282888
3.01531e-09
0.000111369
0.000179283
2.15973e-06
3.07064e-05
-5.42916e-11
6.22787e-07
1.21372e-08
1.48377e-05
-1.26211e-05
-3.09913e-05
1.77657e-06
1.95547e-06
7.38019e-07
0.00104507
6.99331e-06
0.00638833
0.000380459
-8.10829e-11
3.23246e-06
0.000154635
-0.000280454
1.14019e-09
0.000367755
6.93772e-09
0.00011946
0.000388908
7.65197e-11
0.00104417
1.43608e-10
1.6436e-06
1.99698e-07
-2.96838e-08
0.00997237
-2.90655e-10
-6.48065e-09
-7.783e-10
-9.54395e-11
6.58539e-10
-3.32258e-11
1.78435e-10
6.44939e-06
1.27915e-09
0.000152479
0.000594522
3.15288e-09
-1.36771e-06
8.27564e-10
-4.0194e-06
-3.08227e-10
-0.000400691
-1.59164e-09
9.30445e-05
7.94775e-10
9.76883e-05
-7.52342e-06
4.00513e-09
-4.12424e-08
-0.000137591
1.37168e-05
0.000161586
-7.648e-07
2.12046e-07
-2.67962e-05
-1.73535e-05
-1.41642e-05
1.02201e-10
-1.36031e-05
-2.58603e-10
-6.39626e-06
-0.000479123
1.31862e-07
2.47029e-06
2.77318e-11
3.44726e-10
3.96555e-10
4.69401e-10
-3.16068e-05
-5.97215e-09
0.000183585
-0.000129954
0.000184493
5.44508e-06
3.43863e-05
2.4454e-05
8.93235e-06
-1.02185e-08
-0.000168205
5.80803e-06
-2.6536e-10
1.95549e-07
1.95776e-05
0.000167835
1.69364e-08
0.000110826
7.14396e-09
1.07304e-06
3.10722e-05
6.20354e-09
0.000147218
2.08635e-05
-2.81989e-05
2.97326e-05
0.000169003
6.71286e-09
9.84521e-06
-1.9132e-09
4.24368e-05
-8.48047e-07
5.61987e-07
-8.96523e-05
2.49696e-08
1.5363e-08
-9.95251e-05
1.83725e-08
0.000179004
5.55902e-09
-2.67537e-10
1.48796e-09
2.01275e-05
-3.86367e-11
2.64971e-09
1.40391e-09
6.25446e-06
0.00049967
-1.03276e-05
-6.15852e-08
-0.000238211
-0.000218361
5.33766e-09
-1.04995e-06
2.55364e-10
1.90876e-09
-6.98203e-09
4.89484e-10
2.25671e-10
-3.60372e-06
0.000150036
0.000168682
-4.15718e-09
-1.07123e-09
-3.17933e-05
0.000110634
-0.000148314
1.12722e-06
-0.000197245
-1.73874e-06
-0.000115689
-1.42474e-09
-1.45317e-05
5.51536e-10
4.07208e-08
2.60982e-05
3.21059e-05
-4.84098e-06
-1.16975e-05
1.58682e-09
-0.000250215
-4.5516e-07
-1.0265e-09
7.97217e-05
-7.09901e-07
-3.82163e-09
0.00115134
-3.74275e-07
-2.99758e-05
-2.39174e-06
1.82076e-09
-5.79296e-06
9.29553e-05
3.10689e-05
-1.05746e-06
1.36404e-09
2.08356e-05
-3.95138e-09
-3.48261e-10
1.85527e-07
-2.59639e-10
-0.000276161
0.000189783
-2.5277e-08
1.6873e-07
1.84878e-09
-6.70731e-08
-4.23905e-06
-4.85911e-06
0.000201902
-7.64636e-09
6.96309e-05
-2.13834e-10
-2.37702e-10
1.36109e-05
-3.17393e-06
1.29576e-05
2.90254e-06
-4.99356e-09
2.33297e-05
-2.29808e-10
-8.5743e-06
1.93383e-06
1.7794e-06
-0.00020704
-0.000117299
2.29992e-09
-1.93003e-09
-3.7282e-05
0.0015742
-0.000123223
-8.24374e-09
1.89871e-10
2.12716e-05
-3.70845e-05
-0.000399199
6.97889e-10
-3.5599e-09
-3.6619e-10
0.00148624
5.67832e-05
-4.3556e-05
5.66472e-05
-8.12901e-05
0.000102368
-3.50626e-10
3.67506e-09
5.93445e-11
2.04568e-05
-8.55537e-08
-1.85715e-06
-3.1954e-05
-2.92049e-10
-1.53e-08
2.04581e-05
4.01322e-07
0.00099892
1.70248e-09
3.97018e-10
1.39855e-09
4.52175e-07
-7.57807e-07
-0.000413919
-1.26789e-06
0.000103004
-1.96706e-07
-0.000129136
-6.56167e-09
1.00275e-05
1.0168e-08
-3.99902e-06
2.81226e-09
-8.64942e-05
0.000146308
7.5128e-06
2.44389e-05
1.71319e-10
-5.38866e-10
1.66659e-05
0.000241377
1.4306e-05
-9.94987e-05
2.75638e-09
-8.6424e-10
-0.000115384
-1.25855e-06
3.58414e-07
-3.86499e-09
-0.003732
0.000778052
2.57738e-06
-1.22277e-08
-5.588e-09
1.49105e-05
-1.44781e-07
-6.66633e-05
-6.32985e-05
1.64621e-07
2.94423e-09
-1.74337e-05
-0.000155391
9.04732e-07
4.47333e-10
-7.57386e-08
5.44097e-11
-1.07387e-06
9.38912e-06
-5.32802e-05
2.156e-09
3.74706e-10
-0.000339399
6.31065e-10
1.26076e-09
0.000148594
1.40307e-09
1.26623e-08
-2.69284e-10
-1.08521e-06
-1.62461e-09
-1.32206e-05
1.85225e-05
2.33983e-10
1.47235e-05
3.5162e-09
1.4618e-05
-6.40427e-11
2.80152e-09
2.95522e-06
-0.000370307
2.02287e-05
-2.02153e-07
0.000332744
-1.55958e-07
-1.28349e-09
1.9942e-05
-3.34847e-10
-7.00448e-11
1.78223e-10
-1.14595e-10
1.76782e-05
-4.81897e-10
3.40818e-09
5.63934e-05
-1.55655e-10
9.05935e-06
-2.34369e-08
0.000550021
-3.71718e-10
2.13346e-06
-8.25883e-06
1.89424e-05
0.000175758
5.12557e-09
-6.21438e-05
-0.0002755
-2.58168e-05
3.90648e-10
-2.68345e-06
4.37597e-08
-1.35988e-08
-1.19192e-08
-3.21102e-10
6.53717e-06
7.5189e-06
3.56717e-08
-3.41737e-05
4.09599e-09
-6.27657e-06
-0.000229715
2.0004e-05
8.77369e-10
-4.14559e-09
8.15447e-05
1.63255e-05
-1.03672e-10
2.44478e-10
1.57325e-05
-1.34643e-06
-2.47848e-05
1.18609e-05
3.16071e-07
1.22264e-08
-7.22763e-10
0.000159684
-4.0235e-10
1.55655e-10
1.3297e-07
4.09209e-06
-4.80268e-10
-1.87967e-09
1.41913e-10
-1.49234e-10
1.19743e-07
-6.99611e-09
4.43315e-10
-2.37106e-05
0.000209683
-0.00102662
-0.000138997
0.00121174
-2.39283e-10
8.90386e-08
1.47229e-06
3.40607e-09
-3.31561e-09
1.30559e-06
6.06441e-10
5.64252e-05
8.96311e-06
-3.66216e-08
-7.35702e-10
-3.68862e-10
-1.4467e-06
-4.80399e-09
-4.14043e-06
-1.643e-06
4.05583e-08
5.94498e-05
-8.14475e-05
-7.91264e-08
1.34675e-06
-1.43681e-10
2.68544e-07
0.000553277
2.44579e-07
-9.35028e-07
0.00032386
-2.92697e-10
0.000117368
1.84127e-05
-1.90943e-09
1.33566e-08
1.21396e-08
-7.07717e-09
2.07827e-05
4.11331e-06
1.15607e-07
3.66501e-07
-1.13976e-08
8.93159e-10
1.14747e-09
-3.40714e-11
3.87689e-09
-2.49614e-11
6.72973e-05
-0.000106596
9.01302e-10
-0.000165933
2.17146e-05
-0.000317265
-3.91263e-08
-8.58549e-08
0.000267967
1.81718e-05
-0.000269873
0.000488691
-3.67318e-09
-3.26331e-07
-2.2065e-05
2.02627e-09
-1.01705e-10
-3.3854e-09
-6.41309e-10
-1.32747e-05
-4.49504e-07
-2.18163e-08
2.00665e-07
-0.000519494
-5.59509e-05
1.165e-09
2.72234e-06
2.37558e-05
2.30174e-09
4.27763e-09
5.45918e-07
9.25942e-09
-2.0491e-09
1.57007e-09
-0.000372311
3.3818e-08
1.62686e-05
9.22865e-05
5.35496e-07
9.19116e-06
1.12149e-05
-2.13668e-05
-1.56669e-10
-2.28022e-10
9.23337e-09
-0.000211412
-7.87939e-10
-2.65823e-06
-2.93422e-05
6.89931e-05
-1.68168e-09
1.74919e-05
0.000195134
-1.43327e-06
-4.27173e-07
-2.26038e-09
-3.58955e-06
7.35419e-06
-4.06803e-07
-4.02401e-06
-2.11504e-10
0.000161643
-2.56452e-08
-8.57686e-10
-0.000220997
-0.000359603
-3.08475e-09
-0.000302082
5.05833e-05
-2.60557e-10
3.93292e-05
-0.000587379
-5.46117e-05
-3.94871e-09
6.21345e-07
-5.44411e-06
6.95749e-09
0.000152586
-4.62893e-10
-8.28233e-06
-1.00506e-08
-2.73129e-06
-8.40243e-10
-2.72187e-08
6.72276e-06
-2.23812e-09
2.24347e-05
-8.41516e-05
-1.20937e-05
-5.82111e-06
-2.64908e-07
-1.24129e-05
5.85343e-06
-3.63324e-10
6.61622e-09
5.973e-09
-8.57064e-10
-0.000241058
6.84342e-08
5.94322e-10
-6.42424e-05
1.16077e-05
-3.96003e-10
2.12682e-10
9.50593e-08
6.46425e-06
8.13437e-11
7.37813e-10
5.12566e-09
1.36036e-09
0.00045892
2.77774e-06
-0.000209748
-1.09356e-06
1.45914e-05
0.000372987
-0.000275348
-0.000252901
4.58339e-09
0.000116104
-2.04103e-05
0.00130299
1.8448e-09
8.08618e-10
1.3918e-09
-2.57843e-05
1.81518e-06
-5.51375e-09
0.000172535
-5.3112e-10
1.20308e-08
1.65399e-05
0.000179691
-3.03078e-05
5.72239e-10
8.81351e-09
-8.55637e-09
-3.26568e-10
8.72615e-06
-4.60198e-09
7.5502e-08
6.20437e-10
-1.03295e-05
1.14377e-08
9.88313e-08
1.59802e-09
4.68707e-06
5.40389e-06
7.01051e-10
-2.5599e-09
7.94159e-05
6.73539e-10
-0.000582084
1.62093e-06
7.93687e-08
-2.97902e-10
3.83711e-06
-1.7421e-08
-0.000271074
4.01346e-10
1.20338e-05
-1.85115e-05
1.86097e-07
2.1882e-05
3.6893e-05
-4.38202e-09
-8.12929e-06
2.03405e-06
0.000347585
-5.92795e-05
-7.36276e-09
0.000156964
2.15259e-05
-8.08332e-06
-4.48311e-10
-7.87628e-08
3.69661e-09
-6.91616e-05
1.03523e-05
1.10639e-08
1.39677e-05
1.29627e-05
-1.18009e-10
8.03903e-09
0.000136361
-0.000158818
1.9667e-06
0.000139501
1.4893e-05
9.62926e-06
1.41667e-08
-1.233e-08
-6.74362e-06
8.40677e-06
1.09673e-05
5.67566e-06
2.33525e-10
0.0008183
8.81235e-10
1.15308e-08
5.66405e-05
3.2043e-09
-5.67209e-06
5.53447e-10
1.49334e-10
-2.20872e-09
6.61176e-09
2.34082e-10
-0.00168187
-3.2296e-09
2.49659e-05
-0.000137705
1.98102e-09
1.41986e-07
-1.39384e-05
-2.14722e-05
-6.03913e-10
1.11295e-09
-5.56412e-10
2.82739e-05
-1.96791e-08
0.000106578
-2.15095e-08
-2.17064e-08
1.15341e-05
-1.29979e-05
5.97846e-05
8.77716e-06
1.43319e-07
-1.37961e-09
-0.000160845
0.000113189
-2.02343e-05
-7.28884e-10
1.0942e-06
4.48295e-10
2.22497e-10
3.8191e-09
2.87614e-08
4.26531e-06
3.41745e-06
1.08888e-05
3.44102e-05
-3.93357e-05
-4.51829e-05
-4.13049e-06
1.27485e-07
-3.46249e-08
-0.000281851
-4.5285e-09
4.42354e-06
3.37376e-09
-1.98863e-07
0.00017103
1.67717e-09
-2.12673e-06
0.000193316
-5.73584e-05
-5.25716e-07
4.41917e-09
1.29696e-09
3.5648e-09
-0.000431439
1.02726e-06
1.03812e-05
1.32128e-05
0.000161461
1.48684e-05
3.06445e-05
1.60468e-05
0.000193137
8.13299e-07
7.66242e-07
-6.70063e-05
5.52599e-05
1.07023e-06
-4.7671e-08
8.45859e-05
6.35011e-07
-9.67526e-05
-0.000126616
-2.91471e-05
-1.06808e-09
-6.20584e-05
4.06546e-05
0.001465
0.000137941
1.0946e-06
3.58443e-10
5.36442e-10
-0.000131047
-1.92888e-08
2.5475e-10
-4.43411e-10
-3.06372e-09
-6.11618e-11
-0.000426057
7.7063e-06
-2.26105e-05
4.05291e-09
0.000387121
6.55578e-09
-0.00522512
9.56291e-11
2.04273e-05
4.43798e-05
-1.57716e-08
-0.00121257
1.80104e-09
2.8127e-06
6.07038e-06
4.29878e-07
-4.45592e-09
-6.2739e-11
4.91204e-09
-1.81944e-07
-1.19582e-06
3.88079e-07
2.61933e-05
8.28252e-08
0.000263132
2.07505e-07
-0.000131496
-0.000354838
-1.68175e-06
6.70154e-05
-1.37759e-05
1.48864e-07
2.4328e-07
9.44215e-10
2.76171e-07
-2.73196e-09
9.79669e-05
-2.17529e-06
4.98885e-10
5.87127e-10
-1.94781e-10
3.39344e-06
-4.84216e-08
7.25328e-06
1.67938e-05
4.20519e-10
-2.5644e-06
1.29489e-06
2.59216e-09
-0.000773973
-3.64063e-10
-7.33085e-11
-3.03962e-11
-2.02817e-06
1.26966e-05
-8.8605e-05
6.58648e-05
2.35836e-09
-2.69407e-06
4.31316e-05
-2.41949e-10
2.5205e-05
-1.76071e-05
0.000126262
-2.31766e-08
-3.13788e-05
1.5992e-06
-3.89281e-05
-4.45398e-10
-3.07246e-08
1.73137e-06
-7.87779e-06
7.6351e-08
-0.000187416
-8.35859e-06
2.35505e-09
1.6786e-05
-7.1567e-08
3.22081e-09
7.82584e-10
-2.02519e-09
2.60538e-07
6.01326e-09
2.98537e-05
1.5928e-06
-1.23138e-05
1.13921e-07
-2.49409e-05
1.37695e-05
2.21694e-08
-1.11439e-05
-1.18078e-05
-0.00418112
-4.06059e-10
-5.92127e-05
-3.84776e-10
9.59487e-06
1.91512e-05
-2.64018e-07
-6.6691e-05
-2.18408e-06
2.44991e-06
-0.000495678
2.41817e-09
-4.28486e-09
1.23341e-05
-6.40381e-05
3.73525e-09
-0.000321699
-4.97732e-07
-0.000117063
-1.79445e-10
7.11906e-06
-7.01581e-06
-5.26889e-06
2.92522e-09
-2.36145e-06
3.46046e-10
-2.33852e-09
-6.10224e-05
-7.05354e-05
1.78882e-09
-3.9386e-09
5.34616e-06
1.28219e-05
1.57063e-10
1.82812e-08
3.39697e-09
1.77778e-05
-2.66406e-09
-2.92722e-05
-2.78582e-10
-4.29393e-08
-1.48815e-06
1.06253e-08
4.08988e-05
-4.33157e-07
-3.60932e-09
1.3278e-06
0.000280162
0.000363405
2.1217e-10
-6.04599e-09
0.000153934
-0.000577671
-0.000105949
4.81476e-06
-2.66006e-09
-3.02998e-09
2.58706e-05
-5.30701e-10
8.95766e-06
8.60804e-05
-2.02704e-10
1.06338e-05
-5.54309e-10
-4.6109e-05
5.67471e-07
3.25159e-05
0.000189679
0.000238846
6.72712e-07
2.97138e-06
2.01404e-08
-7.32002e-07
6.99182e-09
0.000471434
-4.62559e-05
-3.49481e-09
-5.35679e-10
6.4564e-10
2.77268e-07
-4.51804e-05
3.08421e-05
2.0104e-05
-3.45306e-11
1.40072e-09
7.5819e-06
7.82504e-07
-2.6897e-09
5.52567e-10
-9.73577e-06
0.000496281
1.2913e-10
1.40715e-08
-1.36324e-10
2.16569e-06
1.14401e-08
-2.27257e-10
1.30478e-10
-1.37151e-09
-0.00012287
1.36543e-05
3.25552e-06
1.95653e-05
-0.000161497
4.08617e-09
2.29723e-09
0.000397924
1.71588e-05
-0.000173204
9.78862e-07
-6.35554e-05
0.000262152
-1.52927e-09
-3.59212e-09
-3.8889e-11
-9.78797e-10
-3.15596e-05
-0.00019366
-6.2768e-05
2.89732e-05
-0.000577886
1.03906e-05
-0.000364389
-5.7146e-05
0.000413985
2.86521e-09
9.69991e-11
-4.56681e-09
-3.81579e-09
8.30112e-07
-5.80329e-05
-9.16112e-09
1.71538e-07
-1.38855e-09
4.01906e-11
5.66816e-06
1.67935e-08
0.000133928
-9.68722e-10
-1.24095e-05
-2.39498e-07
-0.000416678
7.19307e-08
-0.000133348
1.18845e-06
1.02514e-09
6.04813e-05
0.00059629
3.65336e-05
-6.10164e-10
-1.42384e-06
-3.8738e-10
0.00019015
3.19485e-08
-2.237e-06
2.84813e-09
-6.07722e-06
-1.39594e-05
-1.72969e-10
8.76332e-08
-2.05428e-05
-0.000316491
-5.29654e-06
1.87362e-07
2.07015e-06
4.99029e-10
-3.8493e-05
-1.38164e-05
7.32609e-10
2.53638e-08
-6.18048e-07
1.63498e-06
-3.93319e-05
-5.77186e-07
-1.53788e-05
-2.64472e-09
3.19752e-09
1.39697e-10
-8.80855e-08
1.54217e-07
-0.000804033
1.60749e-07
-0.000205236
-1.11064e-05
9.88968e-06
2.08229e-05
2.89217e-05
-3.62296e-06
6.01648e-06
-6.54913e-07
-3.53237e-09
-3.22002e-09
7.25547e-06
9.30046e-05
-6.32168e-06
-3.55125e-09
-5.66947e-09
1.47691e-09
-6.54041e-10
-5.30035e-11
1.05468e-05
3.47652e-05
1.77825e-09
3.16869e-10
-5.12455e-10
-6.159e-06
-3.10288e-06
3.10207e-09
1.17994e-05
-4.14031e-10
1.96369e-05
-0.000165921
0.00029564
2.13695e-05
-4.81339e-05
0.000384482
-9.3177e-05
0.000163304
-3.46303e-08
2.03856e-07
-0.000147817
-3.73795e-07
-9.71027e-10
-0.00176512
-0.00048503
1.19161e-05
-4.67291e-09
1.3636e-09
3.17108e-09
0.00108949
-9.5114e-06
-3.56428e-05
9.07691e-06
0.000131334
9.8034e-05
-4.16198e-05
-1.02376e-05
2.76312e-05
-2.82459e-08
1.88207e-09
1.46221e-09
2.44255e-07
1.60446e-08
-0.000122428
7.81081e-06
4.51061e-09
3.06016e-05
-9.40108e-06
-6.62219e-09
5.18312e-09
3.19683e-10
-3.96836e-08
-4.77653e-05
-7.07485e-06
-4.88128e-07
9.9312e-07
-1.22834e-09
4.82801e-09
7.12064e-05
-0.000178568
2.66233e-05
-3.09664e-05
-9.47411e-10
-3.32025e-07
1.33049e-08
-2.06021e-09
-1.72329e-10
-2.81929e-07
2.1151e-09
-4.01315e-09
-3.05626e-05
-0.000139859
1.05114e-09
5.74303e-06
-4.18246e-08
-4.05913e-05
-0.000221895
-9.08112e-07
-3.50312e-10
-5.04347e-06
-3.71116e-10
-1.57951e-06
9.68835e-05
1.71778e-05
-1.45399e-06
9.30909e-05
-5.02126e-10
1.71735e-05
-3.46023e-05
-3.0162e-08
-1.27681e-08
1.61763e-06
3.53491e-05
4.59267e-10
5.65976e-09
7.59653e-10
-0.000172357
-2.22389e-05
-1.84601e-08
-1.78733e-05
6.09605e-07
-6.80084e-09
-6.44647e-10
2.02372e-05
-0.00366166
-4.20201e-10
-2.28776e-06
4.71966e-05
-0.000134478
-1.88955e-09
-6.94013e-09
0.000221694
1.55197e-05
4.19568e-05
-1.2546e-08
-3.16853e-07
-1.2388e-05
-1.49345e-05
-0.000429837
2.1049e-07
1.71343e-05
1.47243e-09
0.000325407
-1.64886e-10
1.19688e-06
-8.44555e-05
3.91146e-10
-3.1794e-05
-5.21901e-08
4.91086e-09
-1.37306e-09
6.00409e-05
2.28349e-08
-1.51206e-08
7.34832e-08
-2.43983e-08
4.89942e-05
1.92935e-05
8.4186e-06
-2.69179e-06
-0.00041213
1.19124e-07
-3.9026e-10
7.09838e-05
-3.68967e-08
-1.50773e-08
-4.60415e-05
-1.18914e-09
1.63929e-09
2.93854e-07
-5.09951e-09
-0.000168078
-0.000108421
2.95729e-08
6.43276e-05
1.87863e-08
2.22208e-08
2.88018e-06
-2.87129e-06
-1.12811e-05
-3.49531e-07
-1.45217e-10
1.02047e-08
9.8972e-05
4.59783e-08
-3.53711e-07
4.62101e-05
-4.93192e-07
-1.04324e-08
0.000135075
-2.15524e-05
-6.34374e-09
2.51537e-06
-3.00314e-05
-2.42756e-06
-9.57287e-09
0.000116816
5.06853e-05
2.97826e-07
0.000116275
6.36225e-06
-1.03207e-05
-4.69782e-05
1.43494e-07
-0.000685392
-1.71988e-05
-3.70586e-05
1.17342e-05
-1.88295e-08
-3.54245e-07
1.81963e-05
-0.000232876
-0.000198098
-4.45112e-06
1.39175e-07
-0.00053927
-2.80077e-05
-0.000132462
-3.69119e-06
-8.59045e-07
-4.24399e-09
-9.05228e-05
-6.80895e-06
-0.00020482
-1.00878e-09
-3.37565e-07
-8.95452e-05
-6.29864e-07
-2.22517e-06
-1.25269e-05
2.35865e-10
-1.87388e-07
9.32535e-08
0.000104009
0.00183256
6.7002e-07
2.9165e-06
-3.4044e-06
5.55716e-05
-1.32266e-08
-5.1682e-07
-1.6769e-06
0.00058993
-4.24973e-09
-6.38694e-05
2.79144e-09
9.44079e-10
4.27934e-10
1.86849e-09
-2.91564e-06
-5.64022e-10
4.05452e-10
4.63993e-08
2.9552e-09
-5.54189e-10
-0.000162992
3.86074e-07
-7.26015e-06
0.000745767
-8.99504e-07
3.49437e-07
-0.000574245
-5.092e-07
-8.4083e-10
5.29322e-11
2.14358e-05
2.77027e-06
-4.3765e-09
-1.14648e-09
-1.94646e-09
5.13247e-08
1.21738e-07
0.000516582
9.11143e-08
1.04814e-09
-1.52289e-06
-7.36789e-05
-1.65444e-08
1.89219e-09
-3.83538e-09
1.2066e-05
1.39722e-05
1.1877e-08
2.11272e-05
-0.000115016
0.000353962
-4.9866e-06
3.00798e-05
-6.28817e-10
0.000844534
-1.02288e-08
-2.23036e-10
-3.54348e-10
6.79655e-07
4.26234e-08
-4.41921e-10
-1.62462e-08
-6.43722e-08
4.16242e-06
-0.00015052
-2.59778e-08
-7.70528e-10
1.09447e-07
9.78175e-05
8.50287e-10
-4.31144e-05
-2.58493e-10
-1.68626e-05
5.46418e-10
-2.04352e-10
-4.88746e-06
-2.55423e-09
-1.15607e-08
-3.1666e-08
-2.82541e-10
-9.0484e-05
-2.86055e-06
-2.74386e-08
4.48129e-10
-0.000346982
-0.000637724
4.94775e-08
-0.000199941
-1.397e-05
-1.8666e-07
1.77462e-05
8.54167e-05
-6.36758e-05
-2.19191e-07
8.64548e-05
2.92073e-08
8.85794e-06
4.97985e-06
-1.82287e-09
-9.69536e-06
-4.66661e-09
-8.3738e-05
-1.90441e-08
3.92501e-05
-1.45141e-09
9.15526e-08
3.15935e-05
-7.54731e-05
-1.70541e-05
-1.43081e-06
-4.11836e-10
0.0256979
-2.38208e-05
-5.92991e-07
-1.37363e-05
-0.000545676
-0.000216845
2.15309e-10
4.42406e-09
-1.26844e-06
-0.003955
6.27526e-05
0.000705382
8.2673e-12
5.10991e-05
6.04908e-10
1.30248e-05
-4.26051e-05
4.27473e-08
-0.000253956
-0.000213947
6.74753e-11
-8.27562e-05
1.21241e-08
3.77648e-09
-0.00050392
-1.44227e-10
-0.000249928
8.32303e-05
-0.000191552
8.74388e-06
3.1845e-08
-1.69862e-05
-9.53462e-05
1.55404e-06
1.65293e-08
-3.12711e-09
2.85295e-05
1.06837e-08
-0.000406421
-2.56392e-08
1.06087e-09
-1.65594e-09
7.88968e-05
1.44689e-09
1.70014e-05
0.000559981
8.13144e-05
-2.90007e-12
-0.000378199
-5.66747e-05
0.000113068
-1.23399e-05
2.73277e-05
3.10086e-05
2.09155e-05
-2.06837e-10
-4.4552e-07
8.76257e-06
-1.20003e-05
1.74878e-06
-8.54181e-10
3.45089e-10
-3.22992e-05
3.47039e-06
-5.68718e-08
-2.75929e-06
3.53176e-09
-1.77957e-10
-1.43077e-05
4.81159e-10
-1.8366e-05
-3.94021e-10
5.8722e-08
-4.07745e-09
-3.02878e-09
1.68912e-05
2.81769e-08
2.69678e-06
1.62027e-10
4.15688e-05
-1.14886e-05
-1.11423e-07
1.49435e-05
-0.00016086
-7.54629e-06
1.97795e-09
-1.4544e-11
-5.36973e-10
1.4167e-07
-0.000163574
-0.000229191
-0.000240744
-5.10331e-11
-5.35167e-06
-0.000115376
-9.19876e-06
1.14229e-05
0.000123662
0.000155498
2.6667e-10
3.37323e-07
0.000289115
-2.60167e-05
6.57707e-06
-6.69293e-05
-2.81609e-09
7.14813e-06
-0.000351223
-6.01283e-10
-9.80871e-08
1.08437e-06
0.0016659
-4.28554e-10
-1.00826e-07
-3.50187e-05
1.77807e-10
1.04934e-05
6.86911e-08
6.97878e-06
-3.89152e-05
-0.000193601
1.71992e-10
-0.000204157
-8.47958e-05
-0.000303536
-1.2767e-08
0.000236316
-2.23598e-05
3.29891e-09
3.77137e-05
4.79903e-08
-8.64836e-10
-3.63565e-05
1.26722e-05
8.26918e-08
2.38676e-09
0.000237577
-1.22295e-08
5.55744e-05
-3.78154e-08
-7.83915e-09
-2.26528e-06
-5.57065e-06
1.84835e-05
7.9903e-05
4.8634e-09
2.21824e-08
1.90023e-05
-1.32929e-07
5.91621e-05
6.21596e-09
1.08436e-07
-1.45921e-05
-0.000173293
5.03986e-06
-0.000192095
-6.07604e-06
5.76407e-05
2.22378e-08
0.000379709
-1.1962e-06
-1.72087e-06
1.61292e-06
4.56808e-10
4.36254e-05
3.94411e-05
3.98896e-05
1.82328e-05
-1.16096e-05
-1.75577e-05
0.000335618
2.33708e-06
-7.27816e-06
-2.1737e-05
-0.000420432
2.78641e-06
1.59614e-05
-3.13467e-06
2.50038e-08
-3.51085e-09
-0.000449014
2.64167e-07
-2.35903e-09
1.93049e-06
1.39835e-07
-1.58238e-06
-5.29411e-10
-0.000134968
2.91717e-05
1.29866e-05
-2.9041e-07
-0.00402181
1.35154e-08
0.000153346
1.28119e-06
0.000322282
5.11116e-09
-3.38358e-05
1.13604e-07
-3.18048e-05
-2.19952e-08
-6.93371e-05
-8.2659e-08
-4.65976e-06
-0.000595343
-6.94428e-09
2.5228e-07
4.03244e-05
2.98665e-10
7.81003e-10
2.5632e-05
6.84273e-06
1.54455e-07
-9.31296e-05
-2.73235e-08
2.33333e-06
-2.06653e-08
-5.08648e-08
4.63523e-09
1.64646e-07
-3.46124e-09
-3.27602e-07
-8.16262e-05
-1.18121e-07
1.62414e-09
0.000120863
-1.28174e-06
4.71809e-10
5.88857e-07
2.20337e-08
5.99306e-07
0.000180703
-2.14149e-05
1.23637e-05
-4.81152e-07
-5.66033e-07
-0.000331044
-1.67442e-08
1.4403e-08
1.09722e-05
-0.000170437
-1.28786e-05
0.000604604
-4.50602e-09
0.000158735
9.20456e-09
-0.000302704
-0.000133489
-0.000629929
-1.20092e-07
-0.000199983
0.00152571
5.33064e-10
7.67623e-06
5.04271e-05
2.68218e-10
-1.466e-09
1.97816e-05
2.49472e-09
0.000494967
1.58299e-09
3.113e-08
2.83169e-07
6.37254e-09
5.01065e-09
6.23313e-06
-1.94965e-05
-2.37253e-09
2.80331e-05
3.56549e-06
3.53568e-05
-6.77678e-05
-1.10698e-05
-2.69204e-10
-0.00087557
2.48402e-06
-2.14155e-09
6.73861e-05
4.68856e-07
1.2535e-07
-1.98055e-05
-1.19132e-09
1.44114e-07
6.56218e-06
5.98564e-08
-3.00208e-05
-4.97794e-09
1.90083e-08
-8.27437e-10
4.30724e-05
2.06041e-06
-7.37502e-05
-3.05007e-09
-0.000815305
-9.70984e-06
-2.75492e-06
2.6001e-08
-0.000827555
9.05549e-07
-1.80924e-10
-5.65956e-05
2.93792e-06
2.86419e-05
-1.11834e-10
8.84782e-10
-5.48288e-10
-1.95114e-07
-7.23057e-10
-5.85412e-07
-8.64273e-05
-3.58828e-11
-1.29631e-05
-0.000174071
-6.85409e-06
9.15728e-05
1.36554e-07
9.32524e-06
2.97643e-05
1.02638e-06
-7.07716e-06
0.000196404
1.27574e-05
-1.16899e-09
0.000188152
1.51461e-09
-2.7693e-05
-4.45572e-10
4.02725e-08
9.86736e-10
-0.000917023
0.000207177
-5.16709e-09
7.56434e-05
0.00057312
-1.66719e-08
-5.55809e-07
-3.15844e-07
6.35448e-07
-3.17685e-07
-8.38752e-07
-2.72737e-05
3.15557e-08
-8.27033e-05
0.000382027
0.000131162
-0.000569613
2.82717e-06
-1.93694e-10
2.30054e-10
-8.19111e-05
1.28183e-05
-2.35678e-05
0.000221998
-2.13849e-06
4.25346e-07
-0.000112113
-0.000744608
-5.86902e-07
-5.46861e-05
-2.04507e-07
-0.000135961
1.14634e-09
-0.000124507
-1.80906e-09
6.88914e-07
9.84326e-08
9.49955e-05
3.49912e-07
0.000119222
1.09469e-08
-5.9181e-10
8.99863e-05
-5.19252e-06
1.83551e-05
-1.79913e-05
-2.99475e-05
-0.000128831
-6.17879e-07
-1.91045e-10
2.88154e-06
-3.307e-08
2.25405e-06
-5.53402e-05
-0.000415049
0.000136681
4.88632e-05
5.59123e-06
3.17784e-05
2.92977e-06
-2.68915e-09
7.53839e-06
-3.33351e-05
-1.54029e-09
-5.54257e-05
3.22279e-06
8.97866e-06
2.21942e-09
3.31929e-08
0.000129103
-3.50085e-07
-6.55243e-06
-0.00014246
7.47346e-10
-1.42039e-06
2.99944e-07
-6.97815e-05
-2.8421e-06
-7.0251e-05
-1.21253e-06
-0.000155828
1.51676e-05
2.03868e-09
0.000621392
6.59037e-06
1.8583e-09
-8.0867e-05
-0.000462604
-0.00103083
-1.31731e-10
-9.54238e-05
1.13809e-10
-1.33052e-10
-1.52649e-09
-8.82541e-06
8.67142e-06
-1.59658e-08
-3.00872e-05
-2.21474e-09
1.02969e-08
-9.28576e-06
-4.29789e-05
2.00386e-05
1.68752e-08
1.08893e-09
3.34985e-06
4.91453e-05
-1.34741e-07
-2.88836e-09
3.72169e-06
1.21759e-09
5.62697e-07
-0.000511359
0.000173665
-1.69338e-05
5.36729e-08
6.21274e-08
-2.40206e-05
4.03405e-05
1.77486e-05
-3.01552e-05
3.42533e-09
4.67842e-07
0.000506304
0.000775154
-2.26004e-05
2.69572e-06
-1.52171e-09
2.86824e-05
2.82707e-08
6.56609e-07
0.000641609
-5.95754e-05
2.73715e-06
4.26966e-08
0.000400822
-2.90635e-08
7.54385e-05
-6.19176e-11
1.31777e-06
-2.63396e-11
9.88884e-06
0.000103532
-1.60162e-09
-1.13966e-07
4.85287e-05
-4.79247e-10
1.73225e-06
-3.01135e-06
0.00032988
0.000120204
-0.000505632
8.53744e-10
2.79904e-07
1.24595e-09
5.63267e-08
-4.2717e-05
3.14549e-05
-0.000824142
1.49055e-06
-8.9915e-08
-0.000164929
7.04034e-09
-2.80854e-05
8.10606e-07
-4.0452e-10
-2.9949e-10
0.000171037
6.85522e-10
-6.62187e-06
-2.38404e-10
3.18648e-09
-4.4374e-09
1.24686e-06
-0.000227844
3.73137e-05
5.55273e-05
1.32261e-09
-1.54725e-06
1.99071e-06