/*--------------------------------*- C++ -*----------------------------------*\
| =========                 |                                                 |
| \\      /  F ield         | OpenFOAM: The Open Source CFD Toolbox           |
|  \\    /   O peration     | Version:  v2012                                 |
|   \\  /    A nd           | Website:  www.openfoam.com                      |
|    \\/     M anipulation  |                                                 |
\*---------------------------------------------------------------------------*/
FoamFile
{
    version     2.0;
    format      ascii;
    class       volScalarField;
    location    "400";
    object      ddt0(k);
}
// * * * * * * * * * * * * * * * * * * * * * * * * * * * * * * * * * * * * * //

dimensions      [0 2 -3 0 0 0 0];


internalField   nonuniform List<scalar> 
14804
(
2.07164e-13
6.3041e-13
1.48496e-07
-3.37298e-12
-1.38618e-10
-2.59375e-10
2.12028e-07
2.42149e-10
-1.29548e-09
-7.05287e-11
1.18725e-07
-4.26546e-06
-3.07792e-05
1.13569e-05
5.11123e-07
2.28755e-11
4.13531e-07
9.03372e-06
2.33964e-11
2.13096e-12
-1.25054e-11
-1.10809e-10
-7.84272e-09
4.25503e-11
-2.89848e-05
1.58926e-07
1.35327e-07
-1.78888e-11
4.73447e-07
-4.32183e-07
-2.03513e-05
4.01592e-07
-2.88717e-10
2.28187e-10
-2.15573e-08
-6.78383e-12
-2.77027e-12
4.0205e-11
-1.05414e-05
6.52162e-12
-1.98373e-06
-2.43272e-07
-3.35816e-10
6.7508e-12
1.37798e-05
7.91663e-06
-1.59257e-08
-4.0747e-12
-1.89945e-09
-1.145e-11
-1.84371e-11
-3.58162e-12
-1.46676e-10
-9.94674e-09
-2.87403e-10
-1.77672e-11
8.49145e-08
4.28062e-07
-2.42133e-05
-4.13764e-05
4.28077e-07
-5.77998e-08
9.53352e-12
2.23846e-12
2.258e-12
-3.78201e-06
6.47679e-06
2.76704e-10
3.26085e-10
-1.20199e-10
-9.38085e-11
1.21934e-10
4.94109e-11
1.00269e-09
8.06416e-07
-1.95695e-11
-1.01414e-11
-4.85785e-10
1.71482e-11
9.03611e-10
-1.78823e-09
-7.16321e-08
-1.15853e-09
1.05641e-07
-9.85075e-12
-2.80555e-11
1.25668e-12
6.1412e-12
-3.11994e-10
-2.79328e-10
6.29093e-06
4.95299e-12
5.28094e-12
9.47907e-14
6.89202e-10
-1.15629e-06
4.70762e-12
1.20525e-05
2.75662e-10
-1.1277e-07
9.62723e-06
1.50918e-06
1.09382e-08
-9.86452e-13
-2.72458e-09
-1.26794e-05
-2.10656e-11
-3.11407e-12
3.33283e-10
1.53124e-07
9.90421e-12
5.55552e-11
5.1205e-07
-3.54843e-10
1.97032e-10
-2.1279e-06
-5.09254e-08
-6.06117e-09
2.32997e-11
-9.10565e-11
8.16709e-07
-4.84711e-09
-9.38203e-13
-5.07401e-09
2.7211e-11
-4.08811e-10
5.04361e-12
-1.98554e-12
3.99968e-10
-3.76274e-07
-1.37708e-12
-1.21195e-06
-1.03904e-09
-7.19962e-06
-1.60799e-10
4.2642e-06
1.27073e-05
-8.17018e-10
4.80403e-07
7.17358e-06
-2.53615e-12
-4.75029e-10
-7.91123e-10
1.01062e-11
-0.000265636
3.18491e-10
3.98073e-08
-1.27694e-05
1.71875e-07
3.08274e-10
4.79704e-06
-2.10377e-12
7.81816e-09
-0.000784175
-1.24666e-13
-2.59822e-12
-1.632e-05
-3.96161e-11
-8.30618e-12
2.21537e-07
-1.89967e-11
-2.34062e-10
4.55001e-14
-5.09676e-10
1.21527e-10
1.23819e-05
3.90275e-12
6.61675e-10
-1.84299e-07
-3.08887e-11
-2.09553e-11
4.40891e-11
1.54704e-06
2.56338e-10
-3.76997e-07
3.92072e-07
1.32492e-07
-3.36768e-06
1.89999e-06
-1.85677e-06
-1.18783e-10
-1.79843e-09
-2.5841e-11
-2.06479e-05
-8.41076e-11
-8.61572e-07
5.40265e-06
3.96143e-07
-1.58255e-06
4.90056e-12
1.52404e-10
-1.62275e-06
-7.40102e-06
-1.38913e-05
1.22356e-05
1.53648e-06
4.98642e-06
4.01421e-07
-4.92606e-11
-9.69255e-07
2.81594e-11
9.1253e-11
-1.44311e-10
-1.14229e-06
-2.88214e-10
-1.33217e-09
-2.19193e-05
-1.73819e-05
1.01024e-09
1.62188e-11
6.42807e-12
-4.00002e-07
-4.325e-10
-3.20923e-12
-5.49744e-07
-2.08061e-12
-4.96908e-06
-4.46524e-15
-9.94488e-08
-1.9961e-05
2.13729e-09
3.90241e-06
2.9627e-12
-1.31012e-06
-4.54297e-07
-6.71525e-09
3.70588e-07
-8.39018e-13
-1.62503e-06
9.29581e-07
-6.28542e-10
1.23631e-05
2.06555e-11
1.10712e-11
1.20343e-05
-3.2263e-11
-2.67937e-06
5.03929e-06
3.09953e-11
-2.59217e-07
-5.56183e-07
-1.23562e-09
-6.98585e-06
1.10016e-07
1.01829e-11
6.86341e-13
-9.30845e-10
4.15237e-07
5.76541e-10
1.56466e-10
-2.62091e-06
1.69801e-06
-1.4365e-10
-8.49257e-10
-2.18283e-12
5.21474e-06
2.46782e-08
-2.25975e-06
-1.0687e-06
1.63454e-07
-1.1063e-09
-2.94774e-05
-9.06946e-13
-3.62883e-08
1.53504e-10
-1.13688e-08
4.44149e-12
2.51225e-06
-4.96607e-07
6.84895e-12
-1.86525e-11
-4.13368e-08
-7.00532e-08
-9.30966e-07
1.45114e-09
1.08048e-05
5.89114e-12
1.45962e-10
7.25155e-12
2.87121e-06
4.26482e-12
-2.76153e-07
2.72727e-11
1.59831e-10
3.34259e-11
2.82778e-07
5.22292e-11
3.01639e-07
-2.17509e-11
3.11003e-07
-7.06742e-08
-1.37166e-09
-2.54611e-06
2.36874e-07
2.66556e-11
1.17331e-10
-2.10746e-06
-2.4709e-11
2.00968e-10
-6.24756e-13
-2.17399e-10
3.85073e-10
-2.21938e-11
-6.95162e-10
1.89916e-13
9.54823e-07
5.14855e-06
2.32562e-11
-1.46282e-06
-3.28363e-09
2.90944e-12
7.19546e-12
-2.09956e-06
-5.7468e-12
1.83952e-06
-2.76011e-11
9.51943e-10
3.21188e-13
1.37715e-06
8.4143e-13
1.07373e-10
1.47288e-11
-2.60806e-06
-8.71709e-06
-1.80826e-11
-7.9545e-12
2.33492e-09
-2.06184e-06
-1.83073e-06
1.39666e-08
1.68011e-08
-3.73024e-11
-1.92828e-11
2.30079e-07
2.12987e-11
3.20307e-07
2.86106e-09
2.11746e-07
-8.53807e-07
3.35818e-07
4.04751e-07
1.63432e-08
-1.6555e-06
-1.85966e-06
-4.00145e-10
-1.17156e-11
-8.71795e-07
-7.04087e-06
8.72424e-11
5.51012e-11
-1.38803e-10
-1.51482e-11
-1.36738e-11
-1.37003e-05
2.30139e-11
1.54204e-10
1.57937e-06
1.18439e-11
-1.476e-05
8.2389e-12
8.08059e-09
9.03899e-12
2.95119e-06
1.39618e-06
2.64086e-07
1.31397e-09
1.49625e-11
9.42505e-06
1.4054e-06
9.34438e-09
1.48056e-10
1.95307e-07
2.14649e-10
-1.06763e-05
3.93012e-08
-3.90232e-07
-3.21476e-07
-4.00711e-07
-1.50866e-12
3.59684e-10
4.81641e-12
-2.03992e-07
-1.33626e-06
1.81984e-10
2.01948e-10
2.97956e-12
-1.33305e-11
2.14175e-11
-3.62208e-07
4.51047e-12
-5.13014e-07
4.66344e-09
-2.89941e-10
5.68641e-13
2.33438e-11
1.50146e-07
4.90951e-07
6.36041e-10
8.24551e-08
9.63598e-09
-3.11881e-10
-1.75792e-08
3.85602e-07
-1.92288e-06
1.55367e-08
5.85197e-10
-6.18059e-09
-1.06063e-12
-9.375e-09
-1.00927e-11
2.39168e-13
-1.00327e-08
3.9922e-07
1.53274e-07
9.13324e-06
-3.59886e-11
-8.63781e-06
1.2462e-11
-6.89964e-11
-3.11638e-10
5.52895e-07
8.06985e-11
-1.18019e-08
1.03225e-06
1.98812e-10
9.16394e-12
1.2376e-08
-2.82259e-07
5.94999e-10
1.23223e-11
7.69624e-11
-7.58383e-11
1.4324e-05
3.6503e-07
-1.66581e-11
8.38616e-08
-2.32837e-09
-1.61318e-07
1.08099e-11
-9.28875e-07
4.05074e-07
-2.02674e-11
-5.60385e-09
-4.63644e-12
-2.39482e-10
-1.20014e-09
8.44125e-06
2.65346e-10
2.88927e-11
-1.79764e-05
4.15578e-08
4.02246e-05
-1.11599e-06
1.06352e-07
3.46401e-07
5.03173e-12
-4.59144e-06
-1.54728e-12
-6.37147e-09
1.81939e-09
8.63961e-11
9.5298e-09
5.23539e-10
-1.19948e-05
-2.89576e-11
3.01202e-06
-2.84099e-10
3.99132e-09
9.11882e-08
-1.48027e-11
-2.9112e-11
-4.44178e-12
3.29572e-07
3.34452e-06
-2.24221e-06
-1.93977e-09
-7.39132e-11
8.91022e-09
1.21506e-10
-2.82207e-09
-1.30285e-10
-1.44713e-06
-7.83665e-07
1.87935e-08
-4.07088e-07
-1.18362e-06
8.48447e-06
4.88988e-11
1.28328e-06
3.97347e-07
-9.84267e-07
2.61944e-07
1.87419e-09
-2.13698e-05
-2.99526e-07
8.63844e-12
-1.08652e-10
-8.84636e-06
-3.99136e-11
9.08949e-11
-1.882e-10
4.24868e-12
3.01465e-10
1.8875e-07
-2.22909e-10
4.02826e-10
2.53256e-09
5.96043e-10
-6.43864e-11
-1.32139e-06
-1.74365e-09
-1.06501e-06
3.15868e-06
3.46259e-11
4.43163e-09
2.84032e-05
2.58624e-07
-9.21023e-07
-1.05959e-12
-1.7902e-09
1.29907e-10
2.47714e-08
3.95734e-07
2.38221e-06
4.07475e-07
2.8499e-07
4.13752e-08
-2.42364e-06
-1.21485e-07
4.53334e-07
7.6805e-06
-2.6747e-12
1.99407e-07
-8.32875e-07
-2.77772e-05
1.0326e-11
7.60019e-06
-1.92637e-11
-3.51532e-08
-8.13602e-07
1.41292e-11
1.15461e-05
1.11567e-11
5.81674e-09
2.2342e-09
-1.96588e-10
2.965e-08
-4.42997e-12
-1.52005e-10
-7.02225e-12
3.04385e-12
7.73786e-12
-3.11664e-12
1.08875e-12
7.44955e-09
1.39654e-11
-2.26795e-06
3.86737e-05
5.03186e-11
1.76694e-07
6.41687e-12
4.30339e-07
-3.86248e-12
-6.05154e-06
-1.92442e-11
6.44901e-07
-6.68198e-11
9.49055e-08
9.17513e-07
6.98236e-11
-3.78221e-10
-1.59651e-08
-2.51505e-06
-4.32323e-07
-8.58522e-09
4.72672e-10
-1.17958e-05
1.33621e-06
-3.84195e-08
1.18392e-12
9.41956e-07
-3.67748e-12
-5.09648e-09
2.41655e-05
3.01864e-07
3.4609e-07
-1.47035e-12
6.82467e-12
5.53623e-12
7.33206e-12
-1.1676e-07
-4.20157e-11
7.10944e-06
-1.62798e-05
-9.47088e-06
1.2536e-08
6.85855e-08
1.80242e-07
6.21584e-09
-1.34081e-10
-1.02807e-06
-2.37055e-06
-3.45451e-12
1.31136e-08
2.34446e-07
9.52322e-07
2.51715e-10
1.39408e-06
4.00945e-11
6.97415e-09
-9.64765e-07
6.68222e-11
6.99516e-06
-1.00033e-06
2.73414e-06
4.22505e-07
-1.4403e-06
7.4193e-11
-1.57816e-07
-1.7802e-11
2.06158e-09
2.93633e-08
2.29971e-08
-1.39876e-06
4.47003e-10
-1.34955e-10
1.61971e-05
-6.82831e-11
9.89738e-07
-2.71179e-11
-4.53898e-13
2.20374e-11
2.5389e-07
8.34077e-12
-9.82354e-12
1.6554e-11
1.51195e-08
-1.2617e-05
8.18513e-10
1.56408e-10
-1.36009e-06
1.25697e-06
3.36807e-11
-9.08037e-10
1.60048e-12
5.93932e-11
-4.94007e-11
5.10371e-12
1.17839e-12
-9.03447e-10
5.22174e-06
-5.85052e-07
4.85659e-11
-9.49749e-11
-4.05128e-08
3.53407e-06
-2.47704e-05
-2.07315e-09
-9.2843e-10
2.53665e-08
-4.11892e-05
-1.58218e-11
1.12847e-06
-1.12401e-11
1.90565e-08
-1.12092e-06
-1.09903e-06
-1.38156e-06
-5.03144e-08
2.36546e-11
-6.89013e-07
-3.23028e-10
-1.85566e-11
2.06631e-07
-7.65196e-10
-2.46101e-11
5.46655e-05
-7.41017e-10
6.07013e-06
2.05968e-07
2.37524e-11
-7.13656e-09
4.69153e-06
-1.0126e-06
5.58554e-09
2.88608e-11
6.22298e-07
9.29244e-12
2.94671e-13
3.36574e-10
-3.44502e-12
-6.5591e-07
-5.47946e-07
-2.05746e-10
2.63905e-10
4.87764e-11
-1.10628e-09
7.63265e-06
-7.77037e-10
-1.8514e-08
2.08276e-12
6.04244e-06
-2.94852e-12
1.55401e-12
-1.05352e-06
4.11964e-07
1.14485e-07
-2.60928e-06
-2.5286e-11
-1.02046e-06
-2.32915e-12
-5.10933e-09
3.5025e-07
4.05317e-07
-3.54791e-06
8.17797e-09
3.07752e-11
-2.97923e-11
1.7659e-07
1.63427e-05
-2.81498e-05
-1.06179e-10
2.11407e-12
-1.28839e-09
-1.15349e-06
-5.68448e-06
1.34033e-11
-1.43045e-11
-1.24449e-12
4.80262e-05
3.83641e-07
-1.09009e-05
5.74002e-06
-3.04378e-07
1.40568e-06
-3.94285e-12
6.38883e-11
-3.30902e-13
6.31384e-07
-2.04187e-09
3.72749e-09
-1.23919e-05
-4.05489e-12
-8.78569e-11
1.96532e-07
1.93247e-09
5.01787e-06
2.81261e-11
5.45955e-12
1.7457e-11
2.33752e-09
-2.2716e-09
-1.62432e-06
-1.38209e-09
-2.24442e-07
-3.66957e-10
-1.76757e-05
-4.74949e-11
-2.35655e-06
1.25658e-10
-5.99641e-09
3.99348e-11
1.56253e-06
6.91226e-06
-1.69459e-07
-1.73332e-07
1.18206e-12
-2.55786e-12
4.05209e-10
-9.4164e-07
-5.4728e-07
1.14971e-06
3.44535e-11
-1.48803e-11
-2.01284e-06
-1.0452e-08
3.77025e-10
-1.84699e-11
-2.88847e-06
6.78019e-06
-2.56256e-06
-9.19715e-11
-2.21629e-11
8.03027e-08
-7.69807e-11
4.59006e-07
-5.71901e-07
1.70775e-11
3.83128e-11
9.27566e-07
-1.66075e-07
2.83771e-10
2.97565e-12
-1.27476e-09
1.35182e-13
-3.74703e-09
8.25726e-09
-2.40951e-05
3.2912e-11
4.1501e-12
2.11093e-06
5.03458e-12
1.93416e-11
8.33851e-06
1.82415e-11
-4.05729e-11
-4.09359e-12
7.47692e-09
-2.33643e-11
3.81858e-10
-9.68696e-07
1.64457e-12
-3.86382e-07
8.43408e-12
-2.21858e-06
-6.51597e-13
-3.78033e-12
3.59679e-07
-1.26339e-05
-1.08215e-06
-1.28948e-09
3.60211e-05
-4.43983e-10
-1.37283e-11
-2.25663e-06
-4.18384e-12
-4.32882e-12
2.43287e-12
-2.04699e-12
-1.03689e-06
9.97489e-12
1.25835e-11
4.31326e-08
-2.58182e-12
-7.8273e-07
-3.05586e-10
1.10865e-05
-4.63083e-12
2.02525e-08
9.66376e-07
-1.153e-06
1.96382e-06
3.99752e-11
-6.83017e-07
9.69497e-07
1.38248e-06
5.54447e-12
-9.66465e-09
1.05309e-09
-1.66121e-10
-1.496e-10
-4.57853e-12
2.39928e-07
-2.74251e-06
1.07316e-09
-4.22491e-10
1.04261e-11
1.1138e-08
-2.91895e-06
1.55394e-07
9.29287e-12
2.089e-10
-6.99278e-06
-4.31606e-07
-1.7693e-12
4.22321e-12
-2.09589e-06
-9.54263e-09
1.4635e-06
-2.41057e-06
-7.19398e-10
-8.57102e-11
-3.74356e-12
1.72338e-06
-2.69978e-12
2.32167e-12
-7.80657e-11
1.74563e-07
-1.27155e-12
-2.2341e-11
8.36828e-13
-1.96158e-12
-7.09004e-10
-1.34589e-10
6.53364e-12
3.82535e-07
1.21349e-05
-3.01278e-06
6.73606e-06
-3.2792e-06
-2.34462e-12
5.81448e-11
3.22633e-07
-1.29309e-10
3.91446e-11
1.40305e-07
5.50873e-12
2.93875e-08
-2.70456e-06
-3.71143e-10
-1.39131e-11
-4.60708e-12
-6.98682e-09
-2.72392e-11
-8.01845e-09
-8.99714e-09
7.0516e-10
-9.10633e-07
5.7662e-06
-6.01885e-11
-2.55214e-10
-2.04745e-12
-1.74782e-06
3.5786e-06
7.8288e-10
2.18368e-07
1.37522e-05
-2.89664e-12
1.22034e-08
2.71673e-07
-1.05003e-10
2.00394e-10
-3.14162e-11
-4.92299e-12
-7.03218e-07
-2.00246e-06
3.11472e-10
3.37296e-10
-8.7592e-11
1.30134e-11
7.07514e-12
-3.58265e-12
-1.75857e-12
2.03462e-11
-2.51507e-06
-1.61792e-06
-4.35098e-11
-5.23739e-06
3.25344e-06
-1.34696e-06
-2.42624e-10
-6.92828e-10
1.3866e-05
-1.86485e-06
-3.35476e-06
4.3893e-06
9.78322e-11
-1.86937e-09
-1.92514e-07
8.82187e-11
2.84096e-12
-1.67868e-11
-1.26145e-11
-1.17576e-06
-2.60157e-10
-2.99698e-10
-1.61899e-09
-3.95784e-06
-4.5805e-08
8.30161e-12
-7.32716e-09
3.14051e-07
3.29578e-11
5.26978e-11
2.71105e-09
1.96616e-11
-1.95583e-11
1.1298e-11
4.58987e-06
4.96033e-10
8.40944e-06
-1.31043e-07
1.98684e-09
1.19286e-08
1.40479e-08
1.4449e-06
-2.17754e-12
1.21062e-11
-1.48944e-10
-4.81417e-06
-8.88618e-12
-2.76073e-06
3.57606e-07
4.14418e-06
-2.66494e-11
-3.44658e-08
-3.59898e-05
-2.86567e-09
1.27378e-10
4.36613e-10
-1.34355e-08
2.03362e-08
2.73606e-06
-2.85044e-06
-3.43121e-12
1.26325e-06
-5.29596e-10
-2.97991e-11
-9.93607e-07
-1.8629e-06
-3.26303e-11
-4.87765e-06
-4.00607e-08
-4.41519e-12
-2.80964e-06
1.12852e-06
-1.71665e-06
-5.38282e-11
2.6921e-09
-9.31558e-09
9.98324e-11
-5.56466e-07
-2.17144e-12
-6.69188e-10
3.49391e-11
2.45616e-08
-1.97129e-11
-2.93675e-10
9.30436e-09
-4.81498e-11
-6.28478e-07
-7.64555e-08
8.85443e-07
-2.63457e-09
1.88976e-11
8.82004e-07
-2.68961e-06
-4.34801e-12
1.22273e-10
1.41413e-11
-9.90691e-12
-1.91979e-06
1.49934e-09
1.60439e-11
7.83618e-07
-8.28221e-09
-5.25195e-12
3.96378e-12
3.59611e-10
1.13848e-09
4.13468e-13
8.9761e-12
8.36859e-11
2.15483e-11
3.71169e-06
7.96369e-09
-1.05635e-06
-3.2243e-09
-2.53169e-06
-1.10196e-05
-2.09405e-05
-8.30924e-07
1.51471e-11
9.87121e-07
-1.394e-06
-1.44655e-05
2.62443e-11
5.72404e-12
2.33561e-11
-2.30286e-07
1.49708e-07
1.77383e-11
8.31792e-07
-1.18191e-11
1.02095e-11
3.93916e-08
2.31724e-07
-2.04336e-08
-9.49793e-12
-1.21812e-10
-1.39188e-10
-5.94882e-12
2.56988e-09
-1.14504e-10
-2.3289e-11
7.62577e-12
6.90339e-07
3.14913e-14
-1.9168e-11
1.06456e-11
2.5977e-06
-2.14973e-06
1.0756e-11
-1.43712e-11
5.9456e-10
9.05589e-12
-5.22364e-06
-2.16937e-09
-1.9965e-10
-4.40249e-12
2.92164e-09
-2.6392e-10
-6.95525e-07
5.37033e-12
-2.43288e-07
2.92751e-06
-4.02823e-10
-1.2875e-06
1.17371e-06
-1.06437e-10
-7.76174e-09
-2.53878e-06
-1.04438e-05
-9.1991e-08
2.09873e-10
8.56899e-06
1.28853e-08
-2.01255e-06
-6.77088e-12
-8.04165e-11
4.79672e-10
-7.91475e-07
-1.78022e-09
2.28918e-11
-9.61167e-07
3.02781e-08
-6.552e-13
-6.30771e-11
-2.368e-07
-6.93455e-07
3.16491e-07
9.64279e-06
-3.88532e-07
1.08939e-08
6.04607e-10
-1.45002e-10
2.37446e-07
-1.30653e-07
-2.53189e-06
2.15656e-09
3.25782e-11
-2.46511e-05
1.22532e-11
-3.77162e-12
-2.13056e-08
4.9521e-11
-1.53673e-06
9.98372e-12
4.90062e-12
-6.55043e-11
4.20279e-12
-4.09486e-13
-4.46244e-05
-1.20726e-11
-7.13244e-07
2.78469e-06
3.35961e-11
-3.58545e-10
1.06346e-06
2.25439e-06
-1.10423e-11
8.75982e-12
-8.15979e-12
-1.01364e-06
-3.03005e-10
1.34372e-06
-5.3316e-11
-4.23394e-10
-2.29018e-07
-1.79007e-06
1.95715e-06
-3.85593e-07
-9.60324e-10
-1.84667e-11
-1.06697e-05
-4.18675e-07
-8.75601e-07
-1.19884e-11
2.32945e-07
4.93193e-11
6.1693e-12
6.91663e-11
5.71109e-11
-2.39602e-06
1.6876e-08
1.49236e-08
1.05604e-07
2.85976e-06
-5.16071e-07
-2.14324e-06
2.25115e-10
-6.1539e-12
-4.26915e-07
-5.72696e-11
1.18996e-08
1.37493e-11
8.13131e-11
1.09693e-05
2.04337e-11
-7.31198e-09
4.35957e-06
-4.10265e-06
-3.53112e-09
7.87631e-11
1.63548e-11
2.37367e-12
-5.90494e-05
7.8629e-09
-1.66897e-07
-4.61435e-10
1.05204e-05
-1.051e-08
-9.03017e-07
-2.34862e-06
1.79461e-06
8.39292e-09
3.61653e-07
4.09644e-06
1.80147e-06
7.55276e-09
-1.31552e-10
3.6163e-07
3.16621e-09
2.13103e-07
-1.27741e-06
1.81591e-06
-1.69652e-11
1.52028e-06
-7.08742e-07
-1.65928e-05
5.41495e-06
3.37118e-09
2.88667e-12
7.17214e-12
-1.369e-06
-2.49459e-10
6.03019e-12
-5.78239e-12
4.57582e-11
-2.12419e-12
-3.98967e-06
1.15038e-08
-1.0084e-06
5.57145e-11
-2.54861e-05
1.09229e-10
-7.17603e-06
7.8307e-13
-2.12418e-06
3.34512e-06
-2.24895e-10
-7.06182e-06
4.86492e-11
2.29181e-07
-6.49211e-07
4.76502e-10
-1.02042e-12
2.44658e-12
-4.52228e-11
-1.8796e-09
-1.13751e-09
2.1757e-09
4.06014e-07
-1.59015e-10
3.03635e-06
3.83219e-10
-1.38154e-07
-6.08751e-06
-5.22203e-09
-1.7817e-08
-2.66654e-06
-5.7328e-11
9.85983e-10
1.10682e-11
3.13907e-06
3.85565e-12
7.23214e-06
4.34662e-09
7.2651e-12
2.19736e-12
-2.52953e-12
-2.80618e-06
4.85223e-10
1.3165e-07
-1.60845e-06
9.78431e-12
-1.78741e-07
4.15059e-07
-1.07018e-10
-6.74195e-05
-2.7608e-12
-6.45753e-13
-4.04441e-11
-3.42544e-09
8.30429e-09
-6.47619e-07
-3.71168e-07
5.53101e-11
-2.86869e-09
2.88432e-06
-8.03265e-12
-6.78667e-07
-1.42795e-07
6.33771e-06
-1.30346e-10
-6.82344e-07
1.95028e-09
-2.29456e-07
-7.53959e-12
-4.62817e-10
3.87634e-07
-3.24133e-09
1.6048e-09
-4.49465e-06
-1.23247e-06
1.11372e-11
-2.21973e-06
-5.56764e-10
1.45776e-12
8.97056e-12
-3.09238e-11
3.73375e-09
9.88133e-11
-1.14542e-06
3.09383e-07
1.1165e-06
1.11586e-10
-3.49253e-09
2.41343e-07
3.72883e-10
1.06033e-06
7.65735e-07
-8.56747e-07
-6.77355e-12
-1.98184e-08
-4.38874e-12
-1.31046e-07
2.37975e-07
-4.15715e-10
-6.88444e-07
-2.04385e-06
-1.08417e-09
-3.57127e-06
2.29876e-11
-5.92045e-11
3.37239e-07
-4.48883e-07
1.90915e-12
-4.55693e-06
-2.25679e-06
-1.42214e-06
-2.73052e-12
-6.0014e-10
-1.11743e-06
8.24235e-07
3.9934e-11
-2.49218e-06
1.61406e-12
-3.24145e-11
1.75204e-08
2.33344e-05
2.72963e-11
1.10901e-10
6.97183e-09
-3.29346e-07
1.42179e-12
3.09586e-10
4.29131e-11
1.143e-06
2.56566e-11
-1.47106e-07
-4.23364e-12
-8.14922e-10
-2.37191e-06
2.08515e-10
7.02102e-06
-1.53531e-10
-4.25146e-11
3.29002e-07
-2.62343e-07
1.17446e-05
-7.55833e-13
1.91266e-11
6.30281e-06
1.73782e-07
-1.71136e-06
6.67979e-09
-2.56574e-11
-2.42994e-11
1.51988e-09
-9.07888e-12
-1.89221e-06
-7.38027e-08
-2.59945e-12
4.11539e-06
-3.29853e-11
-4.43167e-05
1.24339e-07
1.36891e-08
-4.25771e-07
4.53856e-07
3.97847e-07
-4.34602e-07
4.4896e-10
-2.27888e-08
3.91377e-11
8.04265e-06
-1.16203e-06
-1.51709e-11
-9.02137e-12
4.70596e-12
1.55523e-08
1.33292e-06
-1.33341e-06
-2.25824e-06
-1.50886e-12
1.7573e-11
-2.27158e-06
4.33653e-09
-1.32455e-11
3.83361e-12
1.6451e-07
1.62604e-05
5.76373e-14
2.9422e-10
-7.64607e-12
1.25791e-08
4.7819e-12
-3.57047e-12
2.94004e-13
-2.21055e-11
-1.48836e-06
-3.13661e-07
3.14175e-07
-2.74186e-07
-7.13416e-07
5.25084e-11
-2.07405e-11
5.34623e-09
4.75057e-09
7.07513e-06
6.66937e-09
-5.09072e-07
-8.03068e-07
1.32859e-11
-4.27531e-11
2.6115e-13
-1.55013e-11
-1.61077e-08
-8.11732e-06
2.51383e-10
-1.75371e-08
-2.4713e-08
-1.40506e-09
-2.65198e-07
-2.04603e-08
5.19124e-06
-9.88487e-11
-1.35765e-12
-8.04205e-11
-7.59076e-11
5.03228e-09
-5.75068e-07
-2.94798e-09
4.58352e-10
-1.87749e-11
-1.7624e-12
4.08992e-09
-1.41521e-11
-2.58532e-08
-1.22413e-11
-3.26116e-08
-3.45703e-07
-2.20079e-05
1.4825e-10
-5.31233e-06
1.40321e-07
1.01733e-11
-3.96026e-07
-1.52979e-06
2.13398e-06
-9.31861e-12
-1.62802e-09
-5.57585e-12
-5.56648e-07
5.96214e-11
-1.51487e-06
6.14918e-11
3.4766e-06
-2.48268e-07
-2.30303e-12
-1.90748e-10
4.08738e-08
-2.00398e-05
2.29163e-07
-1.0225e-10
2.86176e-07
8.15134e-12
-1.11831e-06
-2.84586e-08
5.50935e-12
1.9389e-10
-5.19194e-09
4.04079e-07
-8.45594e-07
-4.09229e-09
-7.14533e-07
-3.93865e-11
6.01531e-11
5.33607e-13
-1.25069e-09
4.7114e-10
4.47933e-05
4.89315e-10
-5.95291e-06
-2.33462e-06
5.82875e-08
-2.1363e-06
-2.62039e-09
-3.98754e-07
5.12308e-09
-5.98397e-09
-1.99681e-11
-5.11598e-11
2.30935e-08
6.11929e-08
6.33425e-07
-1.91954e-10
-4.03952e-11
1.79867e-11
-1.52398e-11
-7.75537e-13
8.08535e-09
-2.10739e-08
3.66065e-11
5.56885e-12
-7.59787e-12
4.3734e-09
-1.07238e-07
6.17922e-11
-2.48369e-06
-7.52223e-12
-8.24281e-07
4.64755e-07
3.70725e-06
1.31251e-06
-1.6835e-06
9.9781e-06
-1.17678e-06
9.30278e-06
-5.37992e-10
5.55904e-10
8.52044e-06
2.22018e-10
-1.64745e-11
-1.28414e-05
-6.49263e-06
5.40513e-09
3.82024e-11
2.75531e-11
1.64616e-12
1.25586e-05
-2.81303e-06
-1.87126e-08
-2.61272e-06
-4.7543e-07
1.75774e-07
-1.58815e-06
4.15787e-07
-1.45856e-06
3.39375e-10
2.52419e-11
1.91268e-11
2.31645e-09
2.68557e-12
-2.20188e-06
1.83432e-06
5.11205e-11
9.57566e-09
-2.78526e-06
2.7419e-11
-4.36761e-10
1.3101e-12
1.87504e-10
2.22477e-06
8.00485e-07
3.09142e-11
1.4261e-10
-1.34114e-10
-3.89254e-11
3.25753e-09
1.02e-05
8.19489e-08
-7.94245e-09
-9.6296e-11
-1.16445e-10
3.0542e-11
-3.3002e-11
-2.31887e-12
3.97741e-10
2.86729e-11
-4.49719e-10
-4.06318e-09
-6.17805e-06
8.99914e-12
-1.45267e-07
-5.56889e-10
-1.23964e-05
-1.98348e-06
-9.62356e-10
-1.13308e-11
-1.41611e-09
-1.30324e-11
-7.33438e-10
4.15236e-06
2.06752e-06
7.20912e-10
8.01824e-06
-8.6233e-12
-2.43903e-06
1.86985e-05
-2.15313e-10
-3.73212e-10
3.05162e-07
-4.5344e-08
5.56171e-12
1.48274e-11
6.47009e-12
-5.17896e-08
5.57438e-07
-3.95948e-10
-2.21125e-06
3.01122e-09
-2.46404e-11
-1.15792e-11
-7.274e-07
-1.16219e-06
-5.58933e-12
1.98462e-06
-3.51187e-07
-6.27272e-06
-2.58933e-11
-8.60466e-11
8.66715e-06
-1.92954e-06
2.46763e-08
-1.91658e-09
-6.83708e-11
-1.35131e-07
-3.04624e-09
-5.13415e-09
-5.5418e-09
-6.97922e-09
-1.59764e-10
3.21344e-07
-2.12036e-12
7.7005e-09
-1.44534e-06
5.69832e-12
3.81209e-08
-3.73232e-10
6.515e-11
-1.62469e-11
-3.52668e-07
-4.34743e-11
-2.24801e-10
5.92924e-10
-1.47581e-10
3.45927e-06
-1.23768e-06
3.29551e-07
-4.65247e-09
-2.54726e-05
-2.34737e-10
-1.07305e-11
-9.91427e-07
3.89383e-10
1.80076e-10
3.14073e-07
-1.33181e-11
2.23593e-11
2.9059e-09
-2.43524e-11
-3.35605e-05
-3.22005e-06
3.75827e-10
5.68793e-07
5.79077e-12
-3.26859e-11
-1.46768e-07
-5.76641e-09
1.20724e-06
-3.82975e-11
-2.66915e-12
5.68512e-12
2.54432e-07
2.16914e-10
1.02696e-10
-2.52007e-08
1.02646e-08
-4.45939e-10
9.56688e-07
-1.01981e-07
3.4953e-11
-6.26435e-09
-1.38771e-08
-2.41724e-09
-1.06096e-11
-4.83595e-07
9.82565e-08
1.20218e-09
-8.04156e-06
1.27985e-06
-1.573e-09
1.94569e-06
1.15743e-10
7.89888e-08
-1.94722e-10
1.50023e-09
-2.42654e-07
-1.79897e-10
4.42147e-11
-1.10041e-06
-1.77475e-09
-1.89591e-07
-8.72245e-09
1.30421e-10
-2.4256e-06
8.59886e-07
-1.97015e-06
-5.38857e-09
-6.05354e-09
4.17261e-11
-4.63184e-06
-1.04587e-06
-5.98438e-07
7.01567e-12
2.64867e-10
-6.21536e-08
-5.21126e-09
-5.43651e-10
1.56957e-08
-4.26777e-10
3.97604e-10
-1.38049e-10
-8.59319e-06
3.93712e-06
4.66292e-10
-1.01642e-08
1.97731e-06
1.36409e-06
-3.28609e-11
-9.87519e-09
-2.0149e-09
8.53755e-06
-1.44585e-10
-1.07796e-06
-1.05242e-11
1.08756e-11
5.31817e-12
2.53475e-11
-6.04889e-09
-3.07276e-12
1.10301e-12
2.92054e-10
2.80807e-11
-9.01626e-12
-3.86912e-05
7.62936e-10
3.9915e-07
1.55741e-05
-5.42736e-09
6.06646e-10
-1.29334e-08
-6.98168e-09
-1.52444e-11
1.00303e-12
1.64587e-06
1.95441e-08
-5.65076e-11
-3.44928e-12
1.13658e-10
-1.31415e-10
1.72126e-10
1.98451e-05
-1.84451e-10
1.0691e-11
-1.81093e-09
-1.7172e-05
6.19394e-11
1.99172e-11
-6.43438e-11
-2.40108e-06
-2.15722e-06
4.06956e-11
-1.96044e-06
-6.9512e-07
-1.08115e-06
-1.03122e-08
2.00673e-08
-9.24666e-12
-3.33382e-06
-9.16146e-12
-2.90014e-12
-6.49059e-12
3.43881e-09
1.13826e-10
-1.21923e-11
-6.8034e-11
-1.06293e-09
1.39244e-08
-8.57675e-07
-2.28033e-10
-1.65836e-11
-2.51136e-10
2.34585e-06
1.33627e-11
2.04067e-06
-4.46065e-12
-4.01556e-07
6.09075e-12
-5.95571e-12
2.40861e-08
-1.73494e-11
2.02373e-10
-8.90497e-10
-7.37766e-12
4.07297e-07
-2.44571e-08
-2.40053e-10
5.79474e-12
-2.04019e-05
1.65217e-05
-1.82766e-10
-1.142e-06
-1.01367e-06
2.11779e-10
8.27394e-07
3.37686e-06
-6.8799e-06
-3.54288e-09
6.92173e-09
3.63598e-10
5.15207e-09
1.28182e-07
-2.0344e-11
-2.98848e-09
-5.09425e-11
-5.70965e-09
1.36266e-10
-2.94796e-06
-1.5787e-10
7.72732e-10
-1.79643e-07
2.83792e-07
-6.28342e-09
-1.75164e-09
-1.11021e-11
0.00416552
2.41851e-06
-4.97581e-09
-8.05924e-09
-4.75538e-06
-9.97229e-07
5.11597e-12
6.15966e-11
-1.36807e-09
-1.51e-05
-1.3331e-07
1.6111e-05
-4.19417e-12
1.79622e-09
6.10298e-12
-2.58746e-06
-1.64911e-05
3.75163e-07
-1.19085e-06
-2.92027e-06
2.52671e-12
-6.77999e-06
5.57019e-10
5.22343e-11
-4.88661e-06
1.6704e-10
-2.76847e-07
-5.14339e-08
-1.05074e-05
-2.66653e-06
6.09334e-11
7.55681e-07
2.64585e-08
3.96868e-07
4.90036e-12
-3.68884e-11
1.01792e-07
1.85484e-11
-4.41211e-06
-2.41889e-10
1.91363e-11
-2.74814e-11
2.32443e-06
1.63752e-11
-1.59982e-06
-4.81808e-06
2.81577e-07
2.26487e-10
9.25576e-06
-8.74521e-07
1.01527e-05
-2.50687e-06
-7.87663e-07
-1.12136e-06
7.54958e-09
-2.50139e-12
-8.04988e-10
3.71244e-07
-1.02452e-06
-8.21613e-09
-1.19717e-11
3.03909e-12
-2.58026e-06
6.98133e-09
7.88604e-11
1.09533e-08
3.56409e-12
-2.58915e-12
-2.64199e-08
9.62518e-12
-4.57801e-07
-5.48796e-12
2.37148e-07
-3.98963e-11
-3.79532e-11
-1.18228e-06
-6.63354e-11
1.66928e-08
3.0901e-12
6.53725e-06
-8.04806e-09
-1.24965e-09
1.5063e-08
-1.21155e-05
1.34557e-06
2.65388e-11
-1.0554e-11
-1.03201e-11
3.65981e-10
-2.31473e-06
-7.86399e-06
-2.51884e-06
-7.45816e-13
-4.58922e-09
-4.52596e-06
4.76003e-07
-6.37327e-08
-1.42328e-06
-1.14427e-06
7.0007e-13
1.28795e-09
1.45072e-06
9.14918e-07
1.11612e-08
-9.29353e-07
-4.28922e-11
-7.61386e-07
-2.35797e-06
-1.44781e-11
-1.2232e-09
1.98377e-09
-2.95524e-05
-1.09485e-11
-8.57774e-10
-1.21587e-06
3.17352e-11
-1.24413e-07
-1.17768e-09
-1.884e-06
-7.14873e-07
1.76981e-07
4.40357e-12
-2.41347e-06
-1.15228e-06
-2.56185e-06
1.97263e-10
8.47786e-06
6.63682e-07
-1.35707e-11
1.84243e-08
-2.87029e-10
6.72175e-12
-9.60301e-07
1.22947e-08
2.84224e-10
5.2375e-11
1.25222e-05
-3.01637e-10
9.96798e-08
2.13643e-10
-1.94008e-10
-2.22923e-09
4.19298e-09
-1.30815e-06
3.22497e-06
1.02068e-10
8.96007e-11
2.64364e-08
4.14482e-09
2.40523e-06
4.23977e-11
1.30282e-10
1.99098e-06
-1.14491e-06
2.57152e-07
-1.01452e-06
9.18963e-09
9.22159e-07
3.92882e-10
1.3777e-05
-1.34507e-09
-2.43641e-09
-2.33057e-09
6.09937e-12
3.21572e-08
-8.54435e-06
-5.19649e-07
-1.27359e-06
-7.46299e-07
-5.00328e-08
-2.92659e-07
2.58456e-07
-1.70738e-06
-1.15585e-06
-2.54983e-06
3.73072e-07
2.6248e-08
3.73683e-08
-3.92013e-10
-3.99037e-11
-1.94152e-06
1.53037e-09
-1.69381e-11
2.8374e-07
2.09163e-10
1.36342e-09
-1.30823e-11
-1.94013e-06
-8.55544e-07
-4.11526e-07
-1.45621e-09
-1.00438e-05
-1.36317e-10
-2.68682e-07
4.1436e-07
1.13778e-05
-5.20515e-12
-6.57748e-07
3.91827e-10
-2.21521e-08
-1.45243e-10
-1.64845e-06
-2.57202e-10
-5.48418e-10
-1.14191e-06
2.41194e-11
1.22081e-09
1.08602e-07
7.2725e-12
1.1432e-11
-2.82783e-07
7.74381e-09
2.72361e-10
-1.56477e-06
-4.21095e-10
1.2978e-07
-4.06441e-10
-6.95454e-10
1.31728e-11
5.63207e-09
-6.42489e-11
2.72884e-08
-1.35845e-06
-9.45783e-10
3.46092e-11
-4.67976e-07
-1.61727e-09
3.00305e-12
2.40454e-09
2.03043e-11
1.75106e-10
1.04519e-05
-1.2334e-08
3.07337e-07
2.39341e-07
-1.21375e-08
-1.57045e-05
-1.17542e-10
1.50563e-11
-3.22069e-09
-1.48841e-05
-3.91186e-07
-5.05122e-06
-1.34112e-11
9.13126e-07
-5.71368e-13
-5.84134e-07
9.54795e-07
-2.38254e-06
1.39071e-10
-1.91559e-07
1.98573e-05
5.84099e-12
3.25423e-07
-9.10289e-08
2.50654e-12
-1.4412e-11
2.17766e-07
3.43466e-11
1.80639e-08
-4.45766e-11
-4.05571e-10
6.7744e-10
6.49876e-11
4.49627e-11
5.60387e-09
-1.22429e-06
-2.92024e-11
-1.14408e-06
1.28059e-06
2.42973e-08
5.04475e-07
4.21652e-07
-5.16876e-12
-2.29353e-06
2.25902e-08
-3.41828e-11
-2.13027e-07
-1.09315e-10
3.4191e-11
8.37322e-08
-1.61435e-11
2.44098e-09
-1.33002e-06
-1.6073e-10
-1.12647e-06
3.53697e-11
3.56505e-11
-1.83568e-11
4.60256e-08
3.52894e-07
-9.05283e-07
-3.54274e-11
-5.31261e-06
-6.01729e-07
-3.02856e-09
2.96238e-12
-8.43859e-06
2.53981e-09
-1.81851e-12
-8.78677e-07
3.44189e-07
5.63547e-08
-6.63405e-12
1.42419e-11
8.1781e-13
4.42484e-10
-1.30468e-11
-8.88285e-10
-1.91368e-07
-9.92024e-13
2.53322e-06
-3.49698e-07
-2.25309e-06
3.33651e-06
1.72336e-10
6.57115e-09
-8.53535e-07
1.28291e-06
-6.2514e-09
2.65432e-06
-1.54316e-06
-2.14125e-11
-6.96558e-06
2.45029e-11
-2.37447e-07
-5.99229e-12
-3.24011e-10
9.92108e-12
-7.06382e-06
9.07238e-07
3.93958e-11
-4.20994e-07
1.82071e-05
-1.2196e-10
3.07665e-10
2.50164e-10
3.57372e-09
-5.04347e-10
-3.12303e-09
2.69416e-06
2.00923e-10
-4.51057e-08
1.46955e-05
9.58552e-06
-8.13212e-06
3.80757e-07
-2.15389e-12
4.53225e-12
6.75128e-06
-1.57117e-06
-3.9345e-08
9.04109e-06
-2.93732e-09
-1.49866e-10
6.74221e-06
-9.38924e-06
-1.0111e-08
-1.24491e-05
1.86778e-10
-3.83541e-06
-2.7801e-11
-3.30181e-07
-7.48539e-12
3.47556e-09
-3.70922e-10
7.39117e-06
-9.32754e-10
4.81631e-06
2.63531e-10
-8.7159e-12
2.34132e-06
-1.87733e-06
-1.25097e-06
-1.32116e-05
1.63159e-07
-1.35542e-06
-4.11395e-09
-1.85337e-12
1.80596e-07
-5.92981e-10
-2.14822e-06
-1.96796e-06
-3.21056e-06
-1.76535e-06
3.57184e-09
1.29755e-08
2.03932e-08
3.6933e-07
-1.8805e-11
-1.29207e-08
-5.32675e-07
-4.8559e-12
-7.21401e-07
-7.09837e-10
8.83715e-08
3.9441e-11
6.57489e-11
2.07925e-06
-2.00931e-09
-4.41224e-09
2.01857e-06
1.24361e-11
-2.21067e-09
1.12026e-09
-1.65072e-06
-2.34326e-06
-3.6541e-08
1.9659e-07
-3.12466e-06
-1.57009e-08
2.16248e-11
1.70666e-05
3.05165e-07
4.39437e-11
-4.76331e-07
-3.08714e-06
-6.94374e-07
-2.60879e-12
-1.67986e-06
3.99894e-12
-2.56669e-12
-2.38993e-11
8.59528e-07
-3.8127e-11
1.94042e-10
9.27412e-07
-2.33319e-11
1.83555e-11
2.15142e-09
-2.33272e-08
1.83385e-07
6.14195e-12
7.08573e-12
3.75028e-07
2.16178e-08
-1.56375e-09
-3.35705e-11
1.67058e-08
2.09094e-11
-2.69848e-09
-3.53712e-06
-1.34113e-06
4.72635e-11
6.77934e-10
-2.57209e-10
-1.15188e-06
1.59459e-06
3.25791e-07
1.37433e-06
7.07285e-11
-1.71773e-09
1.60896e-05
1.37702e-05
-3.16168e-06
-2.77916e-06
-3.33851e-12
1.67676e-06
2.54158e-10
3.07397e-09
-8.34826e-07
-2.75828e-09
3.22378e-07
5.24589e-10
4.39369e-07
-5.31282e-10
2.80729e-06
-4.83192e-13
-1.3268e-09
-5.77724e-12
3.11113e-07
1.91044e-05
-9.68133e-12
4.06152e-12
-1.19978e-07
-6.26699e-12
3.96977e-07
1.22439e-06
1.2746e-05
4.91626e-06
-5.02228e-06
1.80044e-11
7.76773e-10
1.38928e-11
-1.41924e-09
-2.19475e-07
-3.04191e-07
8.79397e-06
4.13445e-07
-2.15009e-09
-3.9972e-07
-2.78459e-12
-2.22528e-06
-3.38163e-10
-5.13226e-12
3.47419e-12
2.72129e-05