/*--------------------------------*- C++ -*----------------------------------*\
| =========                 |                                                 |
| \\      /  F ield         | OpenFOAM: The Open Source CFD Toolbox           |
|  \\    /   O peration     | Version:  v2012                                 |
|   \\  /    A nd           | Website:  www.openfoam.com                      |
|    \\/     M anipulation  |                                                 |
\*---------------------------------------------------------------------------*/
FoamFile
{
    version     2.0;
    format      ascii;
    class       surfaceScalarField;
    location    "400";
    object      ddtCorrDdt0(phi);
}
// * * * * * * * * * * * * * * * * * * * * * * * * * * * * * * * * * * * * * //

dimensions      [0 3 -2 0 0 0 0];
oriented        oriented;


internalField   nonuniform List<scalar> 
21967
(
-1.90486e-08
-5.55646e-08
7.48099e-08
6.15559e-08
-2.32421e-08
-3.83104e-08
-7.34375e-07
-6.27124e-07
1.36154e-06
-2.46236e-08
-2.42128e-08
4.88508e-08
1.2813e-07
-4.46625e-08
-8.31799e-08
-2.97777e-07
1.65869e-07
1.31823e-07
1.76408e-08
-1.88308e-07
1.70816e-07
3.93413e-08
6.99493e-08
-1.09001e-07
-6.86241e-07
1.77487e-06
-1.0886e-06
1.4303e-06
-6.3747e-07
-7.92752e-07
-8.10227e-05
8.53481e-05
-4.32548e-06
4.13491e-06
1.42699e-05
-1.84057e-05
0.000285475
-0.000292171
6.69568e-06
5.95941e-05
-1.19216e-05
-4.76721e-05
-3.88696e-07
3.30003e-07
5.86105e-08
1.64678e-08
4.52406e-08
-6.17088e-08
1.99036e-07
-1.8252e-07
-1.62627e-08
2.55369e-05
3.40572e-05
6.8056e-08
-5.14315e-08
6.41789e-08
-8.31653e-08
9.50641e-08
-3.6402e-08
-5.86805e-08
8.3426e-08
4.48502e-08
-1.9112e-06
8.59439e-06
-6.68309e-06
-7.80531e-08
5.62323e-08
2.21081e-08
0.000138309
-3.06603e-05
-0.000107649
4.46798e-08
1.92697e-07
-2.37231e-07
1.68161e-07
-1.50599e-07
7.30471e-08
-4.65534e-08
-2.66698e-08
-1.44515e-07
-2.44132e-07
-1.99796e-06
2.40245e-06
-4.04352e-07
1.47421e-05
-3.26718e-05
1.79301e-05
1.61968e-07
3.73941e-08
2.51959e-08
8.93133e-08
-1.14336e-07
1.40696e-07
-1.01491e-07
-5.57101e-07
3.71037e-07
1.86933e-07
2.67726e-08
-4.88347e-08
2.21293e-08
-2.35206e-08
3.90347e-08
-1.55358e-08
-7.26162e-08
-5.53387e-09
-9.22971e-07
-2.33006e-07
1.1654e-06
-7.46307e-08
4.14565e-08
3.32014e-08
-1.03945e-06
5.95391e-08
9.76319e-07
5.96847e-08
-9.90949e-07
-1.5924e-07
-8.32434e-07
9.90985e-07
-7.17472e-08
2.08834e-08
5.08417e-08
4.69518e-05
-1.45117e-06
-4.55013e-05
1.07848e-05
1.96437e-05
-3.0429e-05
-6.43086e-07
1.07688e-06
-4.35077e-07
2.2139e-08
-4.67496e-08
1.04004e-06
-8.98263e-07
-1.41778e-07
4.72704e-08
4.78134e-08
1.35846e-08
-1.00289e-09
-1.31995e-08
-5.26663e-08
5.25166e-08
1.19563e-10
-1.58205e-07
1.87842e-07
-2.96324e-08
-9.56719e-06
7.65597e-06
-7.11414e-08
9.62714e-08
4.7975e-08
2.49438e-08
-1.54646e-07
1.99274e-07
-1.79598e-07
-2.94793e-09
5.85989e-05
-0.000157508
9.89092e-05
0.000326989
-4.15137e-05
2.3991e-07
-7.77292e-08
-6.25612e-07
6.92031e-08
-3.07116e-08
-6.00667e-08
9.08156e-08
3.59758e-08
2.55746e-08
-1.00801e-07
9.47688e-08
5.49685e-09
1.25276e-05
-8.39298e-06
6.73813e-05
8.5262e-06
-7.59075e-05
-5.0775e-07
1.18679e-06
-6.79193e-07
6.53879e-07
7.76476e-07
-1.78864e-07
1.55064e-07
2.38154e-08
3.94853e-08
-1.93555e-07
1.54049e-07
-7.48929e-07
2.41086e-07
-2.11617e-08
7.92353e-08
-5.83392e-08
-1.54571e-07
1.79166e-07
-2.46069e-08
-1.42014e-06
1.45223e-06
-3.23365e-08
1.18193e-08
1.24918e-09
-4.45117e-08
3.49973e-08
9.43943e-09
-8.9931e-07
7.51854e-07
1.46967e-07
7.15367e-08
-6.77205e-08
-3.80789e-09
1.80996e-05
-4.93061e-06
-1.31695e-05
8.77728e-06
9.32212e-06
-7.72055e-05
0.000107259
-3.00533e-05
-2.493e-08
-8.60172e-09
3.33667e-08
-3.53227e-07
5.5759e-07
-2.03511e-07
4.89131e-08
-4.89166e-08
7.51078e-09
-1.09681e-08
3.34216e-09
-6.26262e-10
4.57941e-08
-4.52037e-08
5.03432e-09
3.62406e-08
-4.12945e-08
-1.66485e-07
1.48989e-07
1.7459e-08
-1.3863e-07
-2.77548e-08
7.96481e-06
-6.7122e-06
-1.25212e-06
-3.73041e-08
4.18915e-08
-3.02596e-08
-4.44918e-08
4.29828e-09
1.65278e-08
-2.08974e-08
8.90204e-07
-1.8412e-06
9.51068e-07
9.24984e-07
1.448e-06
-2.37202e-06
-4.08869e-08
5.52609e-08
-1.43632e-08
3.503e-05
2.56848e-07
-8.1315e-08
-1.7557e-07
-4.97663e-05
-2.74391e-05
3.02888e-05
-1.95041e-05
-1.91778e-07
5.35523e-07
-3.42764e-07
2.95779e-07
-6.89877e-07
3.93691e-07
-4.20178e-08
-5.87997e-08
-3.76334e-07
3.89365e-07
-1.35002e-08
-1.11263e-05
0.000149435
3.69487e-07
-2.63373e-07
-1.06288e-07
-4.9882e-08
-1.3006e-09
5.12226e-08
1.52795e-07
1.0401e-07
-2.97697e-06
2.87941e-06
9.79209e-08
-4.17607e-08
-8.10949e-09
-2.01911e-08
3.89565e-07
-3.61064e-05
2.32959e-05
-1.43775e-07
1.65367e-08
1.2701e-07
2.88196e-07
-1.00111e-07
-1.88864e-07
-4.08707e-07
2.6552e-07
1.42636e-07
7.26855e-07
4.88035e-07
-1.21239e-06
-1.23871e-06
1.07937e-06
3.57192e-08
3.04228e-08
-6.63591e-08
-1.35125e-08
-2.67107e-08
4.02279e-08
-3.29199e-07
-1.09137e-06
-3.78778e-07
2.41636e-09
-1.74063e-08
2.16468e-08
-1.85968e-08
-7.07822e-09
8.1081e-08
-7.81482e-08
-6.6062e-08
-4.29082e-08
4.22604e-08
-5.70332e-08
2.95565e-08
2.75446e-08
1.06073e-07
-3.58109e-08
-2.29423e-06
2.96251e-07
-4.22041e-08
2.61811e-08
1.6044e-08
-2.04104e-06
2.96617e-06
-1.15953e-06
4.73301e-07
3.99281e-05
-3.96924e-05
-2.35377e-07
5.51912e-08
-2.1339e-07
2.42807e-06
-1.2193e-05
9.76498e-06
5.83529e-09
2.16592e-06
-2.17014e-06
-5.55184e-06
4.52372e-06
1.02801e-06
-1.06366e-06
-4.36344e-05
3.51779e-05
8.45615e-06
-3.40611e-08
1.0446e-08
1.78857e-07
5.03089e-07
-6.81904e-07
-3.87429e-06
-1.67747e-06
-6.65859e-08
-5.18533e-09
5.81579e-06
-2.51817e-06
-3.31169e-06
-1.05314e-07
5.04726e-07
-3.99425e-07
-3.92919e-07
1.12148e-06
-1.40498e-06
1.17104e-06
4.14772e-07
-3.43791e-07
-7.0686e-08
2.22123e-08
3.41371e-07
-3.63522e-07
-9.90138e-05
0.000166395
-2.55449e-08
-1.66298e-08
-2.78342e-07
5.74077e-07
-1.54707e-05
2.12738e-05
4.39908e-08
-9.98872e-08
2.66487e-08
1.05437e-08
-3.7223e-08
-0.000110922
3.76413e-05
7.32803e-05
9.4322e-08
-5.04106e-08
-4.36921e-08
-1.23712e-08
-1.27889e-08
2.52327e-08
2.70223e-07
1.4472e-07
2.49562e-08
-2.24732e-08
-2.51911e-09
-4.16476e-09
-2.27977e-07
2.3207e-07
-2.69828e-08
-3.00898e-08
-9.8063e-07
1.74037e-07
-1.50823e-07
-2.31019e-08
1.2382e-05
3.36547e-05
-4.60359e-05
-3.24285e-08
-1.04688e-08
4.28961e-08
-1.0636e-06
1.95382e-06
2.48729e-05
1.15857e-05
-3.64586e-05
5.43706e-08
3.98695e-08
-5.47309e-09
3.04964e-08
-6.00257e-08
3.88154e-08
2.27286e-06
-5.46157e-08
-2.21844e-06
4.04186e-07
-5.09543e-07
2.92044e-06
-1.1766e-05
8.84518e-06
3.22603e-07
-7.66065e-08
-2.45727e-07
-1.70555e-06
1.3257e-06
3.8063e-07
1.49531e-05
-2.42567e-06
1.96516e-06
3.07357e-07
-4.32368e-05
6.81098e-05
-1.93073e-07
1.03489e-07
8.95665e-08
-7.41442e-08
1.11415e-06
-2.78036e-09
1.37419e-08
-1.11768e-08
0.000185209
-0.00012661
-2.02505e-08
-2.26267e-08
4.28523e-08
-7.40482e-07
6.35124e-07
1.05829e-07
-6.75636e-06
9.1847e-06
2.36503e-07
-8.00052e-08
-1.56349e-07
4.37313e-05
-3.80332e-06
-3.86415e-08
6.20569e-09
-2.80655e-08
-1.59157e-07
1.8715e-07
7.30633e-07
-9.38943e-07
2.10297e-07
-2.26414e-05
1.91881e-05
3.45549e-06
-8.82672e-06
-0.000113912
0.000122739
1.30075e-05
-1.53123e-05
2.30457e-06
-8.89299e-06
3.37915e-05
-2.48982e-05
-9.54871e-06
7.07448e-06
2.47532e-06
1.40534e-07
9.60568e-08
-1.52077e-08
1.23962e-08
3.21044e-06
-1.44663e-06
-1.76371e-06
-1.47674e-08
2.04145e-08
-5.46831e-09
4.54425e-08
5.99252e-08
-1.0536e-07
-1.85019e-07
1.80755e-07
9.01144e-07
-4.968e-07
-4.08893e-07
-5.14039e-08
-2.46682e-07
5.83778e-07
-8.70727e-08
-4.95665e-07
3.39675e-05
-1.92254e-05
9.96752e-05
-4.4368e-05
-5.53072e-05
-1.9203e-07
3.72172e-08
-3.64435e-08
1.74938e-08
1.88556e-08
-4.43719e-08
4.40445e-08
3.19588e-10
-6.59342e-07
-8.17868e-08
-2.2368e-07
7.26807e-07
-4.83409e-08
2.41723e-08
-2.54803e-06
3.17849e-06
-6.30355e-07
-2.24096e-08
-4.79073e-10
2.28422e-08
0.000328287
-0.00040075
7.24631e-05
-1.83293e-08
-1.38737e-08
3.20893e-08
4.56673e-07
-4.54792e-07
5.5316e-05
4.43593e-05
1.85414e-06
-2.03554e-06
1.81247e-07
-6.86219e-06
-1.80583e-05
2.49208e-05
4.94732e-08
-3.28346e-08
-1.65921e-08
-1.11055e-05
-3.21312e-05
2.39123e-07
2.94218e-07
-5.33388e-07
6.63386e-08
5.17622e-07
-4.3446e-10
3.2324e-07
-2.3968e-08
1.53193e-09
0.000188503
-4.51783e-05
-0.000143325
1.1886e-06
-3.15047e-07
-8.7389e-07
-5.3446e-07
-3.65787e-07
1.12344e-06
1.18841e-05
2.25374e-08
6.16558e-10
-2.32301e-08
-1.98817e-08
4.03261e-05
5.55482e-06
-4.58814e-05
6.10782e-09
1.35868e-09
-7.93039e-07
7.9324e-08
7.1366e-07
-9.17551e-06
-3.73015e-07
3.84735e-08
-1.14423e-08
-2.70034e-08
2.19605e-06
-1.92717e-05
1.70754e-05
5.69129e-07
3.91403e-06
-4.48156e-06
-9.32827e-07
1.16444e-06
-2.31714e-07
1.87128e-05
-2.19939e-05
3.28119e-06
-2.70847e-07
-1.39782e-07
-2.63459e-08
-1.87435e-08
4.48715e-08
-5.18103e-08
1.45716e-08
3.72327e-08
-4.64082e-07
-8.07468e-07
1.27155e-06
-2.27819e-07
2.63318e-07
-3.52795e-08
-9.95751e-08
1.31737e-07
-3.18697e-08
7.82122e-08
-1.52393e-07
6.48528e-07
-4.96536e-07
-6.16143e-07
4.24701e-07
-5.23498e-09
-2.4693e-07
-7.26557e-07
9.73349e-07
-6.79071e-10
3.86767e-08
-3.80083e-08
4.88222e-05
-5.31377e-05
4.3155e-06
1.76959e-08
-3.70815e-07
1.08246e-07
-7.89495e-07
6.81674e-07
1.04298e-06
2.16772e-06
-4.11274e-07
1.40609e-07
1.16403e-06
-1.41121e-06
0.000100359
-0.000131019
3.40849e-08
-3.48014e-08
-2.76535e-05
8.36324e-06
1.929e-05
-1.75081e-07
1.47001e-07
-2.77892e-08
2.44212e-07
-2.16189e-07
-3.10585e-08
1.21135e-08
1.89373e-08
-7.81847e-06
5.66407e-05
-2.115e-06
1.37653e-06
7.3896e-07
4.33263e-08
-7.41467e-08
3.31855e-09
-1.96649e-08
1.62486e-08
3.53527e-07
1.01168e-06
-1.36449e-06
-2.69859e-07
-7.67271e-07
-2.87404e-06
3.44407e-06
2.08361e-07
-3.58513e-08
-1.72566e-07
3.88747e-05
-5.32533e-10
-4.3867e-08
-9.42621e-08
-2.94239e-07
3.86893e-07
8.47233e-08
2.13015e-05
-2.81636e-05
-1.5481e-08
-1.55612e-08
-2.09406e-07
1.87619e-07
2.13802e-08
5.57814e-10
2.19785e-08
7.0472e-07
1.80895e-07
-8.8569e-07
1.93635e-08
1.91247e-08
-9.12756e-09
2.07268e-07
-1.98095e-07
8.67563e-08
4.22015e-08
2.21294e-08
-6.43126e-08
1.6351e-08
-1.84718e-08
2.03481e-09
2.64186e-07
-7.78671e-08
-1.85796e-07
1.86289e-07
-2.1404e-07
-4.15584e-07
3.19781e-07
5.17374e-05
-6.28428e-05
-4.34405e-07
-1.88871e-07
-1.33413e-08
-5.93289e-08
5.57654e-08
2.31853e-07
3.01011e-07
5.72086e-07
-8.72498e-07
9.40925e-09
1.64659e-08
-2.57397e-08
-3.14832e-08
-6.6499e-08
9.79467e-08
3.86287e-08
-2.86585e-08
-9.96977e-09
6.94614e-07
2.47018e-07
-9.4164e-07
1.78523e-06
2.56262e-07
-2.04143e-06
-6.12866e-09
8.6147e-07
-1.0937e-07
2.72259e-08
2.22541e-08
3.1723e-05
-2.49446e-05
-6.77792e-06
0.000113833
3.73086e-06
-0.000117563
-3.43054e-08
1.5988e-08
1.81255e-08
-1.26027e-07
6.34307e-06
-6.21692e-06
-1.15277e-05
5.28553e-06
6.24197e-06
-7.93156e-09
4.35081e-08
-3.555e-08
6.78674e-09
-2.52224e-08
-5.3085e-07
1.79571e-07
3.51257e-07
-2.15465e-08
3.00699e-07
8.87964e-07
-3.36046e-08
3.31572e-08
2.75497e-10
-2.75056e-06
-5.00122e-08
2.39453e-08
2.60692e-08
-9.50211e-07
-5.00203e-08
9.90154e-09
4.01313e-08
5.52188e-07
1.4241e-07
-4.77306e-08
8.83045e-08
-4.07305e-08
1.28627e-07
-9.21859e-07
-3.50413e-05
1.36917e-05
2.13498e-05
-1.40808e-08
-2.42394e-08
7.99039e-08
-5.57055e-08
-4.80881e-07
2.33492e-06
-3.98193e-07
-1.05562e-08
-5.7057e-07
-1.04479e-07
6.78399e-07
-1.56714e-07
1.57705e-07
-6.18094e-10
4.81404e-06
5.62063e-06
-1.04344e-05
-4.64023e-08
8.42418e-08
-3.78554e-08
2.50166e-08
-2.54708e-08
6.78128e-08
-6.48823e-07
3.78721e-07
2.70349e-07
-1.58264e-07
1.49296e-07
2.67757e-08
1.82486e-07
4.68038e-09
-2.09307e-08
1.62179e-08
-1.51692e-07
7.86854e-07
1.05985e-07
-3.76216e-08
1.97852e-07
-1.60096e-07
1.34273e-06
-7.45729e-07
-5.97867e-07
1.23085e-05
-1.0665e-05
-1.64484e-06
4.04659e-07
-1.39211e-07
1.82259e-07
-4.05918e-07
-2.8798e-08
-1.57309e-08
4.21143e-06
-2.42831e-06
-1.78132e-06
-2.09084e-05
-1.7321e-06
-9.40476e-08
1.39554e-07
9.95877e-08
-5.85514e-08
-4.1229e-08
1.79458e-07
-4.92302e-10
-1.00631e-08
8.41961e-08
-7.41094e-08
6.03587e-08
-3.21019e-08
-2.82861e-08
2.18877e-05
-3.1799e-05
9.91164e-06
-2.20747e-08
-1.80503e-08
3.9951e-08
5.83787e-07
-3.16031e-08
-2.9666e-06
-5.33157e-06
8.29787e-06
-4.04434e-08
1.39727e-08
-9.04336e-09
-3.50317e-05
3.73435e-08
6.34619e-09
-4.37087e-08
9.79208e-06
-4.76613e-06
-5.02524e-06
-5.22126e-08
4.09786e-08
1.12027e-08
-3.54063e-07
8.37079e-07
-4.82738e-07
-4.62585e-07
-8.6596e-07
1.32956e-06
4.85309e-08
-4.38427e-08
2.33703e-06
-5.51894e-07
4.77522e-08
-1.05072e-08
-3.47124e-05
7.90716e-06
9.01906e-07
-1.36453e-06
4.55787e-06
5.23407e-06
2.33187e-07
3.5059e-07
-4.15377e-07
1.96902e-07
2.18575e-07
1.00088e-07
-1.73962e-08
-8.25836e-08
-7.34596e-05
9.39833e-06
6.40608e-05
-2.57649e-05
-5.52579e-05
-5.53881e-07
-1.05753e-07
2.63377e-06
-2.76759e-06
1.33881e-07
-5.13403e-05
0.000136688
-3.13868e-08
1.43979e-08
1.69681e-08
5.74421e-07
-7.44398e-07
1.71745e-07
3.32353e-08
-4.11861e-08
5.59184e-05
-2.8585e-07
2.92422e-06
-2.63847e-06
1.80309e-08
6.01152e-08
-7.4824e-08
1.7495e-07
-4.54384e-08
-4.23821e-10
4.58254e-08
3.67151e-08
2.36368e-08
3.9336e-09
-2.60073e-08
5.24394e-07
-2.85315e-07
-4.8017e-08
7.11511e-09
-9.93272e-08
-1.10398e-07
5.80055e-07
-3.82546e-06
3.24591e-06
-1.14422e-07
5.39838e-08
6.05855e-08
-9.72678e-09
-4.02978e-08
-1.67859e-08
4.50761e-07
-3.29102e-07
-1.21504e-07
-7.75663e-07
3.54078e-07
4.2062e-07
2.49408e-08
-9.02824e-08
6.54635e-08
1.23435e-05
-9.42352e-06
4.22596e-07
-6.14184e-09
-4.16471e-07
1.34445e-07
-1.45657e-07
1.13587e-08
-1.80571e-05
-7.44603e-06
2.5503e-05
1.9102e-07
-1.9202e-08
-1.7168e-07
4.00068e-07
-9.69777e-07
-1.0716e-06
7.18133e-07
3.54735e-07
-1.2296e-07
2.36152e-08
1.18487e-06
-2.38618e-08
-1.16124e-06
-4.25023e-08
3.27968e-08
-1.08147e-05
1.72441e-05
-6.42966e-06
-8.47889e-08
6.05671e-08
-4.2514e-08
5.37001e-08
-1.11007e-08
2.08991e-07
-8.03458e-08
-1.28976e-07
1.22265e-08
-1.45023e-07
4.95896e-06
0.000108874
3.64705e-08
-8.28759e-08
1.55014e-05
-1.44667e-05
-1.03465e-06
2.14637e-08
-1.44698e-08
-7.128e-09
1.75754e-07
-1.36251e-07
1.12243e-07
2.23092e-08
-2.98931e-06
8.6317e-08
7.10191e-07
4.67526e-07
-1.17812e-06
-2.92435e-06
-6.68205e-06
9.60603e-06
-4.81081e-07
6.93801e-07
-2.1296e-07
2.40276e-08
-6.0989e-09
-1.80855e-08
8.26877e-07
5.15663e-07
1.37349e-06
-4.77007e-06
3.39612e-06
1.48126e-07
-4.16741e-09
-1.42709e-07
-1.05702e-07
5.90672e-08
4.63669e-08
-6.29324e-10
-9.34206e-08
-2.74104e-08
-2.94228e-08
5.67257e-08
-8.43755e-05
7.43737e-05
1.00016e-05
1.94911e-06
-2.6907e-07
-1.67987e-06
8.13889e-08
-7.36369e-08
-7.56342e-09
-5.88879e-06
2.96445e-06
6.64413e-08
4.83618e-07
-5.52545e-07
3.48201e-06
-2.10894e-06
-1.10181e-10
2.41963e-08
-1.27725e-07
-3.27598e-07
4.54852e-07
1.02977e-07
2.79389e-08
-1.62401e-09
-2.63463e-08
-5.74836e-07
1.75971e-06
-4.33489e-08
-9.35665e-09
-3.63216e-08
3.71962e-07
-3.35961e-07
-1.00695e-06
-3.55023e-05
5.33053e-05
-1.7803e-05
3.90117e-07
-8.71247e-07
-2.07971e-08
5.97746e-09
-2.77085e-05
2.76992e-05
-4.38155e-07
-6.32868e-07
-7.5763e-05
2.59882e-05
4.97746e-05
3.9033e-07
1.44556e-07
-5.34056e-07
-4.49965e-07
-3.26262e-07
-3.12263e-07
-1.62093e-08
3.28916e-07
2.91432e-08
-5.37333e-08
2.4723e-08
-3.00815e-05
4.37734e-05
2.67709e-08
-5.00279e-08
-8.85282e-07
2.00769e-06
-6.68537e-07
-1.3394e-06
3.16203e-07
-2.61037e-07
1.35785e-08
-7.75195e-07
9.39045e-07
-1.63949e-07
9.44364e-06
6.05794e-06
1.39483e-08
-2.03813e-08
6.39585e-09
-4.56749e-06
2.64298e-05
3.08974e-07
-3.45082e-07
3.23786e-06
-2.65763e-06
-4.16533e-07
8.44334e-07
-4.27084e-07
-6.41563e-09
3.42105e-08
-5.72384e-09
4.98267e-08
-2.77177e-08
2.04784e-07
-1.92276e-07
-1.23117e-08
4.16967e-06
4.95363e-06
7.35435e-06
1.73095e-07
-4.09468e-08
-1.07289e-06
7.93974e-07
3.37364e-07
-1.04191e-07
3.41784e-07
-4.18327e-07
7.67831e-08
2.02467e-08
-1.12974e-07
9.26892e-08
-2.32617e-06
-2.62618e-06
7.80431e-08
-7.67339e-07
-3.05794e-07
-6.63882e-07
-2.79716e-07
9.4378e-07
0.000150336
-9.44172e-05
-3.87576e-05
-5.26014e-08
1.2611e-08
3.9921e-08
-2.22275e-07
1.16557e-06
-9.42885e-07
1.11014e-07
4.34929e-07
-5.6264e-07
-8.72163e-08
2.61311e-07
-1.74089e-07
-1.31842e-06
1.0441e-08
1.30976e-06
2.64794e-05
-9.99392e-05
3.94511e-07
-5.36935e-08
-3.40678e-07
2.27642e-08
-8.74747e-09
-1.40225e-08
-5.15167e-09
3.73812e-08
-3.22388e-08
-7.86743e-06
-9.46814e-05
0.000102549
-2.51714e-08
2.00176e-08
5.20345e-08
9.12197e-08
-6.64064e-08
1.09537e-07
-7.85567e-08
-3.13548e-08
3.19963e-07
3.95374e-08
-4.90466e-08
2.14987e-07
-1.6613e-05
1.27862e-05
3.82727e-06
-4.88096e-08
-1.26843e-06
3.60105e-08
-8.11197e-07
-6.6434e-08
3.69647e-08
4.43467e-07
4.58739e-07
-3.49221e-07
7.02219e-07
-1.78057e-07
-5.24724e-07
-7.49773e-05
5.07701e-08
1.7526e-07
-1.64518e-06
-7.41179e-05
2.16676e-07
-3.40383e-07
1.24057e-07
-4.43068e-07
-2.63753e-08
4.69754e-07
-4.98073e-09
1.88064e-08
-1.38335e-08
-7.44018e-06
3.6318e-06
3.80811e-06
-6.25251e-08
-1.12586e-07
4.68113e-07
-4.515e-08
3.39466e-08
1.91545e-06
1.35318e-06
-1.70798e-06
-1.01061e-07
-1.28325e-07
2.29319e-07
8.55736e-08
2.6799e-07
-3.53201e-07
7.09051e-07
-1.10295e-06
-1.57298e-06
2.58921e-06
-1.01606e-06
3.05291e-07
-1.12817e-07
-1.92828e-07
-1.25267e-06
2.54267e-07
1.00776e-06
-1.38222e-05
-3.78214e-05
5.16436e-05
-1.59128e-08
4.25647e-08
-1.27091e-07
1.70245e-05
-2.59173e-05
7.16401e-05
-4.51609e-05
-5.65705e-08
3.03998e-08
2.60984e-08
-4.32106e-05
2.93884e-05
1.37513e-07
-1.17419e-07
-2.03771e-08
7.14338e-07
-1.02968e-06
-1.83405e-06
-2.80495e-07
1.77686e-08
6.36154e-08
-4.41574e-05
-3.15534e-05
7.5711e-05
-1.30921e-08
2.90552e-09
1.01609e-08
7.48064e-06
-2.92218e-06
3.20939e-06
-3.08353e-06
-1.25855e-07
1.95191e-07
-2.49812e-07
5.46398e-08
-9.07989e-07
-4.6221e-08
2.2691e-08
2.33535e-08
-7.38362e-07
2.95188e-07
4.42872e-07
1.25334e-08
3.63807e-08
-3.90134e-08
-5.1106e-08
-1.13477e-09
-1.81892e-08
1.31935e-08
-3.38899e-08
-1.84542e-08
5.23663e-08
2.67985e-07
-3.62122e-07
9.44094e-08
1.78783e-08
4.89318e-09
3.57373e-05
-8.74171e-05
5.47937e-05
3.26236e-05
6.77526e-08
-2.95361e-08
-3.81436e-08
4.35448e-07
-1.54834e-07
-2.80652e-07
-2.15589e-08
-3.49926e-08
1.9344e-07
-1.59448e-07
-3.40711e-08
1.29102e-08
2.01488e-08
-3.30743e-08
-8.65569e-06
-5.81096e-06
-1.461e-08
-4.63911e-09
1.92984e-08
-7.45183e-07
-9.59204e-07
-6.92046e-08
4.894e-08
-3.3106e-06
5.85047e-06
-2.54021e-06
7.02805e-07
-9.4248e-07
2.3965e-07
-1.11443e-07
1.10896e-07
-3.09754e-08
-8.35046e-08
5.32671e-07
5.67123e-07
-1.0983e-06
4.72204e-07
-6.24838e-07
-1.30798e-08
1.26655e-06
-1.25269e-06
-9.94188e-07
-8.573e-06
2.53482e-08
-1.0414e-07
-1.78047e-05
-1.08826e-06
1.16722e-05
-2.72767e-05
1.56045e-05
-3.73889e-08
-8.05229e-09
1.74876e-06
1.01445e-07
-1.85017e-06
-9.8303e-08
9.57374e-09
8.89373e-08
-3.68411e-08
-2.53629e-05
1.20047e-07
1.26993e-07
-2.82212e-08
2.08812e-09
2.59663e-08
-1.68407e-09
1.85063e-08
-1.67471e-08
4.26634e-09
-4.04117e-08
3.61921e-08
2.24373e-08
-2.49322e-08
2.4433e-09
-1.90483e-05
3.07205e-05
6.55578e-08
-7.12182e-08
5.99142e-09
-4.60212e-05
5.45474e-05
1.55453e-05
-2.86546e-05
1.31097e-05
-0.000108468
9.73419e-05
2.08372e-07
9.69493e-08
-1.70896e-07
1.92201e-07
-2.11896e-08
-4.54964e-09
-8.3684e-09
1.30385e-08
3.62172e-07
-9.38905e-08
-9.8982e-09
-7.28719e-07
1.2154e-06
2.99624e-06
6.75357e-07
-2.18361e-08
-6.53153e-07
-4.73903e-08
2.32849e-08
2.40962e-08
-3.80665e-06
8.621e-06
-4.89393e-08
4.45841e-08
5.90585e-07
-3.90113e-06
-2.65571e-07
2.87708e-07
-2.78583e-05
-1.57762e-05
5.88056e-08
3.65527e-06
3.74327e-07
7.7468e-08
-4.99453e-08
-2.75634e-08
8.92009e-06
-1.11097e-05
2.18885e-06
-3.85909e-08
4.29611e-07
-1.11467e-05
8.18002e-06
1.38187e-08
-4.71068e-05
0.000375394
4.06352e-08
3.68136e-08
3.66973e-07
2.78309e-08
8.52245e-08
-9.53244e-08
1.39299e-07
-4.151e-08
-9.73145e-08
1.15292e-07
6.01448e-07
-2.6267e-07
1.58895e-06
-2.01756e-06
-2.96311e-06
4.9799e-06
4.04381e-07
-6.43624e-07
2.39398e-07
4.80375e-08
-2.26906e-07
8.88452e-05
-2.34212e-07
1.10278e-07
1.2414e-07
3.399e-05
-5.85952e-05
2.46051e-05
-6.42774e-07
3.44439e-07
2.98176e-07
-8.25756e-08
-1.57843e-08
9.75832e-08
-8.24445e-08
-1.5154e-08
2.31319e-08
-4.39581e-08
-7.03676e-09
-6.07477e-09
-3.47706e-07
5.43123e-08
1.72254e-08
-7.75822e-07
1.31856e-07
3.21849e-06
-0.000210027
0.000206808
1.35153e-07
1.80112e-07
-3.14165e-07
5.90808e-08
1.15243e-07
8.00185e-05
-0.000192921
5.79568e-05
0.000134964
2.71088e-08
-4.73717e-08
2.04067e-08
8.87851e-07
-2.65108e-08
-4.82725e-08
1.43816e-08
-4.75272e-08
-6.39098e-08
1.86486e-08
3.95662e-08
-5.80376e-08
2.98369e-08
-6.00855e-08
-3.06608e-08
1.52002e-08
-2.87308e-07
2.03641e-07
8.3783e-08
8.22914e-06
1.70996e-06
3.58893e-07
-2.0688e-06
-1.0564e-08
6.66176e-08
4.69345e-08
-1.13558e-07
6.26605e-07
1.57333e-05
-5.56057e-05
-1.11317e-06
2.79941e-07
1.35389e-07
-8.29892e-06
-5.90281e-06
1.42015e-05
-0.000125923
0.000213648
-8.77249e-05
-9.89764e-09
2.34094e-08
-1.00403e-06
1.07234e-06
-6.86868e-08
7.89959e-09
-2.02393e-08
-1.3953e-05
5.65445e-06
3.00943e-07
-5.97003e-07
2.94887e-07
6.40242e-07
-1.78355e-08
-6.21115e-07
-7.63402e-07
4.15817e-07
3.48227e-07
-2.20539e-06
-2.54481e-05
9.36991e-08
-4.40931e-09
-8.93027e-08
-3.36381e-06
-1.78494e-06
5.15006e-06
1.05037e-06
-3.45814e-07
-1.79147e-08
3.31438e-09
1.98743e-07
3.37916e-05
6.48286e-07
-1.11233e-06
-8.03621e-09
5.89236e-05
-0.000162442
0.000103519
-2.18054e-06
-1.69367e-06
-2.69508e-05
-3.34297e-05
6.03808e-05
1.0637e-07
-1.37271e-08
1.07423e-07
8.5056e-06
-5.88863e-06
-2.61689e-06
5.30224e-06
2.66279e-06
4.61903e-07
1.26715e-05
-1.8978e-06
-1.07741e-05
1.54099e-08
3.28366e-09
-1.89697e-08
6.41772e-06
2.4127e-08
-6.44235e-06
-5.08805e-08
-2.38977e-08
-9.88161e-09
-6.50082e-07
-3.65606e-07
1.01564e-06
3.05887e-08
-3.90474e-08
8.48418e-09
2.96713e-06
-6.33045e-06
7.57326e-07
-7.69923e-07
-2.30785e-08
2.18269e-07
-7.53287e-08
-1.47647e-08
7.09919e-10
1.4553e-08
2.76249e-07
8.87332e-07
-0.000138089
0.000143048
3.28574e-07
-1.94835e-07
-9.98171e-07
-1.97879e-06
1.51428e-08
-6.59939e-08
-1.34685e-05
4.85275e-08
-1.7922e-08
-3.21413e-08
-6.49374e-09
2.5445e-07
-3.57152e-08
-2.18364e-07
1.71404e-07
-3.51777e-08
-1.36252e-07
-9.98239e-09
-1.60792e-07
-4.95883e-07
5.75338e-07
-2.86723e-08
4.74311e-08
4.45821e-07
6.82396e-09
-3.08198e-08
2.39599e-08
6.07802e-06
2.4271e-06
2.69387e-07
-5.45958e-08
-2.14537e-07
9.68933e-08
7.81513e-06
7.13775e-06
1.11384e-06
-5.8182e-07
-2.24155e-08
4.52239e-08
-2.29957e-08
3.88978e-09
-3.73063e-08
-2.97537e-08
-2.3615e-07
4.87854e-05
-9.29423e-05
-7.52462e-06
-0.000100944
7.64703e-08
3.32033e-08
-1.09281e-07
-2.84082e-08
-1.56943e-08
4.40795e-08
-1.43809e-07
-1.42714e-07
-2.54648e-06
-3.57338e-06
6.12119e-06
-2.36746e-06
-2.77138e-05
-5.33993e-08
-5.26215e-08
-3.45577e-07
-3.03144e-07
-3.47973e-08
-7.71403e-09
-6.59138e-05
0.000124837
1.24109e-08
-7.11661e-05
6.32986e-05
6.35199e-05
-5.9789e-05
-2.43452e-05
3.5931e-05
1.82795e-06
-6.45732e-06
4.82422e-09
-2.03172e-08
1.55018e-08
1.38611e-08
6.38917e-08
-7.80332e-08
-2.20772e-08
-6.21079e-09
-7.85356e-06
6.51433e-06
1.33885e-06
6.51368e-07
-7.6402e-08
-3.94134e-06
0.000138
-2.51057e-08
-2.2203e-08
1.05264e-07
-2.86529e-08
1.46976e-08
-6.51945e-07
-1.23851e-06
1.89039e-06
3.3143e-05
-4.04766e-08
-3.66513e-08
4.09486e-08
-8.13321e-09
3.34277e-08
-2.52882e-08
-2.47057e-06
1.81884e-06
-7.3398e-07
8.22064e-07
-8.81803e-08
1.2136e-05
-2.07916e-05
2.34331e-07
9.30154e-07
2.73699e-07
9.93536e-07
4.68462e-07
-1.98889e-07
-2.69765e-07
-1.62539e-05
-3.15903e-08
5.7693e-07
9.86085e-08
-1.34664e-07
7.21529e-08
2.02501e-05
-7.46373e-06
4.1607e-08
-2.63596e-09
-3.90345e-08
-2.94875e-06
4.77639e-06
-2.55368e-07
4.69206e-08
-1.71607e-07
1.25067e-07
-1.48521e-06
3.90683e-07
1.09572e-06
4.1981e-08
-3.3437e-08
-8.57484e-09
-4.03255e-08
5.53527e-09
4.71354e-07
-4.53419e-07
0.000164431
2.40725e-05
-2.29531e-06
-1.12494e-06
3.42038e-06
1.19978e-06
-4.14853e-06
-4.14802e-08
5.52881e-08
-5.8728e-09
2.64954e-08
-2.06394e-08
-1.6697e-05
2.882e-05
-1.21221e-05
1.50408e-07
5.9579e-06
-6.10989e-06
1.67036e-07
-1.42042e-07
-2.66598e-09
3.75575e-08
-1.89857e-07
-4.04625e-06
4.23646e-06
6.0684e-06
-5.92062e-05
-3.24633e-07
6.95399e-07
-3.7105e-07
-1.11257e-07
-5.19995e-08
1.63145e-07
-6.71775e-10
7.20283e-09
-1.40419e-07
6.1211e-07
-2.13977e-08
-9.55723e-07
9.77057e-07
1.78505e-06
-1.24921e-06
-2.8297e-06
2.23175e-06
5.98943e-07
8.90787e-06
-4.38413e-06
6.23644e-09
3.52305e-08
1.87911e-08
1.73024e-06
4.14627e-07
-1.22386e-05
1.18236e-05
-2.15477e-06
4.00036e-08
-1.08562e-08
1.45924e-06
-1.18338e-06
-1.18074e-08
-1.43255e-06
1.40862e-06
-1.43592e-06
5.17341e-05
-5.92588e-05
-1.13383e-08
2.74074e-08
-1.61901e-08
5.41457e-09
1.59603e-08
-2.13107e-05
-1.09203e-05
3.22316e-05
-4.09058e-08
-1.27787e-08
-3.02926e-08
1.35432e-08
1.65787e-08
5.84145e-06
6.14703e-06
-1.19887e-05
-3.94589e-08
-2.82543e-08
-1.11579e-07
-1.22967e-07
3.18653e-08
2.87888e-09
-3.46895e-08
7.26155e-07
-6.12479e-07
-1.32467e-08
-5.63304e-08
6.94319e-08
-3.0532e-05
1.69815e-06
2.8834e-05
-4.22443e-07
3.84333e-07
-1.47812e-08
4.94862e-08
-3.46946e-08
-4.41678e-07
-4.63367e-08
-4.19853e-08
-2.4646e-08
4.50232e-07
-1.93987e-07
-2.56268e-07
-8.28748e-09
-2.31551e-08
1.39166e-08
-2.67354e-08
-1.79888e-07
8.81768e-08
9.18178e-08
0.000116242
-0.000230154
1.23855e-07
-5.45978e-07
-2.50342e-06
3.22896e-07
-6.14289e-05
5.55475e-07
1.21943e-06
7.40151e-09
-1.73653e-08
-4.9019e-07
-4.09055e-08
1.92251e-08
3.05838e-08
-9.67557e-09
-1.02014e-08
1.98434e-08
1.62522e-08
-1.78494e-08
-2.35635e-08
-4.33266e-07
2.68799e-07
1.64606e-07
-2.94591e-10
4.45749e-09
-4.35456e-09
-3.63225e-08
-5.662e-08
9.2347e-08
1.26715e-06
4.58322e-06
4.34669e-08
-3.2881e-08
2.18197e-07
3.65361e-08
-7.47598e-07
7.37468e-07
-2.21681e-05
3.45505e-05
4.96562e-08
-3.04221e-08
-8.33274e-06
8.83956e-07
-1.81426e-07
-3.68354e-07
-8.77442e-07
1.24653e-06
-0.000108773
-7.22408e-05
0.000181014
-1.60923e-08
4.33515e-08
-1.78664e-06
2.34154e-06
-1.14296e-06
8.15096e-07
7.11388e-07
-1.52658e-06
3.57504e-08
-3.51156e-08
-7.11495e-10
4.19143e-07
-1.12342e-05
-8.96496e-07
-5.75186e-07
1.47197e-06
8.57595e-08
-3.02885e-07
2.17112e-07
-9.57451e-08
1.81494e-07
-2.29057e-08
4.33897e-07
1.24626e-07
5.86362e-07
-5.54763e-07
-3.2028e-08
1.32527e-07
-1.0289e-06
9.8831e-08
-2.09657e-07
1.1056e-07
-2.24553e-08
1.50737e-08
7.31354e-09
-4.05106e-05
9.9786e-06
-7.16012e-06
-5.01897e-06
1.21793e-05
4.13306e-07
-8.40667e-08
7.88692e-08
-6.09313e-08
-1.64735e-05
-8.15683e-07
-5.27641e-08
3.79926e-08
3.43147e-08
1.59377e-09
5.38925e-07
-8.82252e-08
5.03713e-06
-4.88748e-06
1.71717e-06
-5.18637e-07
1.14297e-06
-4.10512e-06
2.96173e-06
-3.50716e-08
-1.58609e-07
3.6482e-08
-0.000144192
2.87214e-08
9.90343e-09
1.35526e-08
2.95533e-09
1.76534e-07
2.45091e-07
-3.48303e-07
1.03173e-07
-3.91307e-08
4.11302e-08
-5.45156e-08
-3.6224e-08
-1.55892e-08
-3.25163e-08
5.92628e-08
-4.1088e-07
1.03635e-07
3.07156e-07
-2.96288e-07
5.272e-09
3.95276e-09
2.1543e-06
-2.57245e-08
-2.12807e-06
-7.60917e-06
-7.70336e-06
1.08595e-05
3.96802e-06
-1.48276e-05
4.47422e-05
-0.000182831
-3.36601e-06
1.79295e-06
2.94458e-08
-2.2634e-08
-5.01279e-07
1.15789e-07
3.85335e-07
8.05014e-09
-3.20048e-07
1.08479e-07
-8.82114e-08
5.18314e-08
-3.05808e-06
9.57239e-06
6.58975e-09
-5.67883e-07
-2.17817e-07
7.83592e-07
2.25152e-07
3.60807e-07
-2.08613e-07
9.08135e-08
1.16913e-07
6.96933e-08
-3.95499e-08
-3.01569e-08
2.09067e-08
-1.60734e-08
1.91453e-06
5.32827e-06
-7.24292e-06
1.15404e-08
-4.02208e-08
-4.03077e-07
1.05089e-05
9.27752e-07
-5.23231e-07
-2.29096e-05
1.19267e-05
2.50257e-06
0.00012993
-0.000132433
1.77716e-06
-1.78852e-06
1.14077e-08
-2.60185e-07
-1.5116e-07
-1.66535e-08
-3.61144e-08
6.26278e-07
-3.12893e-05
3.73577e-05
5.94417e-07
-1.24468e-06
-1.60501e-07
-1.73711e-07
3.34245e-07
-9.18544e-07
-1.65713e-05
1.74897e-05
-1.79602e-08
2.64969e-07
-1.68589e-07
-9.67063e-08
-4.05416e-08
-3.34105e-08
7.3986e-08
3.5221e-08
1.20629e-07
-1.55839e-07
1.11585e-07
-1.9297e-07
3.76829e-08
2.99929e-08
-4.77918e-08
1.77147e-08
9.75653e-07
-1.34369e-06
7.01283e-07
2.83808e-07
-3.30213e-07
4.63353e-08
6.97005e-06
1.93791e-06
1.90049e-07
-2.42035e-07
-3.56023e-08
-4.85886e-09
4.04543e-08
1.23132e-08
-3.92937e-08
1.78925e-09
-5.27132e-08
7.34684e-08
2.9222e-09
1.73738e-05
-1.51779e-05
-8.05249e-06
6.03493e-06
-9.41389e-07
4.9213e-07
4.49265e-07
-1.48973e-05
3.13152e-06
1.17648e-05
-3.41392e-05
1.48672e-05
6.39597e-06
-6.52168e-06
2.09275e-07
-1.37368e-08
-1.95843e-07
1.59168e-06
-1.03615e-06
-1.52015e-05
1.42829e-05
1.48684e-07
-1.55529e-05
7.78495e-05
-0.000145043
6.71934e-05
-7.88287e-08
5.45657e-08
2.38354e-08
5.06222e-07
4.66702e-07
-9.72905e-07
2.40846e-06
-5.78649e-09
8.43535e-08
2.31047e-07
4.339e-09
-2.29144e-08
3.43664e-08
-3.84025e-08
-3.35094e-09
4.16575e-08
-9.62457e-07
4.61441e-07
2.42802e-07
-7.21423e-07
-2.64213e-08
3.72406e-06
-2.58117e-06
8.6811e-06
1.51966e-05
-2.38782e-05
8.05932e-07
-1.82042e-06
1.01548e-06
7.33456e-09
-4.0164e-08
-1.19148e-07
1.36778e-07
-1.75548e-08
-1.09926e-06
-3.85685e-07
1.60897e-08
-2.74212e-08
6.82466e-08
-4.0327e-08
-2.79687e-08
-7.59039e-07
-1.7114e-06
-8.95865e-07
-4.54467e-08
-6.05721e-09
-1.93734e-08
2.54149e-08
-3.64062e-08
-4.07883e-09
2.17272e-05
-3.02219e-07
2.63547e-05
-1.14904e-06
1.423e-06
-2.7769e-08
8.82381e-07
-1.74858e-07
3.13446e-07
-8.34465e-05
0.000109412
-2.59661e-05
-5.829e-08
1.63292e-08
4.18959e-08
-6.14388e-09
1.14749e-08
-5.32241e-09
3.75312e-08
5.84184e-08
-1.70047e-05
2.10646e-06
-2.34668e-08
-1.67998e-08
4.03251e-08
7.56477e-08
4.66484e-07
-5.42988e-07
1.11432e-07
2.04292e-06
2.85844e-05
6.5933e-06
2.21584e-08
-2.05961e-08
-1.5447e-09
-1.21797e-06
1.28139e-06
-4.69454e-05
3.35355e-06
1.3132e-06
-8.07009e-07
-6.70729e-07
3.46372e-07
3.24232e-07
-1.4579e-07
7.35181e-08
7.2383e-08
-8.13006e-07
-3.65987e-05
2.93929e-05
7.20579e-06
-4.68666e-06
-6.46012e-06
2.52098e-07
4.42283e-07
-6.94915e-07
2.10289e-08
3.14789e-08
2.58896e-05
-9.44241e-06
-1.64473e-05
3.64838e-07
1.77715e-07
-5.42519e-07
-3.69239e-08
-3.69748e-08
7.40196e-08
1.01685e-05
-3.82527e-06
-4.15387e-05
5.11284e-06
3.64261e-05
9.24103e-09
1.70711e-08
-2.65052e-08
-2.73546e-06
7.84382e-07
-7.02799e-08
-4.85034e-08
2.30322e-08
2.54466e-08
2.55876e-06
-8.60053e-05
2.56931e-06
-2.27862e-07
-4.34301e-07
-3.28073e-06
3.71718e-06
2.48865e-08
-1.51103e-08
-9.77208e-09