/*--------------------------------*- C++ -*----------------------------------*\
| =========                 |                                                 |
| \\      /  F ield         | OpenFOAM: The Open Source CFD Toolbox           |
|  \\    /   O peration     | Version:  v2012                                 |
|   \\  /    A nd           | Website:  www.openfoam.com                      |
|    \\/     M anipulation  |                                                 |
\*---------------------------------------------------------------------------*/
FoamFile
{
    version     2.0;
    format      ascii;
    class       volVectorField;
    location    "400";
    object      ddtCorrDdt0(U);
}
// * * * * * * * * * * * * * * * * * * * * * * * * * * * * * * * * * * * * * //

dimensions      [0 1 -2 0 0 0 0];


internalField   nonuniform List<vector> 
14804
(
(1.51618e-07 4.06467e-08 5.42454e-25)
(9.37109e-08 -2.04076e-09 -2.52384e-24)
(3.33557e-06 -1.01027e-05 2.11683e-25)
(8.19765e-08 -1.57475e-08 2.24059e-24)
(4.29198e-07 -1.76216e-07 6.6133e-24)
(1.10528e-07 -6.34121e-07 0)
(3.88071e-06 7.47934e-07 0)
(4.36449e-07 -4.19302e-07 0)
(-2.57514e-06 7.69966e-07 2.58255e-24)
(-1.15608e-06 1.48695e-06 1.9533e-26)
(3.83245e-05 0.000156841 -2.42712e-24)
(5.18154e-05 -0.000194232 -1.12814e-22)
(8.72628e-05 0.000509505 3.43203e-24)
(-0.000156946 -5.5471e-05 -1.82351e-24)
(5.27279e-06 -1.17438e-06 5.65677e-23)
(-4.95338e-08 1.63236e-07 7.30962e-25)
(-3.8997e-06 2.83431e-07 5.39009e-26)
(-0.000136671 -5.15187e-05 7.92918e-24)
(-2.14467e-08 2.22464e-07 0)
(1.43054e-07 3.94485e-08 -7.06735e-26)
(1.38748e-07 -3.25308e-08 5.43452e-24)
(4.81041e-07 -1.77324e-07 -2.45474e-23)
(1.04219e-05 1.6986e-05 -5.9735e-24)
(-1.8507e-07 1.27977e-07 1.24929e-23)
(0.000124693 0.00029374 -3.14512e-24)
(4.65492e-06 6.08115e-07 4.80747e-23)
(3.76719e-06 5.4945e-07 0)
(9.50553e-08 -8.83907e-08 -5.44624e-25)
(5.13673e-06 -7.4026e-07 -6.00702e-23)
(1.56836e-05 -2.62236e-05 0)
(0.000136875 -7.69686e-05 1.12303e-22)
(-4.15051e-06 1.08172e-07 4.81002e-24)
(4.01579e-07 -1.706e-07 1.86636e-23)
(4.63174e-07 -4.90552e-07 0)
(-2.38371e-06 4.77763e-06 6.34175e-24)
(7.59275e-08 -2.39475e-08 0)
(6.37834e-08 -5.15714e-10 6.16593e-25)
(-1.77514e-07 7.20462e-08 -1.22292e-23)
(2.10278e-05 1.26807e-05 -1.14033e-23)
(9.44581e-08 7.90169e-08 2.87441e-25)
(-2.2913e-06 9.53959e-06 0)
(2.88718e-06 7.72049e-06 -2.71912e-23)
(6.07535e-06 -9.59875e-07 0)
(1.5328e-07 -1.38413e-07 0)
(-0.000162845 -3.41335e-05 0)
(-0.00012808 -0.000124869 0)
(-6.82156e-06 4.45026e-06 0)
(8.24385e-08 -1.42216e-08 -1.17499e-24)
(5.26776e-06 1.61931e-07 -4.35742e-23)
(1.42469e-07 -2.49443e-08 -4.94569e-24)
(2.66125e-08 -2.02632e-08 4.57599e-26)
(8.89188e-08 -9.18535e-09 -1.73121e-24)
(-3.17976e-07 -1.93207e-07 -3.23475e-24)
(1.55046e-05 1.80642e-05 0)
(3.88299e-07 -1.38174e-07 -4.25339e-23)
(9.29105e-08 -8.46604e-08 4.87116e-25)
(4.56239e-06 4.70718e-07 0)
(-4.01291e-06 3.98565e-07 7.57847e-24)
(0.000301371 0.00027944 6.76855e-25)
(0.000118408 0.00056108 -2.34427e-24)
(-4.4552e-06 2.64292e-07 0)
(-1.91307e-06 5.70728e-06 -1.41332e-23)
(1.33366e-07 7.68564e-08 -5.24055e-25)
(9.26124e-08 -1.21157e-09 2.25535e-24)
(2.53814e-07 -1.92763e-07 -7.92922e-24)
(3.734e-05 -0.000176055 1.31199e-22)
(-6.39553e-05 0.000157042 -2.30598e-23)
(1.80142e-06 1.42086e-06 5.11936e-24)
(-1.10995e-06 1.87367e-06 -1.4918e-26)
(-3.74468e-07 -3.18113e-07 5.39627e-24)
(1.04354e-07 5.5923e-07 1.08979e-23)
(1.34192e-06 1.05048e-06 4.97417e-24)
(2.25606e-07 -1.17511e-07 4.05572e-24)
(3.63573e-07 -9.88423e-07 1.91217e-23)
(3.94673e-06 -1.19028e-05 -1.29332e-23)
(7.67309e-08 -5.11994e-08 4.60925e-25)
(5.30237e-08 9.36892e-08 0)
(3.97927e-06 -3.02697e-07 -9.26431e-24)
(-7.08455e-08 8.33404e-08 0)
(7.18531e-06 -4.30044e-05 1.20957e-23)
(1.14923e-05 -3.72232e-05 0)
(-4.67599e-05 0.000130401 9.36325e-25)
(8.89925e-08 -1.53304e-07 -2.35095e-23)
(2.01086e-06 -6.9569e-06 0)
(6.52561e-08 -4.67452e-09 0)
(2.54497e-08 6.51071e-09 -4.04799e-25)
(8.73979e-08 -4.47953e-10 0)
(7.71394e-08 1.99446e-08 0)
(6.61935e-07 -1.08355e-07 1.56114e-23)
(6.20971e-07 -1.47431e-07 1.57932e-23)
(-1.34214e-05 -4.79396e-05 -4.07578e-23)
(7.72424e-08 2.34095e-08 0)
(9.55096e-08 6.55055e-08 -9.96321e-26)
(2.86247e-08 -1.82135e-08 1.04849e-24)
(-1.64741e-06 2.79558e-06 7.72136e-26)
(1.86327e-05 -3.00174e-05 -6.7596e-23)
(8.66055e-08 2.65808e-09 -5.80412e-25)
(-0.000152488 -2.63036e-05 2.33849e-24)
(-6.77148e-07 -8.06491e-09 -8.90337e-24)
(-7.08566e-05 0.000108154 0)
(-0.00015356 -0.00010696 0)
(1.62635e-06 5.2135e-06 -4.71011e-25)
(-5.3626e-06 7.18077e-07 5.87964e-23)
(2.27837e-07 -2.00998e-07 1.03635e-23)
(-2.92422e-06 1.07591e-07 -2.6829e-24)
(8.03888e-05 0.00032502 -3.30621e-24)
(5.88929e-07 6.50473e-07 -3.17764e-24)
(8.94793e-08 -7.28328e-09 3.44354e-25)
(-6.55487e-07 1.36348e-07 1.79862e-23)
(3.86546e-08 -5.15254e-05 1.1062e-23)
(8.89437e-08 -6.52508e-09 0)
(5.32509e-07 8.14788e-07 5.2174e-24)
(0.000260881 -0.000216965 1.73352e-22)
(3.16887e-07 -6.17303e-07 -2.53155e-23)
(4.05024e-07 7.51137e-07 8.711e-24)
(4.04481e-06 -9.41692e-07 -1.06188e-22)
(-8.49041e-06 -5.80551e-06 4.32858e-23)
(6.51493e-06 -4.35703e-07 0)
(-1.05053e-07 1.55756e-07 8.50703e-24)
(3.86658e-08 -5.17662e-08 1.73013e-24)
(4.2778e-06 -1.16171e-05 0)
(-2.65845e-06 -8.80625e-08 0)
(3.23262e-08 -1.89819e-08 -6.53367e-25)
(1.16928e-08 -8.1687e-08 8.91895e-24)
(-8.69455e-08 1.86728e-07 -1.45089e-23)
(1.99577e-07 -6.31486e-07 3.38618e-23)
(8.73749e-08 -1.61615e-10 -3.71479e-24)
(8.58631e-08 3.39389e-09 0)
(4.81548e-07 -4.24523e-07 0)
(1.40864e-05 -2.69735e-05 -1.651e-23)
(7.15633e-08 -1.15775e-08 -3.42381e-24)
(2.00129e-05 -2.95229e-05 2.58618e-25)
(-2.00936e-06 5.04406e-07 2.45008e-24)
(9.07348e-05 0.000139738 1.11619e-22)
(-2.35007e-07 -2.16855e-07 4.41825e-24)
(2.39654e-05 -5.57243e-05 -5.10543e-25)
(-3.35509e-05 -3.41135e-06 -2.17184e-22)
(-4.64261e-06 1.03767e-05 0)
(3.83763e-06 -1.06632e-05 0)
(-0.000129664 -6.12991e-05 3.33202e-23)
(5.94108e-08 -1.54384e-09 0)
(-1.42905e-06 -1.54929e-07 0)
(-4.25297e-06 7.8943e-06 0)
(1.72364e-07 -1.63937e-07 0)
(-2.12935e-05 2.24681e-05 8.05004e-23)
(-9.26733e-07 5.14256e-07 2.65339e-24)
(-7.01641e-06 -5.3769e-06 -3.50372e-23)
(5.15095e-07 -5.296e-06 6.1866e-24)
(5.37098e-06 -1.88514e-06 0)
(6.45276e-09 1.07697e-06 -4.02319e-24)
(-4.20824e-05 0.000262004 1.94579e-23)
(7.10406e-08 -1.05631e-08 3.11607e-24)
(-5.77439e-06 8.05675e-07 0)
(-0.000239125 0.000158236 2.77566e-22)
(1.63214e-07 3.47056e-08 -8.18269e-25)
(6.75412e-08 -1.03266e-08 1.61296e-24)
(0.000135529 0.000208642 -3.72627e-25)
(2.79531e-07 -1.08998e-07 -1.154e-23)
(2.52702e-08 -5.85908e-08 0)
(5.34219e-06 -2.05431e-06 0)
(4.69478e-08 -3.92259e-08 4.78407e-26)
(-5.44325e-08 -4.52716e-07 2.38612e-24)
(7.90947e-08 3.23481e-09 -2.41404e-24)
(-1.87274e-06 -3.41148e-08 -4.3092e-24)
(5.73892e-07 2.29184e-07 3.96803e-23)
(-0.000123841 0.000304574 6.69835e-24)
(6.72955e-08 3.09448e-09 -1.43874e-24)
(-1.102e-06 3.15055e-06 1.20371e-26)
(-4.73873e-05 7.96836e-05 -6.6999e-24)
(2.89561e-07 -1.12527e-07 1.92878e-23)
(5.1588e-08 -4.98022e-08 1.73587e-28)
(2.04278e-07 -1.1153e-07 -2.24743e-24)
(1.66168e-05 -1.21927e-05 -5.53966e-23)
(-1.08911e-06 4.83172e-07 -5.31336e-24)
(4.04595e-05 3.61214e-05 0)
(5.02749e-06 1.07113e-06 7.03161e-23)
(7.55669e-06 -7.01015e-06 5.33462e-23)
(4.85874e-05 -0.000149708 1.37421e-22)
(1.24326e-05 -1.16686e-05 -4.67724e-23)
(-6.31937e-05 9.69776e-05 2.31429e-25)
(-3.17476e-07 -2.49083e-08 -3.55118e-24)
(5.37968e-06 5.80747e-07 4.17113e-23)
(3.3937e-08 -1.5398e-08 -1.30401e-27)
(0.000285536 0.000397775 3.85246e-24)
(-5.96442e-08 -5.21077e-08 4.02074e-24)
(2.98769e-06 -6.37566e-06 6.08822e-23)
(9.72503e-06 -4.92619e-05 6.39306e-23)
(1.74885e-06 2.39134e-06 6.83647e-24)
(7.09611e-05 0.000163455 -5.13925e-23)
(6.86401e-08 1.6561e-09 -1.53018e-24)
(2.41556e-08 3.8697e-07 -2.37717e-24)
(5.34749e-07 8.73939e-06 7.85254e-24)
(0.000250471 3.61531e-05 -1.2532e-22)
(0.000191439 -0.000288552 3.92375e-24)
(-8.79648e-05 -3.0704e-05 3.12706e-23)
(-5.52372e-05 8.25419e-05 -2.19774e-23)
(-6.06751e-05 1.33221e-05 8.68106e-26)
(2.14646e-06 2.15128e-06 -7.98687e-24)
(3.03956e-08 -1.55278e-08 0)
(2.46432e-05 -9.6126e-06 8.14362e-23)
(3.88324e-08 -2.53082e-08 0)
(-7.44169e-08 2.17312e-07 0)
(-1.16982e-07 -3.92523e-07 6.7463e-25)
(-4.57468e-07 9.28791e-06 0)
(3.22888e-08 -7.47146e-07 0)
(-1.51612e-06 -3.60788e-06 1.76338e-23)
(0.000149195 -6.12072e-05 -7.96344e-23)
(0.000152321 8.13703e-05 1.8928e-24)
(2.41836e-07 -9.93953e-07 0)
(4.81486e-08 -5.36804e-08 0)
(8.52686e-08 7.88235e-10 0)
(2.66305e-06 -6.57654e-06 -3.08846e-23)
(-1.15181e-06 2.24896e-07 0)
(8.28186e-08 -2.11715e-08 -1.24839e-24)
(2.27555e-05 -1.4288e-05 -3.2075e-23)
(4.05264e-08 -1.1348e-08 0)
(5.20972e-05 0.000679646 4.97558e-25)
(2.19579e-08 -5.57213e-08 5.42513e-24)
(6.06755e-06 -6.74405e-06 6.79248e-23)
(0.000163265 0.000155808 -2.97172e-24)
(-4.38284e-06 6.95126e-06 -4.15879e-23)
(-5.52729e-05 9.71805e-05 5.19643e-23)
(7.81391e-08 7.21239e-09 1.02564e-24)
(-8.69734e-05 5.85478e-05 6.55533e-24)
(-7.09925e-06 3.26189e-06 -2.68583e-23)
(-1.62573e-06 -3.1916e-06 2.11047e-23)
(5.25105e-06 8.93574e-07 -6.82776e-23)
(4.64071e-08 -2.40942e-08 1.55608e-26)
(1.47444e-05 0.000353454 -1.85434e-23)
(-4.35467e-06 2.67041e-06 0)
(3.90077e-06 -6.32391e-07 0)
(-9.47213e-05 -8.51364e-06 6.40967e-23)
(3.31305e-08 -5.23355e-08 -1.3594e-25)
(5.08437e-08 -4.57127e-08 2.41548e-25)
(-0.00014875 -2.30884e-05 1.75697e-23)
(1.77936e-08 -3.0589e-08 1.37189e-25)
(5.32028e-06 6.72037e-06 0)
(-5.80539e-05 3.6817e-06 6.27384e-23)
(8.95194e-08 -2.93345e-09 0)
(-5.48503e-05 5.40324e-05 5.82088e-25)
(2.43541e-05 -5.80395e-05 -7.47644e-23)
(5.04152e-06 1.33599e-06 9.38552e-24)
(-6.41491e-06 9.39569e-05 0)
(-6.96802e-06 1.39943e-06 4.0838e-24)
(7.03193e-08 1.5679e-08 1.21183e-24)
(9.21561e-08 -7.89788e-10 -1.30728e-24)
(3.81835e-06 3.41719e-06 -2.96168e-23)
(-4.92446e-06 3.01002e-07 -5.47369e-23)
(5.25736e-07 -2.954e-07 1.92862e-23)
(2.15949e-07 -1.03297e-07 -4.74904e-24)
(4.86808e-06 5.21584e-06 2.86535e-26)
(-1.10988e-06 5.96004e-06 6.40586e-23)
(-2.7618e-07 -7.82183e-08 0)
(1.81263e-06 -2.19152e-06 1.35595e-25)
(8.11542e-08 2.82672e-09 1.65639e-24)
(0.000112419 6.84101e-06 -2.74465e-24)
(1.14008e-06 -7.00959e-06 0)
(3.66729e-06 8.40167e-06 9.0425e-25)
(2.46767e-05 -5.90066e-06 -3.16777e-23)
(-6.68187e-06 1.33895e-06 0)
(2.39488e-06 -2.27554e-06 0)
(0.000145945 0.000281866 -3.52725e-24)
(7.99252e-08 -4.21741e-10 -8.32941e-25)
(-1.26725e-05 -4.2389e-05 -2.60684e-24)
(-3.34949e-08 3.82385e-07 3.71929e-24)
(5.35658e-06 3.92911e-09 -3.3364e-23)
(4.56608e-08 -2.53529e-08 8.19619e-26)
(0.000112746 3.69483e-05 2.39071e-24)
(-2.18717e-06 -3.30163e-05 0)
(1.17738e-07 7.50389e-08 1.39849e-26)
(3.50034e-08 -4.38118e-09 4.29995e-24)
(9.62984e-06 -6.83351e-07 -2.27831e-23)
(-1.33191e-06 6.502e-06 0)
(1.6015e-05 -5.69402e-05 9.09673e-23)
(2.72945e-07 1.12206e-06 0)
(-0.000149552 -1.14932e-05 -3.62825e-23)
(8.58997e-08 1.65755e-10 3.60805e-24)
(6.0664e-07 -2.66364e-06 0)
(1.06077e-07 8.2484e-08 1.82373e-25)
(-5.77624e-05 8.95069e-05 -4.69343e-23)
(5.05069e-08 -3.18271e-08 -8.90559e-25)
(2.18803e-06 8.84831e-07 0)
(3.1939e-08 -4.2972e-08 2.68461e-25)
(2.61409e-06 2.73203e-06 0)
(9.11295e-08 1.86665e-08 1.47071e-24)
(-3.1284e-06 2.5272e-06 5.36867e-23)
(-1.51535e-07 1.70791e-07 -1.42555e-23)
(1.04386e-06 9.45225e-07 -4.51254e-23)
(3.23101e-08 -3.87117e-08 -2.6763e-25)
(-2.28799e-06 2.58993e-06 4.63573e-23)
(5.09532e-06 5.93577e-08 7.57713e-23)
(8.31547e-07 -2.76876e-06 -3.32081e-23)
(-0.000102193 4.98659e-05 8.19231e-24)
(-1.44184e-06 6.04911e-06 3.05332e-23)
(-2.01977e-07 2.67585e-08 -1.69858e-23)
(3.76725e-07 8.52066e-07 -8.82911e-24)
(2.96888e-06 8.83862e-06 -2.62722e-23)
(3.09518e-08 -5.10519e-08 1.08098e-24)
(3.94935e-07 -1.64606e-07 -6.96519e-24)
(6.84484e-08 1.90803e-09 -1.68856e-24)
(6.52243e-07 -1.14281e-06 0)
(8.44461e-07 8.40418e-06 6.03851e-24)
(4.23105e-08 -3.56107e-08 6.14514e-27)
(4.26483e-06 -1.55742e-07 -3.23108e-23)
(9.19254e-08 -5.24132e-09 -5.13854e-25)
(0.000119624 8.69521e-05 5.03882e-24)
(-6.84649e-05 -0.000238245 1.86884e-23)
(4.7021e-08 -4.22126e-08 1.92514e-24)
(6.62915e-05 2.56827e-05 0)
(7.53218e-06 -2.58035e-05 -3.32974e-25)
(8.72938e-08 -4.4571e-09 3.06856e-24)
(1.96695e-08 -4.70822e-08 -8.52719e-24)
(2.82042e-06 4.2211e-06 -3.23132e-23)
(7.65932e-08 -1.69048e-08 -1.16972e-24)
(-7.00183e-06 3.38154e-06 -1.39934e-23)
(5.234e-08 9.01733e-09 4.13037e-25)
(4.94505e-06 -2.98909e-05 1.10607e-23)
(7.0727e-08 -1.35657e-09 -1.45865e-24)
(1.30722e-05 7.22571e-06 -5.5067e-25)
(7.01683e-08 -9.75398e-10 2.48602e-24)
(8.96013e-07 -8.44865e-07 0)
(6.01311e-08 2.23998e-07 4.75433e-24)
(5.6427e-06 6.83601e-06 0)
(0.000158394 5.72766e-05 0)
(3.46294e-08 -8.45716e-09 -2.18249e-24)
(1.39046e-07 -1.57297e-09 2.25734e-24)
(-3.4373e-06 7.47319e-06 6.86767e-23)
(3.71796e-06 -2.20201e-07 6.24444e-23)
(9.82369e-07 8.6829e-06 0)
(9.3499e-07 9.42876e-08 1.41761e-23)
(-3.52748e-05 6.25001e-06 1.44606e-23)
(1.63365e-07 -5.59408e-08 0)
(2.68045e-08 -4.61207e-08 0)
(1.11634e-06 6.6979e-07 0)
(-7.42053e-07 -7.46824e-07 0)
(-2.71147e-06 2.18509e-06 -5.71445e-23)
(1.45065e-07 1.3016e-06 2.6745e-24)
(-4.83984e-07 4.38192e-07 0)
(3.11527e-06 -7.24394e-06 -1.28152e-22)
(-2.36823e-06 2.28664e-06 -4.16587e-23)
(2.59371e-06 2.20185e-06 1.44961e-23)
(-1.94786e-06 -8.62928e-06 -1.97181e-23)
(8.66683e-05 -7.42786e-05 -1.89658e-22)
(3.52576e-06 -1.49122e-06 9.53196e-23)
(-9.18262e-07 9.69342e-08 5.55369e-24)
(4.17585e-08 8.21816e-08 0)
(3.76281e-05 -1.44395e-05 2.20678e-23)
(0.000238678 -7.75301e-07 0)
(-1.27499e-07 2.22918e-07 -6.91345e-25)
(-2.80683e-07 -2.62275e-08 1.23593e-23)
(4.15657e-07 -8.93358e-07 -3.14472e-23)
(1.20064e-07 -1.28176e-07 0)
(1.01073e-07 -9.25984e-09 0)
(9.85928e-05 0.000104778 -1.98214e-24)
(-6.25139e-10 6.58731e-08 -2.00484e-24)
(6.64148e-07 -4.55368e-07 -4.14165e-24)
(3.87927e-05 -8.93811e-06 -1.90715e-25)
(6.87381e-08 -4.04089e-10 -7.91883e-25)
(0.000164269 7.6646e-06 0)
(4.43943e-08 -9.06727e-08 0)
(-2.1661e-05 -1.71829e-05 -3.91677e-23)
(8.42944e-08 7.18637e-09 -3.67854e-24)
(-5.15186e-06 3.84892e-06 0)
(9.57044e-06 -1.44078e-05 0)
(-6.741e-07 5.88199e-07 3.10362e-25)
(3.58009e-07 9.56761e-06 1.42265e-23)
(4.37607e-08 -9.49687e-08 1.65776e-24)
(-1.07863e-05 0.00020768 5.69396e-23)
(1.04245e-05 -1.53173e-05 0)
(-2.0499e-05 -1.28382e-05 5.0717e-23)
(7.24316e-07 -1.99171e-07 -1.24364e-24)
(4.91219e-06 -2.77863e-06 -4.80946e-23)
(1.97407e-07 1.37994e-07 0)
(0.000269487 9.83246e-05 1.96767e-23)
(1.95946e-05 0.000122426 1.04834e-24)
(2.64272e-06 -5.94495e-06 1.05088e-22)
(-1.78994e-06 -4.75154e-05 -4.54412e-24)
(4.5583e-06 0.000201703 4.01484e-24)
(5.54984e-08 -4.62288e-09 4.35683e-26)
(3.1368e-06 -3.61319e-06 -8.78318e-23)
(8.99617e-08 -2.60121e-09 0)
(-4.95791e-05 0.000175222 -3.82205e-25)
(2.20675e-05 -3.14981e-05 1.3133e-22)
(3.13131e-07 -9.51736e-08 1.5965e-23)
(1.05546e-07 1.91543e-07 2.10047e-24)
(7.83258e-08 -7.55994e-09 3.05189e-25)
(1.06471e-07 -1.1069e-08 0)
(-2.05433e-09 4.7829e-08 8.88153e-25)
(-7.17503e-06 3.08917e-06 0)
(8.34697e-08 1.93038e-09 -1.06151e-24)
(1.79691e-06 1.31427e-06 9.93713e-24)
(-1.24582e-05 -7.96416e-06 0)
(4.25983e-07 -1.86489e-07 0)
(6.972e-08 -2.68196e-10 3.00623e-24)
(4.94659e-08 -4.93917e-08 0)
(-6.45384e-06 1.63984e-06 0)
(-3.11114e-06 3.28172e-06 1.11745e-23)
(4.63108e-07 -1.02339e-07 1.24416e-23)
(2.89086e-05 4.07237e-05 2.35234e-24)
(1.68201e-06 3.29282e-06 2.91018e-24)
(5.07414e-07 -1.69587e-07 0)
(4.70412e-06 6.27245e-05 0)
(1.10662e-06 2.50295e-06 -1.33913e-23)
(2.08501e-06 9.10685e-06 6.42301e-25)
(-7.87133e-06 -2.76948e-06 0)
(4.86726e-07 -2.91461e-07 -1.83847e-23)
(6.51001e-06 -1.97574e-06 0)
(6.76706e-08 2.55341e-09 3.4526e-24)
(5.80595e-06 3.99699e-05 0)
(1.45546e-07 -3.4314e-09 4.65254e-24)
(8.53647e-08 6.28161e-10 0)
(6.7592e-07 9.50654e-07 -3.71534e-23)
(-4.61479e-06 1.74396e-07 6.35116e-23)
(4.9456e-06 -2.4227e-06 5.59745e-24)
(-8.47504e-05 -0.000243827 -9.92948e-24)
(1.56995e-07 -6.09603e-08 7.13391e-25)
(-3.11792e-05 3.96734e-05 0)
(4.48512e-08 -3.3025e-09 1.94369e-24)
(1.72686e-07 5.73282e-07 1.18744e-23)
(5.2762e-07 -1.27833e-07 4.57235e-25)
(8.72622e-05 0.000147229 5.56701e-23)
(-2.54461e-07 3.11563e-08 1.30268e-23)
(6.32105e-06 -2.81167e-06 0)
(6.75686e-06 7.75902e-05 -2.56976e-23)
(-1.44871e-06 4.41589e-08 0)
(1.73051e-08 -4.20096e-08 4.37585e-24)
(-1.39733e-06 -7.93108e-06 1.63533e-23)
(7.21421e-06 -7.03245e-05 1.85745e-22)
(-8.51985e-08 9.02632e-07 0)
(5.48008e-08 2.69851e-07 -4.45462e-25)
(-1.39775e-07 1.73953e-07 3.58793e-24)
(4.47142e-08 -8.65556e-08 0)
(0.000149766 0.000235865 0)
(1.0829e-05 -2.32545e-05 -5.63734e-23)
(1.72357e-07 6.31219e-08 3.54126e-24)
(1.18068e-05 6.832e-05 1.02491e-22)
(1.07006e-06 -3.29864e-06 -5.36031e-23)
(6.48345e-06 -6.46456e-05 -1.4392e-22)
(2.93156e-08 -4.10204e-08 -1.2282e-23)
(-4.6231e-06 5.87093e-06 -5.29894e-23)
(2.49352e-06 2.03258e-06 0)
(4.07157e-08 6.25954e-08 0)
(7.14132e-06 -2.82583e-06 0)
(8.32621e-08 -1.03636e-08 4.27131e-25)
(1.8979e-06 3.26657e-07 -2.58583e-23)
(5.01477e-06 8.58589e-07 0)
(3.12669e-05 0.000216714 -2.36868e-23)
(-1.7365e-06 -5.56109e-08 0)
(3.80486e-08 -2.60093e-08 0)
(0.000153552 9.24561e-06 -5.42775e-23)
(-7.78612e-06 -3.7985e-06 5.56378e-23)
(-4.96474e-05 -0.00018321 2.78943e-25)
(-1.2162e-06 6.58516e-06 -7.06929e-23)
(-4.23715e-06 3.43822e-06 -1.51864e-25)
(5.65691e-06 3.52866e-07 0)
(9.81693e-08 -2.32657e-09 -7.33167e-25)
(0.000154839 7.07907e-05 5.08141e-23)
(8.87529e-08 2.07668e-09 2.88702e-24)
(7.45707e-06 -8.24606e-07 1.93492e-23)
(-4.94203e-06 4.717e-06 4.99562e-23)
(2.64703e-07 9.02245e-07 1.60942e-23)
(1.01125e-06 5.86034e-08 0)
(-1.2103e-06 1.7052e-06 2.29062e-25)
(-8.58134e-06 5.84281e-05 0)
(3.71978e-08 4.75275e-09 -2.68165e-24)
(-0.000171921 -0.000368584 -6.98465e-23)
(1.98314e-06 2.30298e-07 0)
(-1.03773e-05 -7.98807e-06 0)
(-4.55546e-07 -1.18577e-05 1.0591e-23)
(1.77121e-08 8.89261e-08 -7.43369e-25)
(3.86749e-08 7.15042e-09 2.69968e-24)
(8.31938e-08 -1.36702e-08 -1.12187e-24)
(-1.57016e-06 2.61097e-06 0)
(0.000238974 -0.000345334 0)
(9.82528e-05 -6.66372e-05 1.16183e-22)
(4.41405e-07 1.09313e-06 4.41646e-23)
(3.43663e-08 -6.50529e-08 -2.75748e-24)
(-7.60699e-06 1.05487e-06 0)
(4.53827e-07 -3.55075e-08 -2.58485e-24)
(-2.67121e-06 -6.3987e-07 0)
(-1.0682e-07 -3.15682e-07 4.76443e-24)
(2.05426e-05 -3.12206e-05 -7.55043e-23)
(2.33243e-05 -1.52658e-05 7.53433e-23)
(-8.02973e-06 3.76624e-07 3.44169e-23)
(3.10738e-06 -8.74788e-06 7.90848e-24)
(-9.27693e-05 0.000203499 -7.03001e-25)
(-5.23088e-05 0.000269008 0)
(1.37302e-07 -8.3849e-08 2.76032e-24)
(8.16471e-06 -1.28765e-05 4.36621e-23)
(1.53816e-06 2.27899e-06 -1.97296e-24)
(-4.39084e-06 5.76105e-06 5.64366e-23)
(-3.72917e-06 2.40701e-06 2.0636e-23)
(4.2358e-06 -8.11143e-06 5.17469e-23)
(0.000282813 -4.23024e-05 5.27219e-24)
(-2.72012e-06 5.17596e-06 0)
(-3.81317e-09 2.85215e-08 -9.88275e-26)
(-3.13796e-08 -6.01944e-08 -1.434e-24)
(6.31217e-05 0.000224541 -6.62143e-24)
(-1.74549e-08 -4.97857e-08 -2.70997e-24)
(3.70596e-07 -1.65162e-07 2.82246e-23)
(4.57109e-07 -7.9817e-08 2.38747e-23)
(-2.58586e-07 -1.21095e-07 0)
(4.06672e-07 1.31731e-07 0)
(-6.41942e-06 1.42532e-06 0)
(2.49092e-07 -5.63694e-07 0)
(-1.99385e-05 3.95019e-05 -9.71401e-24)
(3.53277e-06 -8.59663e-06 -6.11098e-23)
(-1.32821e-06 1.50998e-06 0)
(4.03926e-08 -1.10501e-07 8.04491e-25)
(-1.83123e-07 8.14032e-06 1.56953e-23)
(8.27905e-07 -3.07704e-06 2.98268e-23)
(-3.8085e-06 6.36855e-06 5.06143e-23)
(0.000227533 4.88879e-05 -3.66994e-24)
(-2.50911e-07 -7.29077e-08 -1.17032e-23)
(5.98829e-08 1.1911e-06 -8.1499e-24)
(-2.46296e-05 -0.000215915 0)
(5.69413e-06 -1.333e-06 0)
(-4.63515e-06 5.28753e-06 -1.52478e-23)
(3.57376e-08 -3.39921e-09 -4.95302e-24)
(5.11263e-06 -1.8342e-05 1.57705e-23)
(-3.14888e-08 3.17401e-07 -1.14426e-24)
(1.86924e-06 3.421e-06 -1.45243e-23)
(1.21648e-05 -2.2734e-05 0)
(-7.01936e-06 7.49133e-06 0)
(3.14786e-06 2.07283e-06 -6.35464e-23)
(5.83199e-06 -8.49536e-07 -3.66977e-23)
(-5.95109e-06 -5.61971e-06 -4.37409e-23)
(-3.08343e-06 -4.54915e-05 0)
(9.54521e-08 4.58048e-06 5.09844e-23)
(5.4485e-06 1.01652e-05 0)
(-1.92854e-05 -0.000113662 0)
(7.09884e-08 -8.9043e-09 -1.5891e-24)
(5.57024e-06 -1.39074e-06 0)
(-3.8843e-05 8.14782e-05 0)
(0.000306246 6.36438e-06 1.42544e-24)
(9.82693e-08 -2.14903e-09 7.94544e-25)
(-9.47207e-06 -9.31582e-05 -7.19621e-24)
(-3.19519e-07 -1.94779e-07 0)
(4.98667e-06 1.43618e-06 -4.56135e-23)
(-6.7527e-06 -3.58117e-05 0)
(1.95686e-07 1.02966e-07 0)
(4.64741e-05 -0.000450102 1.00401e-22)
(1.90405e-08 -1.38415e-08 2.285e-25)
(-1.58556e-05 -1.23077e-05 -2.19737e-23)
(3.0431e-07 5.60358e-06 0)
(4.8595e-07 -4.8394e-07 1.00929e-23)
(8.61866e-06 8.10712e-06 -1.38088e-24)
(7.90258e-08 -3.27223e-08 5.49547e-25)
(-5.20117e-07 -1.28434e-06 2.14898e-26)
(8.61811e-08 -1.35248e-09 -3.51847e-24)
(8.3066e-08 -9.49004e-10 0)
(8.59447e-08 8.11016e-10 3.08204e-24)
(3.17908e-08 -1.28182e-08 3.85399e-24)
(8.70003e-08 1.02307e-08 0)
(-1.84785e-06 2.19627e-06 2.02331e-23)
(-7.97401e-09 3.68924e-08 0)
(-2.44701e-05 9.78415e-05 0)
(-0.000112954 -0.000180011 0)
(7.02949e-08 1.22128e-07 -4.45209e-24)
(-5.99016e-06 1.82126e-06 0)
(8.73001e-08 7.28871e-09 2.02505e-25)
(-3.55832e-06 3.6499e-07 -3.52832e-23)
(6.08847e-08 -2.25922e-08 -7.85307e-25)
(-4.86896e-05 2.06542e-05 -2.17067e-23)
(4.6446e-08 -2.87605e-09 0)
(5.82798e-06 -7.85647e-06 -1.02482e-23)
(-8.70996e-08 -7.36687e-08 2.9252e-24)
(2.38281e-05 -9.33695e-06 -5.59203e-23)
(6.23289e-06 -1.12076e-05 -3.11732e-23)
(-1.8803e-07 1.54784e-07 -2.98246e-24)
(4.59158e-07 -1.69723e-07 3.06152e-25)
(-6.20181e-06 -8.5748e-06 1.15759e-22)
(4.46391e-06 5.55367e-06 7.94947e-24)
(-1.18499e-05 -1.96981e-05 1.22044e-22)
(1.89146e-05 1.34479e-05 0)
(2.3545e-07 -6.74988e-07 -3.33143e-23)
(0.000104236 0.000112187 4.87072e-23)
(8.98424e-06 -1.38761e-05 0)
(-3.1141e-05 4.47451e-05 6.39029e-24)
(7.74065e-08 -8.88232e-09 -6.64937e-25)
(1.13992e-05 -1.97775e-05 -1.04256e-22)
(1.70746e-07 -2.35335e-08 -7.79127e-25)
(-2.86693e-06 -3.6524e-07 0)
(7.51018e-05 0.000194627 0)
(-3.31133e-06 2.20096e-06 -6.14831e-24)
(-1.68848e-06 2.4336e-06 0)
(5.20716e-08 -1.06113e-08 -4.45774e-24)
(3.62464e-08 -4.96625e-09 0)
(7.91766e-08 7.39782e-09 2.02662e-24)
(4.48665e-08 -5.98313e-09 0)
(-4.55897e-05 4.99196e-05 0)
(1.6361e-07 6.79424e-09 -3.5049e-24)
(-7.33179e-05 7.39259e-05 2.14027e-23)
(0.000104706 7.26086e-05 -2.04119e-23)
(4.95856e-05 0.000282888 2.53459e-23)
(4.37998e-07 4.26347e-06 5.37007e-23)
(4.08451e-06 3.79789e-07 0)
(3.07783e-07 4.94382e-07 0)
(-1.6634e-06 2.20622e-06 0)
(-4.55866e-07 -1.59791e-06 0)
(3.8415e-05 -7.16635e-06 0)
(4.01729e-06 7.79511e-06 0)
(7.50196e-08 -3.5392e-08 -4.8392e-25)
(-2.9647e-05 7.71771e-06 8.62127e-24)
(5.98334e-07 6.6358e-07 1.816e-23)
(1.76099e-05 -1.54817e-05 6.3296e-23)
(1.96236e-07 1.09287e-06 -6.335e-24)
(-0.000109549 -9.04713e-05 -1.38099e-23)
(-3.2136e-07 -1.40962e-07 0)
(-1.54143e-05 -9.15984e-06 0)
(-4.38163e-06 6.11369e-06 -4.97675e-23)
(1.16885e-07 8.6555e-08 -3.33422e-25)
(-5.79625e-05 -1.67962e-05 -6.47544e-23)
(-1.13126e-06 6.06146e-06 5.67534e-23)
(4.60448e-05 -1.6942e-05 8.42245e-23)
(-3.5565e-06 2.9474e-07 3.57271e-23)
(2.62465e-05 0.000682045 8.21512e-26)
(1.05693e-07 1.10627e-07 0)
(-2.41349e-06 4.85289e-06 4.2216e-23)
(1.29485e-07 -1.45272e-07 0)
(-4.66376e-07 6.22219e-07 -2.69098e-23)
(-7.32471e-06 -2.458e-06 2.20673e-23)
(8.19234e-06 -6.40035e-06 -5.32179e-23)
(-5.29397e-05 -7.61805e-05 -4.37505e-23)
(-5.92126e-08 1.68145e-06 5.5092e-24)
(-4.39171e-07 -3.52384e-07 -1.37472e-23)
(0.000234189 -0.000141334 -3.33252e-23)
(-1.2756e-07 6.21763e-07 -1.20384e-23)
(5.4824e-05 -9.42843e-05 0)
(-7.30526e-07 -9.10041e-07 -2.98877e-25)
(1.6686e-07 -3.20015e-08 8.04761e-25)
(4.45626e-08 1.56037e-07 1.52228e-25)
(-1.06479e-07 5.3773e-07 0)
(1.92054e-08 -2.31468e-08 0)
(-7.86329e-07 -1.16752e-06 -2.25512e-26)
(-7.45089e-08 9.97631e-08 2.1647e-26)
(-5.22348e-06 4.15552e-06 -3.18702e-23)
(0.000164003 0.000605037 2.67958e-24)
(-5.52156e-07 -1.89184e-06 -6.24817e-23)
(5.57816e-07 3.00563e-07 -2.35445e-23)
(0.00019172 -0.000136899 7.4572e-24)
(-6.24996e-06 -0.000350847 7.3286e-24)
(8.73657e-08 -8.00251e-08 1.58463e-24)
(4.25793e-06 1.93815e-07 -1.46837e-25)
(8.8535e-08 2.45679e-09 -8.04842e-25)
(-1.85485e-07 9.83654e-08 -3.31287e-24)
(1.36745e-07 -3.57458e-08 -2.87423e-24)
(8.65752e-08 5.98752e-08 0)
(4.31378e-08 -3.40026e-08 1.47508e-24)
(-8.54552e-07 -1.13098e-06 4.95535e-23)
(5.66092e-05 0.000194499 0)
(-9.10465e-06 -3.57171e-05 4.49952e-24)
(1.40984e-07 -7.97473e-08 -3.51144e-24)
(-1.10968e-07 -1.46448e-07 0)
(-5.90501e-06 4.82632e-06 1.12797e-23)
(-5.28054e-05 9.6189e-05 5.60657e-23)
(0.000149609 0.000119609 2.65463e-24)
(6.17108e-06 -1.57557e-06 0)
(-3.55416e-07 7.74065e-07 3.07933e-24)
(-4.3792e-05 2.56948e-05 -3.26823e-23)
(0.000288099 0.000439995 7.27857e-24)
(2.46391e-08 -2.77542e-08 1.15944e-27)
(6.92515e-06 -1.11887e-05 -4.57464e-23)
(1.73017e-08 -7.39495e-08 -2.76638e-25)
(-3.713e-05 1.6783e-05 2.5509e-23)
(-1.50283e-06 6.68749e-06 -6.84765e-23)
(-3.36561e-06 6.65086e-06 0)
(-2.29206e-07 7.406e-06 -1.68091e-23)
(-6.91585e-06 -5.62895e-05 0)
(9.57242e-09 1.7096e-07 8.65543e-26)
(5.04913e-05 -1.61553e-05 -4.88088e-23)
(3.04702e-06 2.82317e-06 2.34086e-23)
(4.4638e-08 -6.63385e-09 7.07895e-25)
(4.3044e-05 -7.84606e-05 0)
(4.13102e-06 2.94302e-06 0)
(1.93709e-07 3.25956e-08 3.66866e-24)
(-0.000233238 -0.000373584 0)
(-5.80641e-06 5.29645e-06 0)
(-3.93257e-05 0.000242505 1.91147e-24)
(-6.02116e-06 1.62414e-06 0)
(-5.14136e-09 1.89785e-07 -9.9961e-26)
(2.69608e-05 1.93397e-05 -4.70441e-23)
(-1.13825e-05 -3.8656e-05 0)
(-3.94701e-06 6.45252e-06 0)
(-2.41096e-05 2.36783e-05 0)
(-3.81604e-08 4.97732e-09 6.15986e-26)
(-2.49927e-05 4.82161e-05 8.46029e-23)
(-2.14059e-08 1.20801e-07 0)
(7.07998e-08 1.66572e-10 -1.40513e-26)
(-2.73292e-06 1.6374e-06 0)
(6.82436e-08 -1.16361e-09 -1.38669e-24)
(5.81033e-05 -2.20815e-05 1.02078e-22)
(-1.385e-05 -1.68904e-05 -8.31402e-23)
(4.29449e-07 -3.62593e-07 0)
(5.03512e-07 -7.4488e-08 -3.87788e-23)
(-4.52381e-08 2.65116e-08 1.31419e-25)
(2.67506e-06 -1.57732e-06 0)
(-7.62224e-05 -0.000300269 1.61452e-23)
(-3.23141e-07 -1.92988e-06 8.15866e-23)
(-1.63543e-07 -5.21742e-05 4.4569e-23)
(-1.01921e-07 1.07413e-07 1.26493e-24)
(-2.27153e-06 -5.78841e-05 2.21727e-24)
(7.0206e-08 -2.16474e-09 1.24941e-24)
(6.766e-08 2.71189e-10 -1.64723e-24)
(7.57516e-07 3.3234e-06 4.42976e-23)
(-3.15053e-06 3.90478e-07 0)
(4.13915e-06 4.78477e-07 0)
(5.0427e-06 6.80243e-06 0)
(1.16968e-07 -1.88787e-08 -2.35778e-24)
(-1.35017e-06 6.3931e-06 7.70966e-23)
(5.67697e-08 -2.21072e-08 0)
(2.66638e-05 2.60198e-05 0)
(4.65594e-06 1.1706e-06 3.03192e-23)
(3.05522e-06 1.97931e-06 5.42576e-23)
(6.81958e-05 -0.00013554 -1.54625e-22)
(-5.90229e-06 -8.4975e-06 -8.82359e-23)
(2.53297e-08 8.42499e-08 0)
(6.01595e-08 1.10029e-08 5.84848e-25)
(6.61134e-06 -5.35416e-06 4.47967e-24)
(2.20267e-05 -0.000468477 -1.47118e-24)
(5.97293e-05 0.000232294 0)
(3.3164e-07 -1.80762e-07 -9.44015e-24)
(7.66227e-08 1.26052e-08 0)
(-8.95714e-07 -1.22274e-06 -5.91085e-23)
(5.44466e-06 4.92558e-05 -9.43826e-23)
(0.000165733 1.83737e-05 1.07425e-24)
(5.99757e-08 2.37071e-07 -1.77826e-23)
(-7.44845e-07 -9.38428e-07 -2.15286e-24)
(7.10035e-08 1.30559e-09 -1.89272e-24)
(-0.000156198 -0.000330394 1.00722e-25)
(-4.99357e-06 1.49734e-07 -3.17231e-23)
(8.28598e-05 0.000166599 0)
(-7.09554e-05 -0.000142811 3.21827e-23)
(-2.35859e-05 9.18152e-05 -2.76257e-25)
(-8.11935e-05 6.19407e-05 2.75746e-23)
(3.39431e-08 6.51974e-09 1.96838e-24)
(-1.7143e-07 -6.06459e-08 -1.58557e-25)
(5.02277e-08 -1.35301e-08 3.09277e-24)
(-1.83464e-05 6.17205e-05 0)
(2.94164e-06 -3.22593e-06 -7.58676e-23)
(-1.9218e-05 2.99117e-05 0)
(0.000121546 0.000285878 -4.14017e-25)
(7.37681e-08 -3.63583e-08 1.83206e-24)
(3.18334e-07 -1.70722e-07 -2.49237e-23)
(-1.2221e-08 3.81762e-07 0)
(-5.51376e-06 -3.96675e-06 -7.43339e-24)
(-0.000128394 -0.000434338 -3.56508e-23)
(1.90546e-08 7.49845e-08 0)
(7.88172e-08 1.26658e-08 6.07323e-24)
(-5.08022e-08 4.5035e-08 -8.68817e-26)
(-6.71383e-06 -3.99927e-06 0)
(4.88501e-06 -1.0304e-06 -3.01379e-23)
(-6.92383e-05 7.67434e-06 -1.95282e-23)
(5.53871e-06 1.56315e-06 0)
(-7.32589e-06 -1.96095e-05 9.97193e-23)
(1.86643e-06 -9.2113e-07 1.87355e-23)
(0.000110538 7.69053e-05 2.34706e-23)
(1.68421e-07 -2.36507e-08 -4.28517e-24)
(3.86861e-06 7.38355e-06 0)
(-6.62535e-08 2.95131e-07 2.67794e-24)
(-1.13882e-05 4.50169e-05 0)
(5.6394e-08 -8.70863e-08 -1.43542e-24)
(-6.26245e-05 5.53575e-05 -1.04516e-24)
(-6.40673e-05 -6.85107e-06 7.19157e-23)
(3.85168e-06 -5.03382e-07 -3.99685e-23)
(3.5234e-06 -1.19578e-05 5.16898e-23)
(8.10759e-08 -9.15929e-09 -1.78433e-24)
(7.06685e-08 6.12719e-10 -4.60128e-24)
(4.16648e-07 -8.27035e-06 9.19955e-23)
(1.65866e-05 0.000381452 0)
(-8.74609e-06 -5.3413e-05 -5.8402e-23)
(-5.64108e-05 3.81738e-05 0)
(-1.40754e-07 -6.20343e-08 4.92841e-25)
(4.64152e-08 2.46704e-08 5.01472e-24)
(0.000219844 9.62041e-05 -7.94089e-23)
(1.89857e-05 1.23898e-05 1.06986e-23)
(2.859e-07 -7.96624e-07 -7.13925e-24)
(5.85669e-08 8.16962e-08 0)
(-3.35277e-05 -7.38985e-05 -1.39147e-22)
(9.67095e-05 -5.69486e-05 1.56943e-24)
(5.02354e-06 -2.20191e-06 -2.53195e-23)
(-2.47677e-07 -2.77835e-07 0)
(1.06768e-08 3.96444e-09 4.99307e-24)
(5.8791e-07 -9.33791e-06 -6.63456e-23)
(1.96054e-06 3.77805e-06 -2.22275e-23)
(7.17203e-06 7.36994e-06 4.38076e-23)
(2.21045e-05 -2.40862e-06 3.67835e-25)
(-1.28658e-06 1.33815e-05 1.01394e-23)
(5.28316e-08 -8.375e-08 2.01476e-24)
(1.22883e-05 -1.98756e-05 4.76852e-23)
(1.76216e-05 5.30167e-05 -8.41569e-24)
(3.5868e-06 -2.16157e-05 -2.23805e-23)
(8.23802e-08 4.54947e-09 3.50396e-25)
(3.29911e-06 -1.39022e-06 -1.76387e-26)
(5.12107e-08 -3.26249e-08 -9.03774e-25)
(6.71714e-06 -1.1512e-06 0)
(-1.61681e-05 5.0778e-05 4.12303e-23)
(2.45877e-05 0.000161163 -1.77161e-23)
(5.18044e-08 -2.45826e-08 -7.90531e-25)
(4.40338e-08 1.67369e-09 -1.37873e-24)
(-1.04618e-06 -0.000384576 1.6996e-22)
(9.27663e-08 6.73626e-09 -5.68641e-25)
(4.84942e-08 -2.08078e-08 0)
(-4.88032e-05 -3.99847e-05 -4.77776e-23)