/*--------------------------------*- C++ -*----------------------------------*\
| =========                 |                                                 |
| \\      /  F ield         | OpenFOAM: The Open Source CFD Toolbox           |
|  \\    /   O peration     | Version:  v2012                                 |
|   \\  /    A nd           | Website:  www.openfoam.com                      |
|    \\/     M anipulation  |                                                 |
\*---------------------------------------------------------------------------*/
FoamFile
{
    version     2.0;
    format      ascii;
    class       volScalarField;
    location    "400";
    object      k_0;
}
// * * * * * * * * * * * * * * * * * * * * * * * * * * * * * * * * * * * * * //

dimensions      [0 2 -2 0 0 0 0];


internalField   nonuniform List<scalar> 
14804
(
0.000132315
0.000142301
0.037688
0.000138194
0.00017099
0.000163329
0.0238971
0.000177557
0.000151222
0.000140138
0.000188623
0.0127933
0.00284213
0.0166487
0.0504539
0.00015886
0.0190176
0.01339
0.000158913
0.00013199
0.000144216
0.000170999
0.000173871
0.000160517
0.0130294
0.0233733
0.0194133
0.000148219
0.0508436
0.0383477
0.0405483
0.0191444
0.000165859
0.000177768
0.0498876
0.000138889
0.00014146
0.000160135
0.000228216
0.000131212
8.17738e-05
0.000245107
0.000218495
0.000157024
0.0287227
0.0383625
0.000110937
0.000138159
0.000203999
0.000144018
0.000150137
0.000158239
0.00014637
0.000175236
0.000166273
0.000147948
0.0189308
0.0226319
0.0240671
0.00351677
0.0227879
0.0468313
0.000131744
0.000141876
0.000159501
0.0120334
0.00946653
0.000157629
0.000140709
0.000162626
0.000164234
0.000156768
0.000159084
0.000189245
0.0363069
0.000150066
0.000153228
0.000199563
0.00013018
0.000196511
0.000194715
0.000169084
0.00018849
0.0349281
0.000167447
0.000153759
0.000154264
0.000140548
0.000171927
0.000171632
0.0305445
0.00014021
0.000131202
0.000145603
0.000141891
0.0313744
0.000154305
0.0268683
0.000165149
0.000169113
0.0373166
0.0346951
0.000242517
0.000159749
0.000211164
0.014081
0.00016225
0.000157113
0.000165368
0.00345152
0.000155155
0.000162379
0.0225913
0.000184779
0.000168479
0.0406003
8.31963e-05
0.000224589
0.000159655
0.000138206
0.039842
0.000210155
0.000145503
0.000190079
0.00015969
0.000186126
0.00014822
0.000149844
0.000176605
0.0375491
0.000133866
0.0305392
0.000150438
0.0387042
0.000146187
0.0304287
0.000135953
0.000162904
0.0392076
0.0285659
0.000141594
0.000149423
0.000162234
0.000157278
0.000130201
0.000156226
0.000191411
0.000192867
0.0347378
0.00016242
0.00950258
0.000134008
0.000249261
6.90846e-05
0.00013274
0.000133903
0.0162121
0.000160707
0.000154215
0.0363584
0.000148237
0.00014247
0.00015082
0.000150131
0.000168343
0.0294058
0.000152286
0.000141904
0.000232313
0.000160566
0.000148236
0.000158766
0.0443463
0.000156419
0.000363902
0.0389342
0.0012927
0.0116811
0.0420067
0.000487245
0.000146191
0.000202989
0.000150094
0.0238158
0.000143586
0.0403125
0.0285773
0.0407545
0.0381449
0.000156469
0.000152793
0.0498488
0.0214282
0.0162824
0.0402426
0.0332163
0.0392302
0.0390373
0.000149813
0.0427968
0.000150063
0.000151175
0.000142619
0.0360008
0.000164131
0.000210068
0.0400006
0.01027
0.000190146
0.000145507
0.000158113
0.0448432
0.000148961
0.00013845
0.0440181
0.000144911
0.00474405
0.000145091
9.9329e-05
0.0114322
0.000190005
0.034633
0.000156464
0.000375368
0.0620406
0.000209625
0.0373436
0.0001443
0.00956658
0.00121104
0.000200163
0.0399857
0.000150767
0.000145836
0.0312887
0.000153608
0.0371924
0.0379433
0.000153187
0.0274243
0.00847601
0.000199851
0.0286956
0.045508
0.00016011
0.000141961
0.000193646
0.023313
0.000173739
0.000160671
0.0438995
0.0322624
0.000146006
0.000161506
0.000157651
0.00112797
0.0332545
0.0476912
0.0431136
0.0435074
0.000161911
0.0129788
0.000151059
0.000173902
0.000152622
0.0221098
0.000143027
0.00205533
0.0267695
0.000131462
0.000145374
9.69158e-05
0.000216266
0.00859159
0.000198726
0.0317394
0.000153675
0.000201215
0.000131324
0.0339196
0.000143179
0.0566465
0.000150509
0.000188643
0.000153274
0.0432392
0.000160473
0.0253864
0.00014916
0.0427589
0.0177324
0.000201554
0.000655847
0.0404415
0.0001602
0.000168955
0.0485381
0.000147525
0.000169306
0.000141082
0.000148774
0.000194032
0.000149196
0.000200545
0.000155885
0.0292057
0.00902644
0.000145621
0.0275415
0.000190842
0.000156023
0.000145163
0.0518034
0.000138666
0.00244018
0.000157813
0.000192833
0.000148579
0.00018826
0.000152671
0.000148702
0.000157567
0.0307711
0.0356246
0.000145582
0.000142623
0.000190107
0.0434025
0.0524961
0.000188792
0.000202991
0.000147967
0.00014734
0.0208468
0.000155423
0.0413123
0.000199104
0.0191358
0.0376666
0.0410212
0.0402832
0.000215904
0.0122852
0.0429402
0.000148529
0.000152889
0.0306648
0.0208688
0.000151383
0.000161166
0.000187479
0.000136503
0.000139988
0.0381344
0.00014729
0.000147828
0.00775263
0.000166816
0.037369
0.000147993
0.000195636
0.000144845
0.0215372
0.0502235
0.022122
0.00019514
0.000147735
0.0307332
0.0499434
0.000195408
0.00014778
0.0360631
0.000146086
0.0223942
0.000167387
0.0469124
0.00429907
0.000230625
0.000142104
0.000207923
0.000151451
0.000196463
0.0256332
0.000160523
0.000145961
0.000137825
0.00013981
0.000147187
0.059978
0.000157557
0.0569563
0.000188951
0.000173033
0.000152801
0.000145889
0.0450466
8.46502e-05
0.000180324
0.000302751
0.000209662
0.000168708
0.000189676
0.041108
0.0493057
0.000176612
0.000173721
0.000214393
0.000143143
0.000185535
0.00014336
0.000146905
0.000198606
0.0200809
0.0347609
0.00885177
0.000147749
0.00748238
0.000147068
0.000164488
0.000168936
0.0290803
0.000161034
0.000218827
0.0362365
0.000157297
0.000144013
0.000231125
0.00605824
0.00019873
0.000158771
0.000151217
0.000138443
0.019876
0.0420566
0.000158036
0.0365721
0.000203778
0.00558686
0.000143899
0.0660118
0.0387244
0.000153997
0.000214744
0.000156714
0.000184899
0.000200706
0.0341592
0.000157983
0.000150771
0.0393682
0.000175543
0.0147365
0.0616567
0.000121617
0.037995
0.000145316
0.0325681
0.000138332
0.000226448
0.000186707
0.000169
0.000189047
0.000160271
0.0171008
0.000145282
0.0142378
0.000186304
0.000187562
0.0341168
0.000154317
0.000145517
0.000138085
0.042392
0.0224541
0.0137598
0.000198945
0.000138687
0.000166743
0.000146918
0.000210091
0.000160961
0.0270165
0.0425818
0.00016454
0.0373029
0.000259587
0.0309327
0.000155501
0.0508305
0.0394514
0.0663872
0.0435119
0.000230942
0.0240577
0.0579336
0.00014329
0.000143835
0.0125815
0.000143706
0.000170436
0.000178966
0.000160816
0.00014684
0.0432433
0.000163087
0.000185191
0.000232061
0.000159808
0.00013888
0.0416637
0.000203718
0.0654692
0.0207509
0.000160688
0.000199391
0.018156
0.0367281
0.0670644
0.00014319
0.00018703
0.000152025
0.000212467
0.0430094
0.0247912
0.0401262
0.0370705
0.00019962
0.019174
0.0559907
0.000221932
0.00205028
0.000133872
0.0350526
0.0309072
0.0249838
0.000156582
0.00192809
0.000161751
0.000155557
0.023532
0.000158455
0.0297563
0.000155047
0.000191983
0.000143528
0.000163122
0.000119369
0.00014257
0.000159607
0.000168804
0.000167645
0.000145967
0.000143139
0.000139529
0.000210762
0.000138347
0.0313196
0.0117903
0.000157363
0.0447166
0.000156554
0.0228937
0.000142144
0.00481601
0.000154902
0.00205144
0.000144304
0.000337705
0.047427
0.000151436
0.000173545
1.77655e-05
0.0467876
0.0239116
0.000174387
0.000187371
0.039316
0.0505025
0.000179596
0.00013689
0.0462539
0.000133992
0.000210891
0.0196927
0.041817
0.0409631
0.00014606
0.00015232
0.000135728
0.00015677
0.000195014
0.000157928
0.00933542
0.0325146
0.0140874
0.0542261
0.0159216
0.017672
0.000210835
0.00015998
0.0319314
0.0472438
0.000142557
0.00020173
0.020893
0.00224209
0.000162621
0.02639
0.000161566
0.000191934
0.0656026
0.00014867
0.0375644
0.0613477
0.0167411
0.0199759
0.00466723
0.000149009
0.0560437
0.00013698
0.000198874
0.00017445
9.51155e-05
0.00839148
0.000163902
0.000163281
0.014964
0.000165079
0.000334187
0.000159335
0.000134147
0.000131124
0.021638
0.000152328
0.000159804
0.000130273
0.000227073
0.0229099
0.000199673
0.000168813
0.0154902
0.0108346
0.0001525
0.000199618
0.000141078
0.000151225
0.000157808
0.000131206
0.000143054
0.000199273
0.0355629
0.00497284
0.000155699
0.000145359
9.2352e-05
0.0351169
0.0161569
0.000218064
0.000199316
0.000205637
0.0217905
0.000150135
0.0515134
0.000154269
0.000205873
0.0622555
0.0648771
0.0501294
0.000184103
0.000131124
0.0265259
0.000190848
0.000154663
0.000228653
0.000194719
0.000158292
0.00707764
0.000161149
0.0296801
0.0432265
0.000131378
0.000217544
0.025058
0.0650407
0.000181916
0.000155356
0.0408444
0.000145193
0.000149428
0.000177395
0.000138202
0.0239242
0.0216729
0.000162281
0.000180964
0.000155817
0.000161731
0.00885446
0.000199205
0.00407138
0.000145103
0.0326516
0.000136763
0.00015449
0.0578978
0.0227984
0.0190915
0.0416636
0.000157255
0.0619169
0.000142139
0.0002112
0.0350467
0.0387635
0.0120563
7.12851e-05
0.000147279
0.000155569
0.000218057
0.0299669
0.00945271
0.000163514
0.000147666
0.000199721
0.0396165
0.031551
0.000158317
0.000155623
0.000143388
0.00661716
0.0199055
0.0125705
0.00909566
0.000270972
0.00678111
0.000143025
0.000155918
0.000145485
0.0398892
0.000206242
0.00018283
0.0162385
0.000142778
0.000162974
0.018288
0.00018055
0.0151699
0.000146962
0.00013583
0.000131835
0.000182143
0.000207329
0.00162905
0.000200877
0.0274586
0.00019091
0.0365155
0.000158196
0.0494
0.000151921
0.000185904
0.000147938
0.0065364
0.0387433
0.0180759
0.0211532
0.000151079
0.000145382
0.032889
0.00982005
0.00595424
0.00668462
0.000155475
0.000145135
0.0249645
0.000182303
0.000187663
0.000153323
0.003796
0.0015456
0.0261174
0.000143594
0.000175192
0.0343671
0.00018771
0.0390908
0.0443029
0.000163804
0.000147565
0.0465404
0.000266483
0.000189007
0.00015068
0.000162054
0.000143232
0.000211094
0.0409057
0.00897587
0.000145719
0.000146814
0.0151116
0.00014585
0.000145727
0.037296
0.000130121
0.000164632
0.000146006
0.000231939
0.000149543
0.000189746
0.060896
0.000143965
0.0612141
0.000157294
0.0356907
0.000142289
0.000154375
0.0417976
0.016326
0.0607446
0.000160118
0.0154274
0.000151577
0.000150295
0.0503885
0.000137926
0.000145091
0.000145361
0.000145153
0.060105
0.000154546
0.000157725
0.000257277
0.000134515
0.0582408
0.00015979
0.0290199
0.000138076
0.000205738
0.0475935
0.0187222
0.00935961
0.000152191
0.0443837
0.00633499
0.0492733
0.000140587
0.000184861
0.000166461
0.000148191
0.000147986
0.000142772
0.0374215
0.038127
0.000165857
0.000199149
0.000153737
0.000187297
0.0107879
0.000160244
0.000157434
0.000161086
0.022623
0.0399906
0.00013945
0.000140841
0.0359482
0.000181613
0.0495967
0.0322628
0.000182756
0.00016377
0.000156034
0.00957288
0.000141095
0.000151019
0.000186859
0.0358779
0.000143149
0.00014928
0.00014212
0.000137631
0.000195571
0.000143452
0.000144116
0.0443498
0.0402642
0.000998552
0.00882619
0.0178175
0.000142236
0.000173738
0.0366084
0.000161215
0.000155058
0.039238
0.000148608
0.000223321
0.038534
0.000178728
0.000140579
0.000142843
0.000174418
0.000156933
0.000219214
0.000175658
0.000164536
0.00885701
0.0146832
0.000193991
0.000196849
0.000139554
0.0519154
0.000659771
0.000178007
0.0441511
0.038602
0.000142221
0.000198418
0.0220441
0.000146241
0.000164372
0.00016255
0.000155869
0.0218428
0.0513756
0.000192956
0.000164446
0.000144247
0.00015296
0.000142283
0.000158734
0.000156546
0.000155008
0.025605
0.00870111
0.000156598
0.014871
0.0298677
0.0258555
0.000179032
0.000151098
0.039281
0.0415652
0.0114487
0.00177873
0.000159242
0.00020881
0.040734
0.000169349
0.000158654
0.000156391
0.000157704
0.0321059
0.000191509
0.000160158
0.000182011
0.0136083
0.0385316
0.000163248
0.000188866
0.0273239
0.000145504
0.000147854
0.000183806
0.00015731
0.000155621
0.000164717
0.0166638
0.000162874
0.0310563
0.0290215
0.000187075
0.000232162
0.000232452
0.0120762
0.000136925
0.000161254
0.000168326
0.0137445
0.00014749
0.0268098
0.0448453
0.0282017
0.00014521
0.000243804
0.0350706
0.000207192
0.000188363
0.000171543
0.000188223
0.000153064
0.0217579
0.0288577
0.000157041
0.000618756
0.000148003
0.000159917
0.0288793
0.00046353
0.000147721
0.0136473
0.000159627
0.000143159
0.0124277
0.00565713
0.040347
0.000149329
0.000187279
0.000188496
0.000151275
0.00525003
0.000144849
0.000208396
0.000165506
0.0539446
0.00014044
0.000178507
0.000209971
0.000145468
0.0695618
0.00751205
0.0521151
0.000211229
0.000187561
0.0523791
0.0331467
0.000137886
0.000157899
0.000154827
0.000147509
0.000498234
0.000166024
0.000154443
0.0422729
0.000209875
0.000142886
0.000144132
0.000162084
0.000231485
0.000139793
0.000144
0.000157515
0.000146689
0.000948781
0.000238102
0.000492905
0.000211207
0.0458216
0.0238896
0.0400756
0.0108362
0.000155649
0.00049825
0.023294
0.00112545
0.000131386
0.000139532
0.000146005
0.00103634
0.053037
0.000158532
0.00717227
0.000148892
0.000157219
0.000168847
0.00356826
0.000227173
0.000143463
0.000162251
0.000146578
0.000143432
0.000199147
0.000140638
0.000168858
0.000131075
0.0527222
0.000157738
0.000169012
0.000165443
0.0146267
0.0505762
0.000147238
0.000151502
0.000198943
0.000131281
0.00210363
0.000228772
0.000178417
0.000142277
0.000195289
0.000150023
0.000436668
0.000152401
0.0572868
0.0247441
0.000183765
0.0598327
0.034633
0.000140432
0.000227022
0.0416004
0.0231028
0.00025823
0.000160925
0.0385924
0.032904
0.0334083
0.000147588
0.000151572
0.000171818
0.000479546
0.000220751
0.000163037
0.0199243
0.000165157
0.000155941
0.000163903
0.0286286
0.000264982
0.0333888
0.0399167
0.060991
0.000242661
0.000161304
0.000144329
0.0542655
0.0219546
0.0354215
0.000209691
0.000134856
0.0322197
0.000131193
0.000159595
0.00773336
0.000151489
0.0444947
0.00014755
0.000145382
0.000140552
0.00015764
0.000156044
0.00645074
0.000152745
0.0689295
0.0087785
0.00013391
0.00018221
0.0517636
0.0396654
0.000148806
0.000162528
0.000139079
0.066735
0.000143582
0.00458918
0.000165966
0.000143782
0.057042
0.0304952
0.0357559
0.000694335
0.000189936
0.000147515
0.0224695
0.00795538
0.0400768
0.000154298
0.0516427
0.000160821
0.000152627
0.000156228
0.000161358
0.024992
0.000199586
0.000242753
0.000186342
0.0116423
0.0394465
0.0394901
0.000173055
0.000160941
0.000342684
0.000149747
0.000240216
0.000155286
0.000188767
0.0404494
0.000131422
0.000176252
0.00940657
0.0233731
0.000169379
0.000157704
0.000132265
0.000154499
0.0162437
0.000197274
0.0560284
0.000197232
0.0402558
0.0395706
0.0666283
0.0396574
0.00959488
0.000198052
0.0397285
0.0115471
0.0406117
0.000194182
0.000161375
0.00643746
0.000185484
0.00685491
0.0347229
0.00927367
0.000144839
0.0401718
0.0158845
0.031858
0.0370993
0.000155248
0.000142317
0.000140028
0.0344798
0.000147387
0.000143256
0.000143294
0.000157558
0.000144718
0.0128778
0.000229296
0.0411802
0.000147392
0.0223619
0.000157078
0.0253565
0.000139321
0.0536138
0.0340517
0.000147115
0.00110029
0.000135134
0.035478
0.0576362
0.000184749
0.00015613
0.000141746
0.00015762
0.000206809
0.000200534
0.000154639
0.0198921
0.00019221
0.00101439
0.000194373
0.000212317
0.0154723
0.00017494
0.000205049
0.0264704
0.000188977
0.000177049
0.000150284
0.0217168
0.000152904
0.00927621
0.000189263
0.00014412
0.000146488
0.000140743
0.0348345
0.000194956
0.0353379
0.0297597
0.000132
0.0555327
0.0417479
0.000163513
0.0110396
0.000142588
0.000149307
0.000149408
0.000175442
0.000220153
0.00699165
0.0147422
0.000155792
0.000226188
0.0138722
0.0001423
0.0180306
0.000448842
0.0341857
0.000178478
0.00651278
0.000210815
0.000333388
0.000139491
0.000149777
0.0379166
0.0002222
0.000166622
0.00192166
0.0448965
0.000135457
0.0420536
0.000151569
0.000156481
0.000143735
0.000145483
0.000144072
0.000156844
0.0635858
0.03743
0.0493918
0.000172557
0.000208779
0.0366661
0.000157266
0.049138
0.0529105
0.00223171
0.00014518
0.000224224
0.000142042
0.0554957
0.03087
0.00019044
0.022108
0.0428132
0.000211028
0.0214211
0.000135147
0.000149593
0.0265804
0.00646539
0.000154208
0.0227974
0.0421704
0.0358923
0.000140857
0.000231132
0.0513167
0.0461221
0.000132828
0.0227864
0.000147364
0.000149115
0.00687054
0.0187936
0.000145173
0.0001593
0.000231295
0.0593322
0.000149281
0.000164892
0.000132594
0.029996
0.000161266
0.000230287
0.000142498
0.000161852
0.0209594
0.000147731
0.0302878
0.000196967
0.000160237
0.0377254
0.0044911
0.0339991
0.000133229
0.000158677
0.0380278
0.00213395
0.00885368
0.000210615
0.000147894
0.000156135
0.000199898
0.00014291
0.0234304
0.0314182
0.000136424
0.0376165
0.000148895
0.0216282
0.0538263
0.000221545
0.0049254
0.000408019
0.0407406
0.057268
0.000161624
0.000192646
0.000152861
0.0155317
0.00254214
0.000159502
0.000142446
0.000149973
0.000206045
0.0314604
0.0632743
0.0514349
0.000138861
0.000131251
0.0497501
0.000190933
0.000151284
0.000159835
0.0364702
0.0355557
0.000154878
0.000157444
0.000143642
0.000199259
0.000156902
0.000145008
0.000150594
0.000145416
0.0356784
0.0584072
0.0445949
0.0321111
0.000279084
0.000148114
0.000144682
0.000198186
0.000221938
0.0148719
0.000195008
0.00771209
0.0159868
0.000157986
0.000146747
0.000146107
0.00014734
0.000222381
0.0133617
0.0402273
0.000208394
0.000197982
0.000197039
0.00540364
0.00516703
0.015688
0.000167674
0.000133428
0.000152692
0.000152529
0.000190149
0.0442662
0.000180023
0.000175476
0.000147669
0.000170478
0.000230634
0.000160011
0.000189015
0.000147855
0.000183174
0.0561033
0.0259974
0.000190402
0.0226349
0.0470439
0.000143868
0.0172782
0.0224143
0.0316097
0.000144611
0.000202755
0.000143253
0.0279111
0.000161793
0.0523149
0.000156181
0.0354605
0.0352069
0.000137154
0.000187032
0.000103117
0.0405909
0.00430757
0.00018439
0.0384164
0.000140585
0.0411271
0.000243847
0.000159332
0.000170385
0.000178569
0.0394903
0.00818769
0.000189086
0.0404492
0.000148513
0.000152413
0.00013829
0.000162023
0.000172964
7.83231e-05
0.000150355
0.0157277
0.0282876
0.0338565
0.0505876
0.000207394
0.0250048
0.000210401
0.000178909
0.000154006
0.000148617
0.000203736
0.000227904
0.0490253
0.000146543
0.000152664
0.000132394
0.000155482
0.000142984
0.000240887
0.00876491
0.000142492
0.000143031
0.000142578
0.000209413
0.0557622
0.000136507
0.0474625
0.000139609
0.0321107
0.00256076
0.00117659
0.00579451
0.0188186
0.0151143
0.000975197
0.039505
0.000161136
0.000150818
0.0143985
0.000187
0.000145717
0.00203117
0.0162209
0.000209504
0.00015492
0.000133899
0.000154824
0.034395
0.025412
0.000225694
0.0444748
0.022288
0.000239361
0.0408086
0.027435
0.0254178
0.000185942
0.000145054
0.000142942
0.000168058
0.000159211
0.00174406
0.039852
0.000148516
0.000224911
0.0230257
0.000159175
0.000177563
0.000160333
0.000166429
0.00814807
0.0477669
0.000189386
0.000197844
0.000164892
0.000157324
0.000207261
0.0215123
0.000176964
0.000212002
0.000152609
0.000186693
0.000163513
0.000162267
0.000137068
0.000185594
0.000148678
0.000177078
0.000225523
0.0227303
0.000165108
0.0183404
0.000148393
0.0188685
0.00864277
0.000210603
0.000149812
0.000239444
0.000142792
0.00019833
0.00907026
0.0161745
0.000207584
0.0403211
0.00013891
0.046328
0.0195817
0.000162495
0.000177155
0.0364373
0.000138413
0.000145763
0.000155162
0.000154215
4.65337e-05
0.0375453
0.000147511
0.02121
0.000189901
0.000153931
0.000146931
0.0686802
0.00362195
0.000142925
0.0120779
0.0164734
0.012875
0.000155402
0.000138528
0.014453
0.0334177
0.000226342
0.00017714
0.000184136
0.0391144
0.000239601
0.000198969
0.000160709
0.000211574
0.000177108
0.00735535
0.00013707
0.000150823
0.0308047
0.000143197
0.0435452
0.000179096
0.000148874
0.000148017
0.0240836
0.000168564
0.000149006
0.000163511
0.000162083
0.00984504
0.0293921
0.0224184
0.000184501
0.0256002
0.000187645
0.000145216
0.00835567
0.000183046
0.000162507
0.0403854
0.000147452
0.000131163
0.000169169
0.00015321
0.0246786
0.0394845
0.000160945
0.0073641
0.000159055
0.000161403
0.0158455
0.000176851
0.00564408
0.000185223
0.000143111
0.000157094
0.00022545
0.000167606
0.000184231
0.000209153
0.000189292
0.000172855
0.0111077
0.000411222
0.000157589
0.00017909
0.000217103
0.00021009
0.000156258
0.0105355
0.000292902
0.000177673
0.0111575
0.0352942
0.0280854
0.0144175
0.00017057
0.00414396
0.000222905
0.00020954
0.0571028
0.000148919
0.000168532
0.04305
0.000196472
0.00869157
0.000214805
0.000169728
0.0298515
0.0301997
0.00919613
0.000178911
0.000232432
0.000157012
0.0132187
0.0542601
0.0278101
0.000154199
0.000184482
0.000228593
0.000171224
0.000198369
0.000204134
0.000177839
0.000182725
0.000178648
0.0290276
0.0291668
0.000171849
0.000189422
0.0366272
0.0267571
0.000163115
0.000161669
0.000204173
0.0284011
0.000152975
0.0436654
0.000156401
0.000143813
0.000140019
0.000155195
0.000214324
0.000147838
0.000131773
0.000163755
0.000139969
0.000148277
0.0108742
0.00015612
0.0282303
0.0309021
0.000172382
0.000190048
0.000198543
0.000146941
0.000148797
0.000143157
0.0119899
0.000184728
0.000140318
0.000148137
0.000158652
0.000178413
0.000174064
0.00630632
0.000179146
0.000142313
0.000171747
0.0108159
0.000159038
0.000152898
0.00016393
0.0348091
0.0317822
0.000172431
0.00743831
0.000296366
0.0255031
0.000221403
0.032581
0.000145682
0.0185777
0.000156518
0.000141704
0.000148947
0.000191085
0.000180086
0.000147358
0.000171566
0.000144764
0.000233056
0.000345391
0.000148155
0.000157973
0.000182415
0.0326346
0.000144634
0.0402611
0.000159713
0.00572828
0.000140182
0.000143061
0.000116199
0.000155399
0.000165611
0.000144507
0.000145906
0.00354138
0.00019132
0.000163523
0.00013675
0.0380522
0.0192692
0.000157681
0.030627
0.0412695
0.000167354
0.0299449
0.0326748
0.035474
0.00014664
0.000206724
0.000161315
0.000207218
0.0345641
0.000148974
0.000226203
0.000149961
0.000206945
0.000161833
0.00612893
0.000164826
0.000164004
0.0287786
0.00406502
0.000226293
0.000203282
0.000149903
0.000123115
0.036081
0.000155692
0.000208541
0.0143772
0.000506666
0.000143538
0.000148753
0.000206462
0.0227896
0.0291212
0.0319918
0.000146207
0.000207419
0.000144817
0.0431515
0.0306839
0.0225935
0.0283024
0.0108744
0.000142316
0.00308066
0.000165649
0.000148474
0.00485432
0.000162546
0.00033072
0.000135253
0.0360497
0.0362558
0.00016891
0.00713599
0.00496786
0.0390987
0.000159379
0.000144804
0.033728
0.000154458
0.0207471
0.000147901
0.000144995
0.000158548
0.0261279
0.000134203
0.0329645
0.0129767
0.000368935
0.000177789
0.018921
0.00720317
0.0306425
0.0285371
0.0683193
0.0642251
0.000219339
0.000141983
0.000198172
0.0198224
0.0331763
0.000178877
0.00014436
0.000140813
0.0194471
0.000231918
0.000168329
0.000210688
0.00014115
0.000140858
0.00024628
0.000159148
0.0150393
0.000143119
0.0521088
0.00018664
0.000146976
0.0224648
0.000189582
0.000210053
0.000143001
0.029142
0.000212642
0.000162569
0.000194947
0.0184976
0.0269515
0.000151399
0.000179851
0.000158584
0.00017254
0.00964981
0.00847178
0.0105894
0.000137319
0.000211802
0.00811828
0.0535974
0.0301114
0.0137231
0.0135284
0.000141477
0.000180954
0.00052753
0.0471109
0.000240165
0.00741288
0.000143631
0.0566352
0.0117053
0.00014682
0.000162518
0.000189999
0.0346458
0.000147527
0.000162299
0.00847181
0.000136104
0.0178462
0.000178842
0.0197085
0.00673196
0.00437464
0.000142636
0.0100734
0.00788928
0.0110888
0.000161449
0.0354151
0.0456321
0.000141884
0.0002275
0.000173543
0.000154275
0.035664
0.000229896
0.000168253
0.0001566
0.0396945
0.000154209
0.000204313
0.000168556
0.000142771
0.000214851
0.000221132
0.0399148
0.0375273
0.000137195
0.000170223
0.000187569
0.000176461
0.027254
0.000152424
0.000173926
0.0406396
0.0317461
0.026026
0.0304368
0.000209905
0.0261974
0.000157184
0.0348272
0.000199921
0.000207252
0.000213673
0.000143678
0.0321926
0.0312255
0.00564342
0.037918
0.036285
0.000188927
0.00777018
0.0358504
0.0342425
0.0412989
0.0122863
0.0415013
0.000243658
0.000191117
0.000175892
0.000146023
0.0130288
0.000151692
0.000149352
0.0361849
0.000171666
0.000203139
0.000148064
0.00913037
0.0676883
0.00567709
0.000166421
0.0226908
0.00015567
0.0273305
0.0432111
0.0150184
0.000155854
0.00663381
0.000171101
0.000253048
0.000162156
0.00884998
0.000179154
0.000197352
0.0145853
0.000157389
0.000153456
0.0333588
0.000142782
0.000140571
0.0171357
0.000221283
0.000171789
0.0384101
0.000147983
0.0532146
0.000154867
0.000171621
0.000154061
0.000175735
0.000149263
0.000198196
0.0387555
0.00015211
0.000143208
0.0135564
0.000203858
0.000145575
0.000186674
0.000159905
0.000197478
0.0399362
0.000198758
0.0255664
0.0438687
0.00022178
0.0363162
0.000149062
0.000156644
0.000209071
0.0293067
0.0450564
0.0113093
0.000183703
0.0020666
0.000156434
0.0256984
0.00575191
0.0136796
0.00018477
0.0287346
0.0337795
0.00014261
0.0272519
9.7833e-05
0.000143992
0.000150277
0.0192766
0.000150771
0.000198892
0.000150953
0.000172803
0.000186142
0.000151283
0.000151763
0.000221591
0.0260095
0.000150029
0.0629401
0.00569473
0.000223779
0.0397566
0.0275842
0.000147223
0.0152721
0.000186624
0.000147735
0.0277654
0.000171115
0.000180416
0.00479436
0.000146464
0.000143201
0.00574139
0.000158011
0.032559
0.000154856
0.000161383
0.000145342
0.000223625
0.0339079
0.025944
0.000145471
0.00109585
0.0538232
0.000176895
0.000161222
0.0260292
0.000218878
0.000140525
0.00721575
0.042154
0.000192074
0.000146308
0.000144578
0.000152754
0.000181898
0.000144779
0.000196229
0.0171161
0.000143213
0.0110313
0.0166417
0.032493
0.0349615
0.000169299
0.000242021
0.0672665
0.00575192
0.000219849
0.0375514
0.019439
0.000148322
0.00475289
0.000148317
0.0414648
0.000142741
0.000185277
0.000146739
0.00116889
0.000392582
0.000155007
0.0214393
0.0355422
0.000161449
0.000201019
0.00018538
0.000154673
0.000186246
0.000207259
0.0250948
0.00015748
3.7821e-05
0.0365574
0.0298351
0.00453356
0.04019
0.000140632
0.000143505
0.00515269
0.0229549
0.000222418
0.0376988
0.000220691
0.000156836
0.00802317
0.00224972
0.00018422
0.0134713
0.000182569
0.0141567
0.000150654
0.0206538
0.00015149
0.000187536
0.000185121
0.0400552
0.000185355
0.0392779
0.000152302
0.000144805
0.00760804
0.0402444
0.0324269
0.037149
0.000261071
0.0345046
0.00022301
0.000140524
0.0253184
0.000143843
0.0203438
0.00920421
0.023571
0.000213915
0.000206297
0.000229997
0.000221965
0.0405076
0.000154104
0.0406209
0.0399392
0.00015184
0.00712571
0.00021274
0.000163507
0.000157567
0.000157344
0.00732607
0.000167159
0.000240848
0.0277913
0.000144321
0.000207425
0.000180787
0.0413864
0.038527
0.000187408
0.044489
0.0144886
0.000219885
0.000149804
0.033762
0.0384033
0.000152108
0.000494893
0.0229047
0.0163592
0.000137305
0.0381297
0.000143099
0.000148877
0.000148037
0.0491292
0.0316556
0.00019581
0.0472856
0.000146415
0.000154818
0.000207413
0.000221678
0.018033
0.000158443
0.000165895
0.0269466
0.000220548
0.000145675
0.000144271
0.000201991
0.000145231
0.000186174
0.00107751
0.00866536
0.000223288
0.000153279
0.000182565
0.0276152
0.0242091
0.0372942
0.0486411
0.000152056
0.000171679
0.00457308
0.0311284
0.00639864
0.0352587
0.000159519
0.0275477
0.000163911
0.000186954
0.00805537
0.00019966
0.0391194
0.000161508
0.00108421
0.000155684
0.0397181
0.000141783
0.000203144
0.000143189
0.0380537
0.0272835
0.0001529
0.000145272
0.00501001
0.000142715
0.0382466
0.00614677
0.0212095
0.0322099
0.0258621
0.000145319
0.000179968
0.000157972
0.000187537
0.0374904
0.0216402
0.0188114
0.0421293
0.000176393
0.000258338
0.00015566
0.0168995
0.000200924
0.00013822
0.000147375
0.00719384
0.00014075
0.00592998
0.000140767
0.000140668
0.000139554
0.000193203
0.027337
0.00022493
0.00020083
0.000145128
0.000183602
0.000214534
0.0221152
0.000186287
0.000204507
0.000167257
0.00314835
0.000150048
0.000196859
0.00274795
0.0372123
0.0397956
0.000374448
0.000194319
0.000153677
0.000192065
0.000215807
0.0375143
0.000222435
0.0400453
0.00014079
0.000188491
0.000184303
0.000144364
0.0275852
0.000200119
0.00014448
0.000157749
0.0141882
0.0151024
0.000155261
0.000145399
0.0365752
0.0301175
0.000160752
0.000210497
0.0393844
0.000207192
0.0321471
0.0385249
0.0525662
0.033482
0.0126599
0.000222655
0.0256241
0.000168631
0.0140713
0.0181375
0.05326
0.054484
0.000170997
0.0612014
0.0237878
0.000156953
0.000218487
0.037693
0.000175726
0.0369852
0.0144826
0.000179816
0.0505187
0.00018671
0.0425057
0.00785277
0.000147548
0.000194807
0.0394729
0.000147346
0.000159223
0.000186885
0.00434808
0.0404167
0.000181611
0.0137031
0.000161794
0.000131624
0.000159579
0.000155318
0.000189444
0.000186908
0.000146332
0.000186945
0.00020377
0.00532832
0.0571628
0.0408141
0.0414675
0.000141273
0.000224516
0.000172361
0.00508517
0.000192812
0.0022647
0.0171675
0.0602933
0.000216215
0.000190246
0.00351674
0.00625996
0.000195176
0.000159588
0.000167844
0.0341528
0.000147182
0.000160924
0.00018118
0.0248192
0.00813711
0.0558165
0.000159973
0.0233254
0.000138082
0.000148058
0.000155393
0.000142946
0.000156769
0.00017406
0.0277917
0.000209031
0.000198179
0.057759
0.0421703
0.00568482
0.0253901
0.000190603
0.000357633
0.000214924
0.000160463
0.00209273
0.000240295
7.50894e-05
0.000255297
0.000223309
0.0342592
0.000156768
0.0240977
0.000142733
0.000157081
0.000161386
0.00014641
0.00015194
0.00951612
0.0565323
0.000185483
0.000147914
0.0423092
0.0235964
0.0428051
0.000175476
0.011943
0.00018528
0.0324788
0.000224304
0.00015055
0.0397962
0.000183307
0.000184997
0.000193228
0.0291324
0.00887427
0.0428565
0.000143246
0.0025578
0.000226444
0.0161233
0.000158901
0.000168948
0.000225246
0.000196805
0.0256633
0.0604205
0.000180239
0.0252731
0.043971
0.000197314
0.000187813
0.000217851
0.00019662
0.0302149
0.000167627
0.000226935
0.0690615
0.000157887
0.0429738
0.000140755
0.0597309
0.0383947
0.000157985
0.0179162
0.000216566
0.00018267
0.000222882
0.0353298
0.0548646
0.000204861
0.0374813
0.00015944
0.00017354
0.05845
0.0258494
0.000153035
0.0197886
0.0487364
0.000196516
0.00676275
0.000225917
0.0446508
0.000243725
0.000165341
0.0414049
0.0314196
0.0288949
0.000143328
0.000164982
0.000225481
0.0403034
0.000185357
0.0558185
0.0283678
0.000225953
0.000147593
0.000142893
0.0306349
0.000145365
0.000182435
0.000169969
0.000195033
0.0319731
0.0149342
0.0294965
0.000156302
0.000226087
0.000196255
0.000189825
0.0387629
0.00154855
0.0184375
0.0001596
0.0160207
0.00853828
0.000162972
0.0454182
0.000154533
0.0408039
0.000182831
0.0336625
0.000146167
0.000212534
0.000191453
0.000210461
0.0464928
0.0282207
0.0383837
0.0617799