/*--------------------------------*- C++ -*----------------------------------*\
| =========                 |                                                 |
| \\      /  F ield         | OpenFOAM: The Open Source CFD Toolbox           |
|  \\    /   O peration     | Version:  v2012                                 |
|   \\  /    A nd           | Website:  www.openfoam.com                      |
|    \\/     M anipulation  |                                                 |
\*---------------------------------------------------------------------------*/
FoamFile
{
    version     2.0;
    format      ascii;
    class       volScalarField;
    location    "400";
    object      nut;
}
// * * * * * * * * * * * * * * * * * * * * * * * * * * * * * * * * * * * * * //

dimensions      [0 2 -1 0 0 0 0];


internalField   nonuniform List<scalar> 
14804
(
0.00587323
0.00592098
0.0136654
0.00586154
0.00157158
0.00555934
0.00637111
0.00205038
0.0055552
0.00603959
0.00431148
0.00881564
0.0123866
0.0124909
0.0220495
0.0047354
0.00321469
0.0100007
0.00426028
0.00586316
0.00602216
0.00184914
0.0041234
0.00486675
0.0174902
0.00624879
0.0038273
0.00602601
0.022089
0.0189475
0.0260093
0.00324821
0.00242692
0.00173475
0.0133181
0.00587641
0.00586091
0.00507567
0.00116263
0.00584961
0.000335508
0.0011996
0.00147585
0.00334723
0.0214872
0.0242049
0.00044682
0.00586042
0.00222788
0.00602095
0.00604297
0.00601002
0.00594902
0.00398402
0.00241491
0.00602363
0.00367646
0.00501294
0.0248463
0.0144885
0.00506593
0.0148147
0.00586207
0.00592294
0.00252681
0.00848688
0.0205904
0.00547077
0.00603515
0.00560552
0.00365157
0.00554883
0.00254915
0.00182011
0.0129305
0.00604387
0.0060453
0.00210395
0.00584698
0.00260342
0.00273632
0.00449248
0.00162339
0.0158863
0.00620571
0.00605176
0.00600528
0.00589357
0.00225687
0.00207085
0.0158484
0.00588665
0.00584897
0.00591877
0.00601124
0.0147716
0.00599708
0.0196956
0.00495383
0.00448631
0.0237694
0.0152386
0.00126949
0.00243152
0.00167631
0.0191672
0.00561837
0.00601809
0.00468696
0.00131728
0.00599838
0.00560257
0.00752563
0.00173857
0.00298315
0.0134998
0.000235245
0.00139221
0.00500839
0.00599261
0.0145535
0.00179906
0.00591611
0.00180297
0.00465862
0.00186722
0.00597215
0.00601893
0.00183965
0.0184823
0.00585696
0.0143812
0.00562622
0.0268024
0.00596449
0.0162781
0.000236685
0.00475486
0.0142967
0.0266577
0.00586318
0.00572201
0.0048444
0.00312487
0.000433758
0.00576862
0.000790103
0.00102932
0.0152419
0.00559328
0.0207237
0.00585736
0.00134681
0.000173108
0.00588268
0.00585278
0.02162
0.00286025
0.00605451
0.0163721
0.00600984
0.00604431
0.00603154
0.00566757
0.00256858
0.0184691
0.00602897
0.00600468
0.00333988
0.00271755
0.00601134
0.00283976
0.0166113
0.00574049
0.000678
0.0173293
0.00123115
0.00800316
0.016088
0.00395522
0.00597153
0.00229454
0.00601745
0.0243434
0.0060378
0.0140067
0.0150615
0.0178826
0.027172
0.00607343
0.00601095
0.0141208
0.0125704
0.023568
0.0224482
0.0234358
0.0197378
0.0168901
0.00601018
0.0204864
0.00602651
0.00605765
0.00603141
0.0120733
0.0055039
0.00182641
0.0265868
0.0136061
0.00180935
0.00591975
0.00604405
0.0151501
0.00578133
0.00586797
0.0206306
0.00587031
0.02002
0.00587379
0.000443765
0.0152225
0.00327987
0.0267285
0.00601361
0.00373138
0.0237392
0.00184007
0.0163584
0.00586185
0.0202553
0.00117557
0.00213674
0.0224089
0.00603588
0.00592605
0.0259931
0.00605278
0.0113177
0.0190022
0.00602822
0.0257344
0.00268529
0.00246076
0.0186212
0.0192843
0.00601848
0.00592019
0.00264124
0.00526093
0.00207635
0.00208948
0.0150338
0.0143266
0.00598633
0.00553038
0.00601221
0.00512922
0.0147441
0.0142279
0.0204746
0.0182864
0.00548172
0.0173364
0.00599268
0.00390773
0.00601751
0.00564176
0.00586363
0.00765056
0.0102876
0.00585343
0.00591027
0.000483534
0.00114775
0.00246799
0.00166801
0.0250138
0.00600082
0.00191176
0.00585321
0.0269574
0.00586608
0.021512
0.00603444
0.00280192
0.00603259
0.0187193
0.00477657
0.00706849
0.00602821
0.0185385
0.0032761
0.00189939
0.00433205
0.0129548
0.00524478
0.00317983
0.0140825
0.00592349
0.00175488
0.00592456
0.00571632
0.00297064
0.00603052
0.00230009
0.00602757
0.0198165
0.0211313
0.0059252
0.0142257
0.00310328
0.00600416
0.00587684
0.0178846
0.00587181
0.00164712
0.0061578
0.00295974
0.00596853
0.000841523
0.00600891
0.00572746
0.0045572
0.0110274
0.0262786
0.0059154
0.00599464
0.00324458
0.0147245
0.016001
0.00132753
0.00223854
0.00605699
0.0059188
0.00437353
0.00577271
0.0176901
0.0013654
0.0033795
0.0137614
0.0175482
0.0176873
0.00123511
0.0054818
0.0146097
0.00581429
0.00604622
0.0156185
0.0120186
0.00603999
0.00534591
0.00188814
0.00596446
0.00592171
0.0244112
0.00604919
0.00579559
0.00476451
0.00607382
0.0267016
0.00594105
0.00275031
0.00594765
0.00988268
0.0205204
0.00492308
0.00288041
0.00593605
0.0170146
0.0206979
0.00282334
0.00580431
0.016253
0.00591948
0.0250941
0.00452457
0.0172815
0.0016435
0.00418594
0.00585252
0.00195046
0.00598288
0.00427003
0.0107316
0.00214561
0.00593302
0.00590426
0.00591877
0.0060485
0.0236218
0.00601112
0.0205113
0.00334202
0.00167001
0.00602231
0.00593008
0.0191572
0.000280252
0.0015255
0.00088338
0.00142568
0.00223932
0.00295135
0.0179988
0.0140316
0.000849267
0.00193181
0.00164597
0.00594227
0.00335217
0.00601216
0.00594582
0.00150442
0.00357717
0.0153383
0.0199697
0.00606509
0.00626259
0.00596346
0.0032906
0.00262509
0.0197288
0.00514914
0.00152027
0.0197445
0.00566484
0.00585018
0.00128844
0.00514537
0.0014675
0.00440472
0.00605195
0.00600028
0.0228241
0.0202455
0.00590551
0.0197132
0.00189473
0.00472781
0.00585026
0.022365
0.016719
0.00604072
0.00161824
0.0060095
0.00212819
0.002402
0.0265117
0.00559167
0.00604232
0.0268157
0.000776094
0.0123987
0.0196307
0.000451604
0.0169267
0.00593885
0.0248319
0.00587822
0.00138591
0.00352255
0.0034267
0.00132722
0.00544963
0.0110806
0.00590518
0.00540002
0.00256769
0.0034397
0.0155704
0.00603451
0.00591112
0.00585862
0.0184049
0.0069729
0.00545204
0.00139784
0.00600141
0.000849959
0.00586359
0.0018008
0.00573017
0.0115756
0.0205359
0.000926434
0.0133786
0.00428979
0.0168648
0.00322512
0.0206001
0.0170654
0.0200699
0.0187859
0.00136639
0.025679
0.0231915
0.00598929
0.00603055
0.020831
0.0060403
0.00184308
0.00163111
0.00572724
0.00587589
0.0181856
0.00558147
0.00338257
0.0013585
0.00548712
0.00600763
0.0129682
0.00187817
0.0193905
0.0238996
0.00550963
0.00134896
0.0153183
0.0164964
0.0197042
0.00586218
0.00342733
0.00603026
0.00146593
0.0205751
0.0113389
0.0176622
0.0166091
0.00112062
0.00472988
0.0228935
0.000242071
0.00787515
0.00585317
0.0154151
0.0207573
0.0254561
0.00603266
0.00723412
0.00566468
0.000519268
0.00764353
0.00587614
0.0182436
0.00596393
0.00305898
0.00593567
0.0055758
0.000204152
0.00589656
0.00572396
0.00622212
0.00620312
0.00595809
0.00585952
0.00589718
0.00159259
0.0059359
0.0210574
0.00999859
0.0059339
0.0190768
0.00601159
0.00524456
0.00587546
0.00398916
0.00604078
0.00139635
0.00603722
0.000740731
0.0214653
0.00603368
0.00164887
4.00606e-05
0.0148169
0.00774243
0.00409949
0.00170728
0.0258736
0.0207947
0.00388873
0.00589478
0.021173
0.0059094
0.0017757
0.0215998
0.0179092
0.0175792
0.00589554
0.00594451
0.00585577
0.00598365
0.00384186
0.0059143
0.0210843
0.0195452
0.0193246
0.0227407
0.00237754
0.002912
0.00139347
0.00569157
0.0165523
0.0144374
0.00589333
0.00235714
0.00436137
0.0016939
0.00557318
0.0256454
0.00566994
0.00310744
0.0215298
0.00606372
0.0191481
0.0219396
0.00922437
0.00366304
0.019955
0.0060624
0.023042
0.00597631
0.00148432
0.00100897
0.000346339
0.00714051
0.00547551
0.00556209
0.021484
0.00393189
0.0038971
0.00575515
0.00591186
0.00585853
0.00474646
0.00594395
0.00571534
0.00584778
0.00122076
0.0247937
0.00187644
0.00274792
0.0227234
0.0211311
0.00602606
0.00222896
0.00591612
0.00604619
0.00592224
0.00584873
0.0058611
0.00192423
0.0268856
0.00189672
0.00310266
0.00600087
0.000357533
0.0257322
0.0210718
0.00153692
0.00164879
0.00183051
0.0211818
0.00602028
0.0206916
0.00605007
0.00199439
0.0197262
0.0191981
0.0143246
0.00382153
0.00586263
0.0128612
0.0028484
0.00605164
0.00350005
0.00274102
0.00588835
0.00952362
0.0049683
0.0240123
0.0182675
0.00587168
0.00153876
0.0129407
0.022255
0.00368
0.00601357
0.0202556
0.00596594
0.0059868
0.00421642
0.00590339
0.0109878
0.00607921
0.00563499
0.00135621
0.00599797
0.00549514
0.0200437
0.00178177
0.00192453
0.0059762
0.0171873
0.00588895
0.00605319
0.0200098
0.0052272
0.00373096
0.014089
0.00594602
0.0219497
0.00587823
0.00156102
0.0146257
0.0168202
0.00776039
0.000204095
0.00604643
0.00612676
0.00115226
0.0171399
0.0138733
0.00227935
0.0059583
0.00167898
0.0203505
0.0238561
0.0044212
0.00575321
0.00594372
0.00959125
0.00343222
0.0207439
0.0212445
0.00346814
0.00464583
0.00584951
0.00598692
0.00588643
0.020627
0.00195201
0.00357634
0.0216747
0.00589718
0.00232555
0.0031355
0.00403818
0.00566939
0.0060427
0.0058571
0.00586788
0.00390304
0.00201515
0.00262719
0.00243547
0.01072
0.00204595
0.022448
0.00589681
0.0155145
0.0060392
0.00328534
0.00594347
0.00419322
0.019802
0.0035297
0.00888403
0.0059786
0.00595882
0.0145361
0.0211892
0.00437823
0.00432505
0.00600201
0.00589583
0.0105921
0.00375573
0.00172129
0.00604478
0.000526069
0.006509
0.0100815
0.00601571
0.0060201
0.0156305
0.00287003
0.0164301
0.0200409
0.00465275
0.00593505
0.0211907
0.000788927
0.00327591
0.00597575
0.00545076
0.00586412
0.0018329
0.0204314
0.0130846
0.0059002
0.00595908
0.00694513
0.00593999
0.00593047
0.0193885
0.00584632
0.00356551
0.00591527
0.00124574
0.00605344
0.00284281
0.0219876
0.0059331
0.0237725
0.00339692
0.0131355
0.00585349
0.00605026
0.0182288
0.0232956
0.0196399
0.00509553
0.0130222
0.00549886
0.0060238
0.0152467
0.00585834
0.00587091
0.00588021
0.00587334
0.0197429
0.00604239
0.00432461
0.000828034
0.00586318
0.0201429
0.00569682
0.0180873
0.00586112
0.00210829
0.0214882
0.00785326
0.0214876
0.00602537
0.0202454
0.00359221
0.0207342
0.00589765
0.00347688
0.00522547
0.0059781
0.00598464
0.00590009
0.0174939
0.0137923
0.0052872
0.00175367
0.00605901
0.00295732
0.00811183
0.000428471
0.00466113
0.00213117
0.0149033
0.0140969
0.00588607
0.00590515
0.0135654
0.00379762
0.0205291
0.0108936
0.0038059
0.00356326
0.006069
0.0203533
0.00592345
0.00598939
0.00185036
0.0162313
0.00593608
0.00605201
0.00591852
0.00586642
0.00181696
0.00602986
0.00584953
0.0208669
0.0230998
0.00142466
0.0205118
0.00426084
0.00588249
0.00345677
0.0160027
0.00571177
0.00331754
0.0205057
0.00597257
0.00139008
0.0139944
0.00265618
0.005934
0.00584675
0.00401805
0.00596444
0.00145863
0.00389255
0.00540308
0.0211848
0.0223835
0.0029653
0.00199911
0.00588581
0.0154971
0.00417433
0.00424791
0.0189586
0.0204853
0.00587867
0.00139707
0.00486055
0.00594897
0.00516275
0.00560915
0.00551928
0.00905401
0.0159347
0.00191344
0.00456111
0.00600756
0.00604338
0.00593809
0.00602522
0.00369641
0.00603172
0.0244192
0.00734431
0.00566549
0.00883691
0.0266503
0.0112057
0.00218235
0.00559219
0.0233089
0.0152927
0.00835889
0.00403679
0.00241992
0.0019607
0.0199285
0.00302667
0.00609745
0.00598575
0.00612161
0.0109144
0.00273628
0.00566627
0.00389114
0.00887437
0.0167915
0.00606894
0.0013788
0.0111826
0.00589411
0.00605427
0.00374952
0.0055861
0.0060164
0.00604106
0.00661957
0.00554488
0.0248757
0.0120422
0.00348463
0.00126516
0.00126565
0.0222426
0.00585705
0.00621893
0.00164174
0.00864952
0.00599938
0.0101573
0.0209147
0.0262845
0.00590049
0.00120245
0.0115133
0.00204342
0.00271087
0.00191004
0.0031488
0.00489575
0.0117681
0.0106567
0.00601065
0.00458072
0.00583561
0.00280507
0.0153066
0.00419131
0.00606437
0.00901361
0.000718447
0.00591467
0.0223029
0.00241018
0.0203013
0.00599412
0.00347194
0.00307119
0.00604691
0.00243082
0.00595419
0.0016615
0.00252916
0.0204139
0.00593164
0.00207551
0.00181526
0.00598806
0.0195607
0.00586199
0.0201448
0.00174786
0.00273351
0.0209513
0.0119075
0.0058601
0.00589581
0.00535387
0.00599942
0.0041652
0.00525632
0.00613728
0.0169858
0.00182615
0.00584536
0.0058479
0.00508652
0.00136755
0.00589644
0.00584981
0.00592164
0.00595336
0.00347619
0.00125268
0.00424091
0.00182274
0.0141225
0.0202434
0.0263799
0.0220076
0.00500543
0.00426759
0.00824997
0.00073877
0.00586856
0.00592053
0.00593556
0.000841631
0.0225129
0.00493476
0.00516604
0.00603456
0.00416055
0.00425484
0.00166708
0.00131855
0.00604803
0.00563317
0.00595418
0.00591994
0.00175394
0.00603903
0.00297218
0.00584793
0.0195695
0.00402641
0.00337298
0.00604502
0.00723563
0.0157324
0.00605175
0.00600702
0.0015647
0.00585086
0.00247511
0.00137213
0.00166737
0.00586011
0.0027009
0.00583863
0.00152494
0.00594975
0.023229
0.0110602
0.00170988
0.0196174
0.0164889
0.00604502
0.0014419
0.0138629
0.0250299
0.00158686
0.00219877
0.0201124
0.0146499
0.0115779
0.00592999
0.00552889
0.00155577
0.00400678
0.00142348
0.00557006
0.00691591
0.00435123
0.00364965
0.0035049
0.01182
0.00367304
0.0134897
0.0218293
0.0237308
0.00121326
0.00535362
0.00599832
0.0206417
0.00577166
0.0114965
0.0018405
0.00596953
0.0122606
0.0058512
0.00331611
0.00589705
0.00602682
0.0133309
0.0060564
0.00592605
0.00602943
0.00440109
0.00600548
0.00850431
0.00604691
0.0196131
0.0203529
0.00594439
0.00180055
0.0209156
0.0223506
0.00603504
0.00604757
0.00587962
0.0193972
0.00601568
0.00309594
0.00236351
0.00599866
0.023178
0.0105973
0.0172571
0.00468315
0.00183924
0.00592547
0.013081
0.00588086
0.020458
0.00607254
0.0222868
0.00572071
0.00594644
0.00597589
0.00321971
0.00977654
0.00243346
0.00121293
0.00397912
0.0215899
0.0179605
0.0128114
0.00425889
0.00547968
0.000654856
0.00600413
0.00122999
0.00527047
0.00286774
0.0230665
0.00587587
0.00379022
0.0217023
0.0128981
0.00462958
0.0059107
0.00586415
0.00605042
0.0161651
0.00272255
0.0230939
0.00167648
0.0221599
0.0146163
0.0224262
0.00968278
0.0216825
0.00264149
0.0182044
0.0213549
0.0206186
0.00296485
0.00543662
0.00321031
0.00361276
0.00456366
0.0180997
0.0209765
0.00588997
0.016985
0.00485293
0.0127688
0.0206547
0.00509132
0.00597638
0.00587851
0.0182036
0.00589504
0.00592318
0.00600479
0.00265423
0.00600154
0.00878056
0.00121886
0.0194911
0.00593513
0.0226054
0.00593426
0.00789041
0.00589222
0.0163078
0.0191355
0.00591295
0.00329816
0.005974
0.0155949
0.0201877
0.0036585
0.00536441
0.00597055
0.00592631
0.00203978
0.0023035
0.00517484
0.00367037
0.00189126
0.00519674
0.00183236
0.000365377
0.00978605
0.00392005
0.000809241
0.00965548
0.00177027
0.00435636
0.00602713
0.00974713
0.00603524
0.0208291
0.00136828
0.00584966
0.00595381
0.00585927
0.0104962
0.00288791
0.0160611
0.0114481
0.0058684
0.0197705
0.0188152
0.00402632
0.0111554
0.00600333
0.00596994
0.00604869
0.00382774
0.0014852
0.00605951
0.00236187
0.00599515
0.00148009
0.00646386
0.00599031
0.0076649
0.00426674
0.01741
0.00219725
0.00530264
0.00178279
0.00412118
0.0058816
0.00587142
0.0165469
0.00140309
0.00519682
0.00594041
0.0135645
0.00595556
0.0153475
0.00575811
0.00344893
0.005852
0.0059074
0.00590352
0.00594488
0.01961
0.0167466
0.0215537
0.00425696
0.00157965
0.0172523
0.00569816
0.0215877
0.020763
0.000502538
0.00587111
0.00137552
0.00597521
0.0229808
0.0124582
0.00202147
0.00847793
0.0131163
0.00181093
0.00811786
0.00595035
0.00600257
0.0076235
0.00566174
0.0060564
0.00800855
0.0132225
0.0187396
0.00585925
0.00137611
0.0145417
0.021215
0.00589727
0.00896481
0.00595575
0.00598659
0.00460127
0.0158929
0.00588705
0.00238325
0.00127659
0.0235621
0.00601439
0.00488676
0.00589256
0.0261878
0.00569124
0.00247589
0.00586085
0.00550403
0.00838113
0.00592086
0.0269002
0.00187533
0.00287202
0.0168384
0.00209813
0.0176907
0.0058946
0.00459318
0.0210036
0.000884035
0.0070627
0.00180409
0.00605925
0.00599836
0.00167328
0.0060069
0.00938468
0.0140506
0.00588635
0.020626
0.00605271
0.0208064
0.0225562
0.00142011
0.00232727
0.00165555
0.0185153
0.0215755
0.00532855
0.00280562
0.00603394
0.022606
0.0100423
0.00286679
0.00599694
0.00603044
0.00211367
0.0141992
0.0196332
0.0155975
0.00591284
0.00586058
0.0157753
0.00318387
0.00600358
0.00601902
0.0118321
0.0212314
0.00598287
0.00565559
0.00601443
0.0024907
0.0035935
0.00590374
0.00603051
0.00590317
0.0188344
0.0233887
0.019664
0.0120228
0.00242127
0.00605529
0.00601195
0.00134174
0.0014275
0.0222506
0.00287027
0.0062309
0.0221805
0.00439607
0.00605107
0.00594168
0.00597541
0.00140584
0.0227142
0.0171498
0.00133305
0.00128199
0.00155032
0.00221267
0.00419186
0.0229068
0.00305251
0.00589883
0.00606234
0.00607156
0.00282786
0.020546
0.00404409
0.00447321
0.00592923
0.00629072
0.00137288
0.00298166
0.000567154
0.00593507
0.00323407
0.0193599
0.0250002
0.00190897
0.0121261
0.0203224
0.00585313
0.00341902
0.00693286
0.0268237
0.00588327
0.00229385
0.0058597
0.0113578
0.00344593
0.0159202
0.00598053
0.0193504
0.0115572
0.00585803
0.00189032
0.00048783
0.0260358
0.00311753
0.00181514
0.0178108
0.00588247
0.0190892
0.0011979
0.00601813
0.00210289
0.00412949
0.0174619
0.00650886
0.0014269
0.0190801
0.00597275
0.00599052
0.00590804
0.00545154
0.00396904
0.000234804
0.00551485
0.0095315
0.0100709
0.0150633
0.0166427
0.00184548
0.00864661
0.00179873
0.00409707
0.00605247
0.0060605
0.00215964
0.0013029
0.021787
0.00593272
0.0060467
0.0058679
0.00610764
0.00587212
0.00122193
0.0212438
0.00604536
0.00586706
0.00588003
0.00186076
0.0213478
0.00600369
0.0150553
0.00588394
0.0122362
0.00123631
0.00605385
0.0203415
0.00684856
0.0230856
0.000912264
0.0240847
0.00557789
0.00545532
0.0218232
0.00246449
0.00597207
0.00378636
0.0101711
0.00165636
0.00347154
0.00594555
0.00604412
0.0142667
0.00954751
0.00134808
0.0138877
0.00647227
0.00166721
0.0203728
0.00807716
0.0143702
0.00291411
0.00588323
0.00601729
0.00499605
0.00309213
0.00734249
0.0247153
0.00605964
0.0013626
0.00888812
0.00264567
0.00199788
0.00602721
0.00271124
0.0209197
0.0215384
0.00251741
0.00193634
0.00260638
0.00594167
0.00162228
0.0182905
0.00405378
0.00145729
0.00580794
0.00132497
0.00547241
0.00620586
0.00585737
0.00252258
0.00597136
0.00214798
0.00134997
0.0131247
0.00607693
0.00366796
0.00581138
0.0121967
0.0205685
0.00185701
0.00605455
0.00127124
0.00600132
0.00174405
0.0215112
0.00804898
0.00199345
0.0225555
0.00587338
0.0129235
0.024584
0.00561684
0.00239466
0.0159766
0.000635571
0.0059343
0.00536757
0.00599684
9.08127e-05
0.0120326
0.00587245
0.00772456
0.00328883
0.00604273
0.00596478
0.0193139
0.000865412
0.00584621
0.0061006
0.00299928
0.0225407
0.0060273
0.0059956
0.0230381
0.012786
0.00133481
0.00431649
0.00226369
0.0126685
0.00115884
0.00138237
0.00456581
0.00143868
0.00201282
0.00514199
0.00585986
0.00505214
0.0170117
0.00586976
0.0207178
0.00214894
0.00605985
0.00603656
0.00777693
0.00169264
0.00591638
0.005434
0.00564659
0.00484166
0.0114535
0.00506197
0.00349265
0.0244382
0.00187637
0.00599281
0.0061403
0.00290521
0.00219044
0.0247876
0.00605921
0.0058677
0.00489216
0.00605012
0.0242688
0.0225972
0.00569555
0.00547443
0.0032923
0.00520317
0.00259103
0.00369341
0.0202774
0.00240824
0.00586473
0.00349364
0.00256668
0.0017479
0.0024813
0.00131891
0.00146524
0.00474012
0.0160793
0.00108196
0.00271702
0.00364091
0.00161728
0.00188898
0.00596369
0.0028247
0.00329756
0.00429554
0.0161554
0.0130609
0.00936152
0.00654096
0.00364534
0.00228422
0.00140734
0.00149234
0.023247
0.00593313
0.0043629
0.0122859
0.00135751
0.0208145
0.00163158
0.00406848
0.0219436
0.0098178
0.00729174
0.003475
0.00139804
0.00259988
0.0227064
0.0156618
0.0135891
0.00606031
0.00246857
0.00128799
0.00444427
0.00182046
0.0017312
0.00246858
0.0025152
0.00163747
0.018798
0.0154229
0.00451886
0.00140248
0.0143145
0.0123539
0.00221308
0.00452869
0.00223466
0.0175453
0.00578746
0.0202077
0.00598066
0.00585099
0.00588146
0.00601307
0.00166703
0.00605893
0.00585903
0.00187188
0.00601232
0.0059945
0.0144423
0.00481632
0.00826336
0.0197853
0.0042896
0.00210237
0.00130305
0.00551801
0.0060541
0.00587492
0.00617142
0.00317473
0.00603094
0.00604885
0.00566715
0.00148448
0.00396875
0.0090291
0.00156364
0.00603388
0.00396267
0.0180243
0.00564226
0.0060393
0.00244748
0.0129785
0.0107137
0.00478051
0.0206887
0.00364842
0.00934928
0.00145953
0.01454
0.00598542
0.00493743
0.00575878
0.00586209
0.00600989
0.00317704
0.00149624
0.00601646
0.00164057
0.00593849
0.00125892
0.0037232
0.00585441
0.00613567
0.00181736
0.0230319
0.00590573
0.0166442
0.00601673
0.00271616
0.00588317
0.00600279
0.00052594
0.00602686
0.00270543
0.00597101
0.00594057
0.00221124
0.00293181
0.00554438
0.00586998
0.0265609
0.0220967
0.00550632
0.0161919
0.0201289
0.00453387
0.0120424
0.016054
0.0241835
0.00578139
0.00138077
0.00566632
0.00163118
0.0153038
0.0060595
0.00163714
0.00601155
0.00149317
0.0022535
0.0193344
0.0023051
0.00539208
0.0114255
0.00285494
0.00147242
0.00228714
0.00605307
0.000455635
0.0140351
0.00491553
0.00160412
0.00929029
0.00351768
0.0059285
0.00596858
0.00209779
0.0096254
0.0120194
0.0206522
0.00594624
0.00175796
0.0058678
0.0138486
0.0188896
0.00516658
0.0146246
0.00774676
0.00590429
0.010764
0.00532023
0.00596412
0.00340172
0.00212193
0.000381781
0.000449021
0.0207892
0.0123768
0.00179156
0.00514351
0.00375308
0.0173253
0.00317151
0.00600909
0.0154315
0.00524052
0.00775903
0.0058683
0.00591295
0.00615674
0.0234427
0.00588634
0.012334
0.00238762
0.00148028
0.00188117
0.0222707
0.00636515
0.0250373
0.01025
0.0196141
0.0199154
0.00148204
0.00586665
0.00217785
0.00370477
0.0111419
0.00365992
0.0058785
0.00591537
0.00727351
0.00127029
0.00228045
0.00179142
0.00603308
0.00585864
0.00120121
0.00600013
0.00475258
0.00585556
0.0223663
0.00613958
0.00605
0.00919831
0.00194384
0.00193205
0.00586945
0.0240237
0.00165287
0.00538294
0.00272542
0.0109226
0.012801
0.00601528
0.00609259
0.00612878
0.00375665
0.00727498
0.00565536
0.00745223
0.00589763
0.00173128
0.00527266
0.0201405
0.0121024
0.0221538
0.0037635
0.00591538
0.00399012
0.00378552
0.0210594
0.00122893
0.00660787
0.00598275
0.0194131
0.00763616
0.00601138
0.00538931
0.00161032
0.012115
0.00602806
0.00538941
0.00651733
0.00599663
0.00342987
0.0041822
0.00806792
0.00581887
0.00304493
0.00591074
0.00751391
0.0069576
0.00774079
0.00220235
0.0271022
0.0210559
0.00604646
0.00129956
0.0046686
0.00605631
0.0178304
0.00128073
0.00193064
0.0059674
0.0235362
0.00568083
0.00263447
0.0026912
0.00602721
0.00163028
0.00144437
0.0150406
0.0205179
0.00601639
0.00226089
0.0029579
0.00419611
0.0133506
0.00603713
0.00345427
0.0153409
0.0167156
0.00776812
0.0157695
0.00182141
0.0239685
0.00570456
0.0188907
0.00251113
0.00205396
0.00169373
0.00585367
0.0143777
0.0218415
0.00355345
0.0144471
0.0179523
0.00309283
0.00541978
0.0157485
0.0117396
0.020305
0.00798568
0.0181422
0.00120899
0.0010336
0.00236447
0.00603495
0.00779922
0.00531724
0.00606045
0.0158905
0.00367173
0.00191523
0.00602428
0.00745849
0.0201073
0.00423179
0.00494673
0.00886072
0.00569297
0.0106735
0.0195015
0.0229962
0.00376049
0.0047599
0.00487554
0.00129789
0.00563582
0.00676732
0.00232098
0.00168316
0.00791167
0.00278762
0.00497035
0.0152982
0.0060109
0.00588505
0.00320468
0.00141438
0.00448079
0.019688
0.00584639
0.0225506
0.00562512
0.00484442
0.00486572
0.00427623
0.00606257
0.00108913
0.0196732
0.00570357
0.0060507
0.0222824
0.00222586
0.00595031
0.00352951
0.00330374
0.00181658
0.0214497
0.0013429
0.00714571
0.0188945
0.00140545
0.0261865
0.00594318
0.00421552
0.00187927
0.0171574
0.013728
0.0016661
0.00605739
0.00137268
0.00370978
0.0120313
0.0203603
0.00820276
0.00289172
0.0148571
0.0143809
0.00603944
0.00836131
0.000407867
0.00593745
0.00598965
0.00347675
0.00600391
0.00135852
0.00592535
0.00216122
0.00163038
0.00601704
0.00602866
0.00141878
0.00888228
0.00598174
0.0201861
0.0202605
0.0013829
0.0173601
0.00811289
0.00596982
0.00842998
0.00304259
0.0060643
0.0108613
0.00459276
0.00170356
0.00378142
0.00589965
0.00597344
0.0202059
0.00545923
0.015852
0.00366121
0.0035925
0.00597971
0.00168125
0.0136607
0.0113466
0.00602487
0.00406784
0.0146147
0.0036126
0.00315256
0.0146205
0.00149559
0.00586045
0.00610391
0.0183483
0.00283583
0.00599982
0.00590144
0.00604161
0.00256525
0.00596709
0.00215315
0.00585201
0.00591908
0.00552695
0.00585801
0.0113839
0.017159
0.00409029
0.00121814
0.0224806
0.0203755
0.0015728
0.0271918
0.00804315
0.00597894
0.0194472
0.00605434
0.02023
0.00587336
0.00190609
0.00591398
0.00501229
0.00352997
0.00352971
0.0058803
0.0205387
0.00568607
0.00192766
0.00240578
0.00522709
0.00211678
0.00207015
0.0113168
0.00550301
0.000118876
0.0207501
0.0248993
0.00436772
0.0173526
0.00585991
0.00584965
0.017377
0.00929696
0.00139483
0.0212304
0.00147288
0.00476283
0.0185979
0.00752114
0.00362844
0.0212868
0.0024658
0.00738308
0.00594373
0.00779743
0.00601011
0.00345363
0.00184385
0.0242322
0.00359578
0.0210722
0.00573612
0.00589965
0.0208944
0.0131339
0.0123389
0.0237198
0.00133769
0.0184285
0.00140024
0.00586027
0.0075542
0.00599032
0.00823067
0.00665442
0.00943896
0.00112025
0.00163222
0.00124343
0.00141235
0.0174623
0.00604943
0.0195599
0.0197255
0.00601322
0.00559858
0.00168111
0.00455394
0.00592204
0.00553169
0.00461388
0.00486561
0.00127349
0.0130428
0.00589405
0.00203886
0.00402351
0.0203162
0.0126345
0.000584488
0.0190441
0.00672244
0.00114204
0.00602398
0.0214677
0.0181027
0.00600277
0.00438715
0.00959404
0.00810954
0.00591234
0.0197144
0.00601356
0.00597855
0.00596095
0.0217214
0.0132569
0.0019705
0.020955
0.0060459
0.00506452
0.00165531
0.00143296
0.0030546
0.00333918
0.00599443
0.00783978
0.00145755
0.00587026
0.0059973
0.00219845
0.00591683
0.00136339
0.0045457
0.00593473
0.0013928
0.00567851
0.00184179
0.0123892
0.0118152
0.0177728
0.020508
0.00601285
0.00450365
0.0105675
0.0202608
0.0198348
0.0121278
0.0060076
0.0132852
0.0016927
0.00350881
0.00511359
0.00170766
0.0183188
0.00564316
0.00106119
0.00553633
0.0208568
0.00589393
0.00194865
0.00596894
0.0179979
0.0204839
0.00607056
0.00575881
0.00366917
0.00588504
0.0166618
0.0202768
0.0206844
0.0161269
0.0151232
0.00592168
0.00409315
0.0025878
0.00157063
0.0170855
0.00579115
0.0213755
0.0189292
0.00439943
0.00226472
0.00397902
0.0063403
0.00186291
0.00586324
0.00594364
0.01373
0.00588747
0.00488285
0.00596054
0.00602749
0.00601377
0.000728543
0.0132107
0.0013659
0.00274429
0.00587949
0.00345892
0.00162735
0.00863994
0.00219836
0.00222349
0.00178942
0.00207143
0.0058781
0.00180539
0.00795743
0.018552
0.0185188
0.00345428
0.00186493
0.00606356
0.00186203
0.00159413
0.0267051
0.00141821
0.0252566
0.00590082
0.00293226
0.00189964
0.0058979
0.0125806
0.00192157
0.00589332
0.00589372
0.00190698
0.00823794
0.00600586
0.00590924
0.020814
0.018098
0.00566313
0.00180262
0.0199935
0.0020614
0.0113662
0.017838
0.020029
0.0151933
0.00166529
0.001407
0.0110073
0.00471666
0.0172978
0.0105039
0.0211581
0.0192882
0.00490742
0.0193554
0.00907126
0.00492384
0.00359896
0.0178951
0.000985463
0.0173448
0.00946381
0.00386039
0.0197752
0.0061297
0.018138
0.00616917
0.00595026
0.001979
0.0184265
0.00590771
0.00412978
0.00184984
0.0125649
0.018699
0.00193957
0.0065574
0.00391714
0.0058539
0.00615116
0.00599842
0.00191153
0.00239001
0.00595186
0.00137671
0.0018568
0.00359281
0.018744
0.0188169
0.0190037
0.00589084
0.00137001
0.00443426
0.00949111
0.00185283
0.00513631
0.0031126
0.0218663
0.00158123
0.00189376
0.00165061
0.00494364
0.00182126
0.00341038
0.00177502
0.0113405
0.00592549
0.00348523
0.00610754
0.00925681
0.00705149
0.0199966
0.00602583
0.00655557
0.00585831
0.00600629
0.00371647
0.00591973
0.00595424
0.000995854
0.0139514
0.00144259
0.00194988
0.0183933
0.0192059
0.0199134
0.0245299
0.00166924
0.00434979
0.0016252
0.00568271
0.00141872
0.00115447
0.000228819
0.00129461
0.00139424
0.0192083
0.00595525
0.00954051
0.00585876
0.0041935
0.00387065
0.00561451
0.00606815
0.00765135
0.0190736
0.00160033
0.00596407
0.0204187
0.0080169
0.0182149
0.00180783
0.00523863
0.00365271
0.014935
0.00137782
0.00584145
0.0200278
0.00162287
0.00191471
0.00195129
0.0176373
0.00747061
0.0194089
0.00601935
0.00426434
0.00157086
0.00613777
0.00249603
0.00310839
0.00135602
0.00171808
0.00849638
0.0195811
0.0040761
0.0074353
0.01972
0.00212602
0.00191989
0.00149709
0.0016913
0.0170371
0.00330655
0.00131681
0.022643
0.00571998
0.0136357
0.00589063
0.0185803
0.0132986
0.0029355
0.00661786
0.00157046
0.00356455
0.00139721
0.0147214
0.0226394
0.00261911
0.0252393
0.00432049
0.00221628
0.0185493
0.019933
0.00596885
0.00709536
0.0148819
0.00161559
0.005445
0.00144943
0.0199278
0.00120864
0.00274169
0.0135751
0.0107945
0.0105838
0.00592805
0.0025619
0.00135494
0.0247973
0.001553
0.0227973
0.0148548
0.00134167
0.00605939
0.00591522
0.0208941
0.00602891
0.00232475
0.00163127
0.00353123
0.016055
0.0184293
0.0106995
0.00373986
0.0013393
0.00156206
0.00320321
0.017916
0.00314227
0.021718
0.00565148
0.00981571
0.0161724
0.00236692
0.0201409
0.00595956
0.0241855
0.00260286
0.0140467
0.00604723
0.00170617
0.00287694
0.0018631
0.020421
0.0153419
0.0203736
0.0186043
0.00589771
0.00500907
0.00364622
0.00846077
0.00231367
0.0196108
0.00585894
0.0196525
0.00779108
0.00204232
0.0167892
0.0192837
0.00520266
0.0119022
0.00189007
0.00552467
0.005853
0.00120579
0.00150487
0.0198863
0.00589093
0.0145384
0.00600583
0.00258663
0.0214405
0.00146391
0.00757651
0.0134019
0.00418117
0.0032914
0.0082882
0.00590428
0.00586479
0.00598225
0.00142623
0.00224321
0.0202252
0.00111302
0.00751191
0.00590415
0.0206329
0.00396548
0.0113541
0.00747293
0.00138537
0.0184331
0.0180822
0.00244247
0.0189642
0.0207594
0.0015588
0.00179214
0.00297476
0.00601301
0.00607258
0.00383077
0.00132396
0.00216533
0.00175164
0.0124313
0.00165454
0.0021397
0.00858165
0.00585485
0.00285676
0.00802739
0.0207983
0.0129454
0.00890959
0.00391163
0.00556591
0.00545688
0.0183539
0.00448055
0.025286
0.00599385
0.00597502
0.00122384
0.00584694
0.00132554
0.00178476
0.00236345
0.00191732
0.014578
0.0146566
0.0210151
0.0192518
0.00585835
0.0136934
0.00158404
0.00200891
0.00181483
0.0176922
0.00131481
0.00946061
0.0180195
0.00131001
0.00156002
0.0203179
0.00600408
0.0215232
0.018321
0.00371581
0.00575458
0.0235283
0.00262352
0.00595837
0.0015852
0.00176872
0.0248651
0.00576917
0.00973529
0.0202952
0.00600125
0.00589698
0.0244398
0.00228296
0.013394
0.00300808
0.00591943
0.00399693
0.00158332
0.0211619
0.00178085
0.0136943
0.00380744
0.0208648
0.00156685
0.0059975
0.00968173
0.00590282
0.00247119
0.00210461