/*--------------------------------*- C++ -*----------------------------------*\
| =========                 |                                                 |
| \\      /  F ield         | OpenFOAM: The Open Source CFD Toolbox           |
|  \\    /   O peration     | Version:  v2012                                 |
|   \\  /    A nd           | Website:  www.openfoam.com                      |
|    \\/     M anipulation  |                                                 |
\*---------------------------------------------------------------------------*/
FoamFile
{
    version     2.0;
    format      ascii;
    class       volScalarField;
    location    "400";
    object      omega_0;
}
// * * * * * * * * * * * * * * * * * * * * * * * * * * * * * * * * * * * * * //

dimensions      [0 0 -1 0 0 0 0];


internalField   nonuniform List<scalar> 
14804
(
0.0225285
0.0240333
2.55702
0.0235764
0.0376926
0.0293792
3.75086
0.044138
0.0272217
0.0232032
0.0437492
1.4512
0.229423
1.33288
2.28821
0.0272846
5.91584
1.33891
0.0273234
0.0225117
0.0239475
0.0376971
0.0421669
0.0280252
0.744931
3.74046
5.07233
0.0245965
2.30176
2.02389
1.55899
5.89382
0.0322542
0.0442093
3.19543
0.0236351
0.0241361
0.0278304
0.190992
0.022431
0.243652
0.204323
0.148046
0.0268996
1.33675
1.58491
0.248281
0.023575
0.0915664
0.0239195
0.024845
0.0263293
0.024604
0.0439848
0.0325857
0.0245613
5.14919
4.51468
0.968627
0.24269
4.49827
3.16113
0.0224739
0.0239537
0.0281922
1.41788
0.459757
0.0288129
0.0233149
0.0290118
0.0303666
0.0282525
0.0280999
0.0610227
2.5173
0.0248295
0.0253466
0.0802819
0.0222645
0.0754821
0.0711594
0.0376372
0.0609423
2.19864
0.0269827
0.0254073
0.025688
0.0238478
0.0373673
0.0371079
1.92729
0.0238183
0.0224317
0.0246003
0.0236043
2.12397
0.0257301
1.36419
0.0306102
0.0376954
1.56994
2.2768
0.191036
0.0283859
0.119829
0.734633
0.0288786
0.0261068
0.0308013
2.62019
0.0258662
0.028983
3.00196
0.0540156
0.0335432
2.71353
0.353657
0.161318
0.0276256
0.0230628
2.55038
0.116813
0.0245944
0.0639881
0.027661
0.0561708
0.0248185
0.0248954
0.042858
2.03162
0.0228559
2.12355
0.0267387
1.44405
0.0245095
1.86931
0.575176
0.0342605
2.55671
1.07158
0.0241497
0.0261138
0.033489
0.0270247
0.290916
0.0270821
0.177917
0.187275
2.2791
0.0290384
0.458537
0.0228786
0.185076
0.373575
0.0225645
0.0228785
0.749855
0.0287199
0.0254711
2.22075
0.0246657
0.0235709
0.0250051
0.0264894
0.033775
1.59216
0.025259
0.0236323
0.0695575
0.0286259
0.0246594
0.0279495
2.43226
0.0272484
0.536723
2.24672
1.04999
1.45956
2.43982
0.123188
0.0244813
0.0884663
0.0249432
0.978309
0.0237811
2.63134
1.89738
2.27901
1.40383
0.025763
0.0254191
3.06423
1.70465
0.690864
1.79269
1.41733
1.98757
2.31126
0.0249266
2.08904
0.0249005
0.0249561
0.023646
2.98185
0.0298209
0.115017
1.50452
0.754793
0.0627452
0.02458
0.02616
2.65862
0.0257659
0.0235942
2.13364
0.0246854
0.236959
0.0247015
0.200652
0.750994
0.0579307
1.29573
0.0260183
0.100596
2.61342
0.113923
2.28284
0.0246169
0.472297
1.03018
0.0821335
1.78437
0.0249785
0.0246093
1.20374
0.0253781
2.83747
1.99679
0.0254116
1.06567
3.15646
0.0798261
1.54101
2.35985
0.0266031
0.0239791
0.0655595
4.43134
0.0396237
0.0292594
2.84334
2.25193
0.0243899
0.0292033
0.0262218
0.219918
2.25544
2.97079
2.10571
2.37922
0.0295366
0.748623
0.0252073
0.0445021
0.025363
3.91895
0.0243922
0.268649
2.60211
0.0224591
0.0245968
0.200431
0.188424
3.4812
0.0848619
1.26888
0.0256089
0.0873729
0.0224362
1.25827
0.024408
2.63326
0.0249416
0.0570754
0.0254077
2.30988
0.0280368
3.5915
0.0247437
2.30649
5.41266
0.0877953
0.151392
3.12174
0.0278246
0.0338673
2.99959
0.0249051
0.0359164
0.023813
0.0260262
0.0653164
0.0247401
0.0827682
0.0258621
1.47382
0.427164
0.0245766
1.93604
0.0614969
0.0259858
0.0247009
2.87047
0.0236155
1.48149
0.0256281
0.0651519
0.0248938
0.199113
0.0254074
0.025963
0.0268065
2.79041
1.35565
0.0246107
0.0237918
0.0585923
2.74039
3.05502
0.063844
0.0906798
0.0244292
0.0248936
4.76657
0.0269238
2.33534
0.0858
5.66231
2.60046
2.33763
2.27751
0.174806
2.24108
2.71785
0.0255455
0.0252868
1.96337
1.73637
0.0250634
0.0283015
0.0579802
0.0228861
0.0236399
1.56216
0.0243488
0.025507
1.62717
0.0274648
1.3995
0.0249102
0.0711323
0.0243533
2.17929
2.4475
4.49353
0.0677473
0.0248877
1.80631
2.41297
0.0692118
0.0254604
2.21886
0.0246788
0.892402
0.0369952
2.67995
2.6158
0.0550954
0.0242808
0.106602
0.0253141
0.0460099
2.38856
0.0290966
0.0246014
0.0233432
0.0236215
0.0243345
2.5391
0.026211
2.67756
0.0565379
0.0397691
0.0253724
0.0246016
2.35142
0.302073
0.0490577
0.342722
0.118459
0.0344754
0.0642676
2.28393
3.02776
0.207959
0.0396642
0.130254
0.0240889
0.0553479
0.023845
0.0247073
0.0850377
5.61362
2.26629
0.443266
0.0243606
1.19476
0.0246615
0.0305761
0.0346472
1.47402
0.0282764
0.143939
1.83527
0.0277673
0.0246169
0.179384
1.17742
0.0842621
0.0273606
0.0249865
0.0230728
0.870847
2.07733
0.0267608
1.85521
0.0940603
1.1817
0.0245971
2.95157
2.3162
0.0254931
0.132702
0.0260777
0.0524264
0.0824291
1.28846
0.0282533
0.0249525
1.4681
0.183151
1.18859
2.84831
0.269306
2.24468
0.0244687
1.31155
0.0235329
0.163393
0.0530034
0.0338682
0.0643427
0.0294095
1.5433
0.0246025
2.63661
0.0544089
0.0545288
2.19113
0.0255724
0.0246175
0.0235696
2.3033
3.22024
2.32573
0.0857333
0.0231091
0.196178
0.0250561
0.116319
0.0280902
2.33392
2.07353
0.177606
2.57772
0.0605123
1.83418
0.0264979
2.46748
2.31178
3.00867
2.3162
0.169015
0.936854
2.49805
0.0239244
0.0238511
0.603974
0.0237913
0.037122
0.0471538
0.0280792
0.0249903
2.37788
0.0292193
0.0547485
0.170822
0.0291242
0.0231172
3.01873
0.0941591
2.98256
0.86826
0.0280576
0.0861503
1.18528
2.22643
3.03162
0.0244262
0.0545702
0.0252103
0.127208
2.09036
2.18638
2.27187
2.23194
0.178134
4.05378
2.44571
0.916685
0.260357
0.0228717
2.27392
1.48898
0.981434
0.0259557
0.266537
0.0285543
0.299566
3.07867
0.0269658
1.63105
0.0259975
0.0627604
0.0241805
0.0292553
0.584626
0.0241786
0.0278841
0.0271296
0.0270259
0.0244989
0.0244285
0.0236603
0.11975
0.0233069
1.48734
1.17924
0.0265194
2.34403
0.026042
4.36522
0.0241928
1.20726
0.0256428
1.46915
0.0239024
0.455909
2.20948
0.0250984
0.0404381
0.443461
2.87525
3.08838
0.0425387
0.0581964
1.51953
2.42863
0.0461838
0.0232223
2.18457
0.0226745
0.118765
0.911729
2.33494
2.3302
0.0247747
0.0256237
0.0231784
0.0261997
0.0507603
0.0267028
0.442769
1.66355
0.728974
2.38454
6.69666
6.06868
0.120022
0.0281082
1.92913
2.94409
0.0241895
0.0855826
4.79046
1.32363
0.0291792
1.02903
0.0284952
0.0617661
2.92815
0.024518
1.96178
2.79621
1.81488
5.45337
0.233884
0.0245792
2.43223
0.0229205
0.0843024
0.1729
0.274632
1.17519
0.0299336
0.0293561
0.696531
0.0308172
0.0857539
0.0276857
0.0226911
0.0223817
4.55876
0.0256275
0.0279605
0.0222774
0.18601
0.924007
0.0838484
0.0341015
0.68169
0.512738
0.0253067
0.0800596
0.0238463
0.0250116
0.0266467
0.0224333
0.0244073
0.0835411
1.32275
2.6218
0.0265841
0.0242231
0.258303
1.36471
0.766739
0.141884
0.0855513
0.112339
1.02871
0.0249383
2.48958
0.0254987
0.103226
2.87405
2.96076
3.09102
0.0481752
0.0223661
2.06248
0.0608444
0.0255573
0.0653281
0.0679613
0.0268822
0.743231
0.0324355
1.23604
2.36631
0.0223749
0.141376
1.93637
2.92252
0.0494338
0.0258343
2.01645
0.0243369
0.0249596
0.0411495
0.0234106
2.17734
3.56508
0.0287988
0.050063
0.0259783
0.0294317
0.441762
0.0826882
2.11552
0.0242802
1.89975
0.0232236
0.0255221
2.78961
4.3615
5.11703
2.87181
0.0264471
2.82085
0.0241807
0.135296
2.39624
2.30458
1.55357
0.349277
0.024358
0.0253918
0.189246
1.74836
0.681334
0.0306247
0.0247832
0.0845637
1.94671
1.32256
0.0271462
0.0270498
0.0241243
0.689965
5.7996
0.605978
0.428145
0.0781319
1.45962
0.0244508
0.0260431
0.0247152
1.93384
0.100694
0.0511222
0.749185
0.0242112
0.0302761
5.83255
0.0447108
2.67576
0.0243205
0.0231906
0.0224672
0.0466671
0.102885
0.620071
0.0824798
2.56144
0.0626454
1.62666
0.0268274
2.94689
0.0251559
0.056586
0.0248909
1.55881
1.95654
5.12108
2.38104
0.02527
0.0243978
2.26258
0.463443
1.35996
1.54557
0.0259039
0.0246166
1.844
0.0485399
0.0585187
0.0253645
5.96152
0.23746
2.59062
0.0238698
0.0291011
2.19873
0.0552883
2.27972
2.21063
0.0352058
0.0248634
2.19627
0.337778
0.057696
0.0252153
0.0297305
0.0244252
0.11517
2.0021
0.685965
0.0246973
0.024637
2.17587
0.0245539
0.0245726
1.92362
0.0222568
0.0305174
0.0246829
0.186186
0.0247038
0.0667462
2.76956
0.0242647
2.57499
0.0270633
2.65857
0.0243084
0.0255154
2.29295
0.700815
2.81008
0.0314233
1.18473
0.0275653
0.0249501
2.87599
0.0235434
0.0247135
0.0247205
0.0247138
2.79141
0.0255769
0.0269098
0.310709
0.0229423
2.7255
0.028049
1.60444
0.0235579
0.097585
2.21487
2.384
0.435581
0.0252583
2.19228
1.76354
2.37642
0.0238378
0.0531687
0.0318557
0.0247891
0.0247276
0.0241983
2.13911
2.76436
0.0313695
0.0835738
0.0253733
0.0633334
1.3299
0.373982
0.0267789
0.0294476
1.51798
2.60635
0.0236916
0.0238506
2.64998
0.0478227
2.41593
2.64363
0.0480191
0.0300644
0.02571
0.470335
0.0238197
0.0252144
0.0568193
2.21041
0.0241151
0.0246662
0.0240128
0.0234609
0.0729158
0.0237903
0.0246371
2.12537
1.74306
0.700889
0.430305
4.18166
0.0241795
0.0377721
2.28764
0.028225
0.0263151
1.91351
0.0248817
0.160653
2.75353
0.0445449
0.0236904
0.0244311
0.0434088
0.0263113
0.150288
0.0451266
0.0304523
0.418081
0.655988
0.0654203
0.0759101
0.0237103
3.06534
0.158059
0.0419046
2.32881
1.65135
0.0241927
0.0849646
4.5353
0.0245826
0.030117
0.0289793
0.0261088
2.4125
3.02526
0.0674762
0.0360538
0.024011
0.0253104
0.023961
0.0263449
0.0267002
0.0256988
1.04856
1.18474
0.0276407
1.68282
1.12073
1.99555
0.0450699
0.0270194
1.68524
2.70262
1.36964
0.440638
0.028258
0.106498
2.04401
0.0341557
0.0260198
0.0261272
0.0257618
2.94161
0.0616686
0.0282651
0.0467758
1.53344
2.23047
0.0268989
0.0636168
2.4355
0.0246863
0.0244214
0.0490212
0.0281609
0.0258662
0.0272662
2.51737
0.0293738
1.24846
2.40999
0.0536857
0.183504
0.183663
0.542934
0.0233778
0.0259296
0.0353866
1.58904
0.0245842
2.63946
2.1442
1.07294
0.0246098
0.202755
3.04605
0.101395
0.0568312
0.037427
0.0597761
0.0312646
1.84889
2.70793
0.0261271
0.13508
0.0253621
0.0283519
1.88672
0.110592
0.0243589
1.51407
0.222182
0.024204
0.55722
2.34719
1.98741
0.0249126
0.0539409
0.0613758
0.0250169
2.15977
0.0243272
0.125427
0.0316866
2.64254
0.0236763
0.0443823
0.11567
0.0242931
3.11573
1.28148
2.52411
0.12085
0.0552535
2.50004
2.68807
0.0235297
0.0267816
0.0258261
0.0245872
0.119615
0.0315855
0.0251647
2.34657
0.114927
0.0244444
0.0246469
0.0318654
0.169269
0.0237081
0.0246162
0.0265998
0.0246396
0.272945
0.190074
0.116226
0.115873
2.84625
1.18011
1.51916
0.492387
0.0261095
0.116754
2.82353
1.5232
0.0223882
0.0235675
0.0245983
1.23135
2.35585
0.0272024
1.38835
0.0246733
0.0267575
0.0396834
2.14042
0.17229
0.0237206
0.0288027
0.0246177
0.0242286
0.0828226
0.0232881
0.0335498
0.0224139
2.54153
0.0269927
0.0336844
0.0273685
2.02149
2.9984
0.0243298
0.0252208
0.0840778
0.0224378
0.849895
0.166727
0.0463012
0.0242789
0.0723052
0.0256949
0.286349
0.0256146
2.46617
2.23723
0.0527009
2.86198
2.10038
0.0232311
0.157447
2.88371
0.923
0.16273
0.0292779
1.91884
2.24602
2.88551
0.0248884
0.0274145
0.0377789
0.119682
0.155078
0.0292702
2.88094
0.0379562
0.026482
0.0300907
2.42205
0.0721421
2.47512
1.82859
2.57012
0.200007
0.0301299
0.0240615
2.58583
3.80386
2.7029
0.113931
0.0225907
2.62786
0.0224215
0.0280799
1.31139
0.0251359
3.02686
0.0243626
0.0245327
0.023311
0.0269077
0.0259836
0.758476
0.02526
3.09342
0.431319
0.0225271
0.0504781
2.47488
1.77469
0.024657
0.0268749
0.0236545
3.11292
0.0238679
1.48233
0.0321256
0.0239691
2.46105
2.87764
2.07196
0.148261
0.0627585
0.0248951
1.71771
1.35276
1.95898
0.0254092
2.31719
0.0281121
0.0256669
0.0261431
0.0288751
2.55632
0.0820175
0.200137
0.0468299
0.539249
2.19629
2.92651
0.0370214
0.0293704
0.523291
0.0249407
0.195299
0.0259684
0.0570585
1.75361
0.0223663
0.0465019
0.433437
1.81213
0.0365861
0.0266811
0.0225549
0.0255352
1.00481
0.0724592
2.42612
0.0786386
1.81661
2.58167
2.97101
2.74155
0.442516
0.0749774
2.18235
0.540726
1.96967
0.0654949
0.029683
2.00524
0.0513413
1.50207
1.91842
0.442099
0.0245908
2.36143
3.27317
2.49494
1.79617
0.0304927
0.0238133
0.0238203
1.89412
0.0250019
0.0241857
0.0238633
0.0274562
0.0241136
1.46663
0.188124
2.11277
0.0248339
0.989208
0.0264697
3.21365
0.0236449
2.9259
1.7795
0.0248801
0.333595
0.0226204
2.27497
2.70132
0.0504985
0.0262085
0.0237408
0.0265967
0.101388
0.0823733
0.0298829
5.41966
0.0657729
0.195202
0.0703379
0.581085
1.58105
0.0446269
0.253383
2.74149
0.0609108
0.0406414
0.0249347
2.22802
0.0253353
0.445353
0.0644058
0.0246373
0.0246042
0.0240206
2.75544
0.0675078
2.20021
2.55252
0.0224934
2.63628
2.21884
0.0298723
0.989539
0.0237515
0.0250097
0.0247008
0.0458344
0.148231
1.15383
6.24173
0.0259864
0.152821
2.14612
0.0237551
2.35236
0.105195
1.96357
0.0445566
1.22821
0.11825
0.0808961
0.0237165
0.0255096
2.29147
0.158364
0.0320622
0.323481
3.05435
0.0227446
2.74008
0.0263227
0.026704
0.0245616
0.0246273
0.0244045
0.026383
2.9134
2.23508
2.29156
0.0366495
0.132168
2.12529
0.0275995
2.2762
2.50316
4.44091
0.0247279
0.163011
0.0237719
2.41487
2.47727
0.0617298
2.60771
2.96204
0.11653
2.13619
0.0227124
0.0249215
3.48664
1.14194
0.025462
1.9761
2.93371
1.91532
0.0240402
0.16796
3.12417
2.17403
0.0225237
2.54175
0.0247432
0.0249081
1.49318
1.18254
0.0246598
0.0283415
0.181183
2.51812
0.0248206
0.0304958
0.0225019
1.14542
0.0283358
0.0930116
0.0243135
0.0294062
2.50078
0.024951
1.12594
0.0748649
0.0285528
2.24044
2.14052
1.71782
0.0226019
0.0272618
1.81053
2.41388
1.25358
0.116743
0.024408
0.0260296
0.0847503
0.0237909
2.49666
2.23607
0.0231763
1.82374
0.0245996
1.03947
2.38632
0.156005
2.11638
0.246456
2.20037
2.65431
0.0303317
0.0686643
0.0253335
0.687058
0.253142
0.0281977
0.0237531
0.0248693
0.0974824
2.21564
2.98798
2.90436
0.0234846
0.0223955
2.97047
0.0599689
0.0251989
0.026555
3.0823
1.67467
0.0258869
0.0278387
0.0238829
0.0800013
0.0268108
0.024562
0.024972
0.0246335
1.89432
2.49724
2.26784
2.5155
0.115262
0.0244602
0.0240657
0.0848789
0.155473
0.668392
0.0679406
1.23772
0.720755
0.0269866
0.0242514
0.0245902
0.0246578
0.158184
0.58825
2.25422
0.116001
0.0848301
0.0792208
2.44214
1.23264
0.684862
0.032802
0.0226193
0.025187
0.0251219
0.0672411
2.1545
0.0445152
0.0392281
0.0249053
0.0270999
0.167992
0.028327
0.333268
0.0249121
0.0566388
2.65633
1.03988
0.0624551
1.86662
2.31487
0.0245798
5.05354
3.23304
1.17843
0.02458
0.0881954
0.0244471
2.45743
0.0291161
3.09111
0.026115
1.83255
3.04631
0.023413
0.0568611
0.211381
1.55903
1.38173
0.0534156
2.15692
0.023899
2.15447
0.203562
0.0264754
0.0362229
0.0432424
2.26151
1.25793
0.0636923
2.11997
0.0248651
0.0254423
0.023407
0.0297206
0.0367717
0.334321
0.0272636
1.65007
2.80885
2.24762
2.85433
0.106804
2.89186
0.116153
0.0436676
0.0254451
0.0245222
0.0943382
0.17492
2.25021
0.0247009
0.0252475
0.0225624
0.0254569
0.0243496
0.197137
0.412586
0.0235705
0.0243786
0.0242479
0.112541
2.61208
0.0227371
2.89977
0.0237271
2.53829
2.0713
0.194359
0.284862
2.74782
0.654707
1.06895
1.64026
0.0288883
0.027646
0.659788
0.054782
0.0243998
0.53642
1.5948
0.115483
0.0262529
0.0225209
0.0256156
2.41086
2.66163
0.167419
2.87058
3.44361
0.14357
2.00309
3.39662
1.76878
0.0528045
0.0246555
0.0237551
0.0336382
0.0278974
0.237527
1.61245
0.024509
0.16506
2.59061
0.0281211
0.0430695
0.0266015
0.032237
0.389496
2.21776
0.0583865
0.0779829
0.0314391
0.026478
0.108414
1.17616
0.0436539
0.124407
0.0262759
0.0598847
0.0295494
0.0261474
0.023401
0.0528362
0.0248985
0.0424076
0.167058
1.73188
0.0271697
5.00018
0.0255349
1.54701
0.420197
0.113409
0.0247436
0.188355
0.0237934
0.0794745
0.421654
2.00951
0.104133
1.78764
0.0236508
2.82513
0.796533
0.02893
0.0423562
2.28067
0.217776
0.0245628
0.0259507
0.025716
0.512408
3.1203
0.0251192
2.74578
0.057741
0.0254738
0.0246331
3.1817
4.16295
0.0244474
1.9798
5.49243
0.571185
0.025783
0.023105
0.627354
2.61361
0.169568
0.0410379
0.0511945
3.08441
0.20676
0.0861435
0.0351983
0.122725
0.0428169
1.43044
0.0233914
0.0298533
1.8108
0.0243957
2.10183
0.0449645
0.0245673
0.0245201
3.0968
0.0354763
0.0251854
0.0300904
0.0287046
2.03341
2.52657
4.42879
0.0528257
1.04754
0.0580146
0.0242318
1.36079
0.0488157
0.0302179
1.62926
0.0243352
0.0223534
0.0345796
0.0253235
1.01687
1.74732
0.0282581
1.34518
0.0277684
0.0310201
6.1155
0.0478828
0.278345
0.0526933
0.024402
0.0268924
0.0878372
0.0345695
0.0511608
0.11855
0.0637487
0.0364664
0.690803
0.380072
0.0273884
0.0491881
0.13424
0.111218
0.0262016
3.33265
0.0888235
0.0413623
0.690628
2.48825
3.00009
2.20419
0.0348641
1.81418
0.158387
0.117285
2.45635
0.0250996
0.0386285
2.68151
0.0800038
0.417576
0.131655
0.0341443
1.36038
3.07602
1.26117
0.0514853
0.166255
0.0271972
0.582154
3.15543
2.0465
0.025444
0.0513289
0.177481
0.0385269
0.0793503
0.117915
0.0432279
0.0488722
0.0463818
1.54418
1.89111
0.0380293
0.0643642
2.4597
1.7739
0.0304341
0.0356989
0.0913664
1.61873
0.0264322
2.16083
0.0261511
0.0245792
0.0238068
0.0258097
0.128566
0.0244001
0.0224905
0.0313349
0.0232804
0.0247356
0.752906
0.0324148
3.41633
1.56187
0.040186
0.0633287
0.0864438
0.0266294
0.024578
0.0243674
1.94281
0.058187
0.0232664
0.0244901
0.027995
0.0468823
0.0379321
0.698468
0.0471768
0.0235856
0.0433412
0.60006
0.028187
0.0253171
0.0307787
2.6696
2.61376
0.0360694
0.359533
0.0812301
2.72781
0.151694
2.24078
0.0243396
3.7626
0.0263016
0.0241729
0.0247836
0.0601457
0.0493189
0.0244925
0.0381053
0.0243772
0.185124
0.0927661
0.0253066
0.0257466
0.0505457
1.41693
0.0244904
2.41893
0.0265447
2.10896
0.0238277
0.0238325
0.220936
0.0257844
0.0316466
0.0242014
0.0245609
1.60154
0.0652565
0.0294935
0.0232965
1.43263
0.872058
0.0286364
1.8915
2.05026
0.0369121
2.44639
2.03531
1.46687
0.025364
0.109534
0.0284691
0.109086
2.25853
0.0245852
0.13817
0.0249455
0.109196
0.029771
0.316994
0.0314214
0.0304157
2.51882
1.42385
0.153688
0.0888804
0.0247648
0.379031
2.40312
0.0316736
0.130004
1.54756
0.144033
0.0242115
0.0249226
0.0984186
2.36769
2.42285
1.54908
0.0245882
0.107791
0.02468
2.80559
1.62437
4.37301
1.93527
1.40373
0.0241038
0.286191
0.0311356
0.0248946
1.427
0.0302808
0.866249
0.301215
1.73405
2.7246
0.0356735
1.38738
1.32368
2.25674
0.0279231
0.0240975
2.18567
0.0257563
2.06325
0.0252034
0.0245216
0.0257519
1.11454
0.0227991
2.58903
5.43497
0.249234
0.0442149
0.849604
1.13166
1.22388
2.7841
3.07448
2.93246
0.147998
0.0242017
0.0778088
5.35051
2.9776
0.0488744
0.0245573
0.0238046
2.67368
0.182571
0.0337848
0.11761
0.0233961
0.0240428
0.205027
0.0265241
3.16446
0.0244416
2.32979
0.0303994
0.0242936
2.44228
0.0608678
0.10872
0.0243636
1.21305
0.12621
0.0302009
0.0715292
1.69351
2.10543
0.0251691
0.0295196
0.0258754
0.0364551
1.32644
1.49799
1.42097
0.0232837
0.122338
1.53968
2.56032
2.48804
0.619443
3.59463
0.0239168
0.0453504
0.139356
2.23705
0.195426
1.12183
0.0240076
2.73842
1.53288
0.0244236
0.0301557
0.063378
2.85968
0.0244734
0.0301144
1.29989
0.0226967
5.20317
0.0427628
2.44282
1.15692
1.4367
0.0241317
1.34063
1.13391
1.43252
0.0296018
1.30672
2.16719
0.0234655
0.17506
0.0371724
0.0254735
2.00017
0.179504
0.034755
0.0262425
1.68654
0.0271456
0.0775533
0.0336314
0.0236877
0.131787
0.153099
2.65381
1.829
0.0228035
0.0361004
0.0634128
0.0420535
2.0414
0.0252477
0.0378584
2.4802
1.89919
3.35035
1.9301
0.115243
1.09299
0.0275542
1.71124
0.079614
0.100904
0.126156
0.024545
2.23906
1.42964
1.58815
2.62461
2.02119
0.0610854
1.43366
2.27643
2.91684
2.03393
1.53854
2.28756
0.201538
0.184904
0.0409176
0.0241961
1.67053
0.0285284
0.0246437
2.27713
0.0357409
0.0920683
0.0245778
1.22416
3.05054
1.34153
0.0336427
2.56088
0.0273442
2.56059
2.21579
0.653083
0.0264045
1.39368
0.0350938
0.194969
0.0287723
1.30775
0.0446839
0.0785653
1.84352
0.0272686
0.0308743
2.18057
0.0237538
0.0238862
5.34709
0.156453
0.0358649
1.95094
0.0253119
2.35978
0.0275312
0.0354265
0.0257484
0.0410959
0.0246203
0.181977
1.96996
0.0266692
0.023668
0.608386
0.0915859
0.0244651
0.0528896
0.0281102
0.0779166
1.86185
0.0865607
3.57787
2.32177
0.1578
1.38682
0.0250812
0.0265509
0.111251
1.7081
3.11912
6.78783
0.030327
1.50553
0.0266102
1.96286
0.282509
1.66768
0.0511703
1.8727
2.34891
0.0236132
3.25929
0.239861
0.0242515
0.0250894
5.54443
0.0251122
0.0863869
0.0254758
0.0381195
0.0571431
0.0251424
0.0251736
0.156185
2.92824
0.0250812
2.88838
0.281076
0.161819
2.29012
3.40005
0.0246611
1.81165
0.0613372
0.0243614
2.55637
0.0372576
0.0494447
1.26787
0.0248258
0.0239729
0.284143
0.0289438
2.05393
0.0261872
0.0287793
0.0243058
0.133011
2.48216
2.28649
0.0241451
0.269387
3.19222
0.0489662
0.0288812
1.78033
0.146349
0.0239785
1.18215
2.29744
0.0677309
0.0243855
0.0244988
0.0252837
0.0476559
0.0242629
0.0727648
2.92483
0.0241952
1.99592
2.84085
2.85429
2.03751
0.0337134
0.198681
2.9922
0.282296
0.139782
1.38098
2.41684
0.0248074
0.244392
0.0244976
2.04967
0.0243031
0.0540908
0.0248122
0.233198
0.111215
0.0262513
3.64595
1.64374
0.0283938
0.0857528
0.0527196
0.0295907
0.0545699
0.100118
2.21748
0.0286171
0.31815
1.70677
1.19824
1.03795
2.31609
0.023999
0.0245322
0.29653
2.46907
0.159459
1.7757
0.149837
0.0329292
0.431409
0.299112
0.050771
0.63284
0.0488336
1.91745
0.0253468
2.64879
0.0252059
0.0543011
0.0540736
1.65298
0.0515479
1.86397
0.0265513
0.0245447
0.36412
2.95503
2.56228
1.56615
0.195167
1.87235
0.159266
0.0239791
3.35156
0.0240125
2.47171
1.38317
2.01848
0.190926
0.105178
0.184969
0.15716
2.31972
0.0254742
2.07674
2.02475
0.0252511
1.27277
0.126547
0.0359047
0.0266069
0.0284442
1.58784
0.0343552
0.189125
1.8754
0.0244859
0.101736
0.0449327
2.03711
2.89677
0.320637
2.3361
2.15526
0.192536
0.024868
1.57269
2.12142
0.0253396
0.112805
2.08278
2.01729
0.0232234
1.9341
0.0237961
0.0249019
0.0248345
2.26179
2.38786
0.0731497
2.25653
0.0242172
0.0258838
0.108477
0.154699
5.90356
0.0274542
0.0276749
3.43716
0.151314
0.0248157
0.0240559
0.0918788
0.0245454
0.0588578
0.237036
1.4601
0.160316
0.0269928
0.0505582
2.22898
2.04898
2.09838
2.37182
0.0252885
0.0381201
0.432764
1.53638
0.322595
2.77507
0.0265528
2.07356
0.0314742
0.0532812
1.57528
0.0846666
2.13547
0.0286202
1.0217
0.0281205
1.90433
0.0240557
0.0924052
0.023989
2.11434
1.33196
0.0251871
0.0252261
1.36543
0.0242505
2.29547
0.303143
1.02539
1.99727
1.7101
0.0245401
0.0439681
0.0273915
0.0595301
2.19429
3.73677
0.880063
2.22562
0.0400946
0.114071
0.0263223
2.6654
0.0858189
0.0235739
0.0247955
0.523975
0.0239068
1.21445
0.0236165
0.0233377
0.0232058
0.177916
1.90437
0.164675
0.0731809
0.0246838
0.0530808
0.13183
2.55964
0.0545933
0.0919758
0.0341552
1.5199
0.0255265
0.0765555
0.345346
2.00584
2.14892
0.108401
0.0705316
0.0253444
0.0657583
0.135377
1.40476
0.156842
1.58554
0.0238594
0.0642818
0.0530442
0.0244772
1.82738
0.0838595
0.024516
0.0267656
7.44016
1.83326
0.0258517
0.0246053
1.73595
1.66413
0.0283858
0.116772
1.96986
0.10051
2.82829
2.15971
2.6245
2.20374
7.60223
0.158248
1.9128
0.0357522
0.81349
1.72673
2.51724
2.70395
0.0348445
2.91561
2.62232
0.0318761
0.0607077
2.10633
0.178318
2.13235
1.53032
0.0465798
2.55465
0.03046
2.34346
1.2729
0.0247968
0.0706985
2.14218
0.0249414
0.0275134
0.0571152
0.346063
2.16143
0.0493434
2.08972
0.0288704
0.0224849
0.025943
0.0258931
0.0608712
0.0548784
0.024586
0.0599955
0.0934531
1.48305
2.80198
2.16901
2.18207
0.0239818
0.163879
0.0388703
0.535765
0.0674527
0.440899
5.51548
2.75736
0.136739
0.0624237
2.13058
1.26626
0.0726385
0.0279526
0.0346529
3.01159
0.0248389
0.0285369
0.029665
2.68118
1.15396
2.74852
0.0265478
3.5581
0.0235703
0.0246505
0.0262913
0.0241474
0.026329
0.174785
1.99204
0.116322
0.078606
2.82781
2.19569
0.285478
1.03506
0.0646777
0.0822175
0.132245
0.0282371
1.4751
0.208143
0.32811
0.195007
0.160165
1.60763
0.0263243
2.52582
0.0243623
0.026739
0.0286604
0.0260771
0.0250389
1.24372
2.77558
0.0561788
0.0248009
2.07208
2.94334
2.35
0.0414433
1.97554
0.0507239
2.17468
0.162796
0.0257727
1.98705
0.0527112
0.0541056
0.0675054
1.65174
1.18789
2.20809
0.0237976
0.599825
0.144153
2.62689
0.0280641
0.0337337
0.166107
0.0770984
3.0205
2.92389
0.0442183
3.39907
2.22976
0.0753606
0.0580581
0.145516
0.0770274
1.77348
0.0327061
0.172337
3.05002
0.0276026
3.05328
0.0238947
2.90006
2.80621
0.0273931
2.70724
0.137899
0.0512463
0.15952
2.39989
2.42342
0.0782176
1.48503
0.0275931
0.0393073
2.85104
1.29681
0.025639
2.78895
3.15615
0.0774712
1.24201
0.155866
2.24062
0.201652
0.031384
2.90357
2.91071
2.7301
0.0241779
0.0314158
0.166414
1.62531
0.0562396
2.44847
1.90966
0.168412
0.0243577
0.0241568
1.46619
0.0241113
0.0488262
0.0367713
0.0552309
1.9915
0.810362
2.7568
0.0265941
0.168809
0.0775963
0.059261
2.16359
0.492822
0.848954
0.0282404
1.63215
0.527973
0.0304225
2.25503
0.0259303
1.68713
0.0488478
2.37355
0.0241709
0.124568
0.0665476
0.112962
2.27672
1.83946
1.884
2.97715
0.0228864
2.26061
0.0553023
3.24469
0.0409677
2.2232
0.0240606
1.78042
2.90511
0.0395529
1.85723
2.65368
0.0287769
2.94818
0.111165
0.0295041
0.0243402
0.202696
0.1296
2.76395
0.0245611
2.37145
0.0241501
0.0513262
2.2025
0.0779896
3.38251
2.99255
0.0406556
0.0575571
2.9826
0.0248197
0.023607
0.0249287
0.0643653
0.0909941
2.26241
0.189177
2.7108
0.0237232
2.29012
0.0344788
0.595139
0.479763
0.0781958
3.05491
2.17603
0.0305794
0.319909
0.384574
0.139173
0.107476
0.0326134
0.0231634
0.0252773
0.046183
0.171186
0.0925701
0.10542
1.70665
0.106446
0.103586
3.2293
0.0243967
0.0666726
1.9745
2.30523
0.293028
3.1893
0.18337
0.0291967
0.0286812
3.12912
0.034111
1.52785
0.0259485
0.0249245
0.197098
0.0244104
0.0784273
0.035869
0.0476145
0.0506091
3.23603
2.17737
2.33118
3.10098
0.0243072
2.24852
0.133683
1.49932
0.10825
2.15154
0.195358
3.11864
2.16785
0.173358
0.145422
2.26971
0.0245036
2.61495
3.17809
0.0334267
0.0275174
2.60657
0.0308401
0.0248588
0.0537946
2.90595
1.51461
0.0270802
1.72768
0.283854
0.0283111
0.0233635
1.35796
0.0402005
2.00618
0.0320538
0.0248105
0.188556
0.057134
2.34751
0.0644548
1.68109
0.0477876
2.3133
0.106815
0.0228935
3.12122
0.0232074
0.0476157
0.0980872
2.66131
0.0503578
3.00309
0.0855679
3.22583
1.58549
0.175837
3.04909
3.1089
0.323903
2.71074
0.116197
0.568585
0.0248269
0.0561919
2.88506
0.0246989
0.17344
2.3075
0.0390225
0.0262917
1.96834
0.0294591
0.0475679
0.125829
0.0380688
0.105966
0.0253518
3.14665
0.0313777
2.17572
0.18767
2.32211
0.117252
0.0491997
0.0271261
0.106622
0.0254375
1.96829
0.0230399
0.10097
2.2378
0.0240806
0.0764994
2.34049
3.02908
0.106543
0.0259828
0.0644738
0.132734
0.277395
0.0234481
1.12695
0.328483
0.0299727
0.106918
3.45014
0.0255746
0.108775
0.0802151
0.0240085
0.0233284
2.80696
2.06919
2.96383
0.140082
2.20724
2.86523
0.0825372
0.0987816
0.209665
0.176333
0.287145
0.0235215
0.0231738
0.0311023
2.78635
2.24236
0.285303
2.31621
0.193743
0.0243008
3.43266
3.03793
0.0838128
0.0310118
0.353797
0.109023
0.0303002
0.171047
0.0251283
0.0298766
0.0316835
0.0589111
0.0306047
0.384604
1.47697
0.270771
0.0243229
0.0361717
0.0617179
0.17884
0.0326743
0.334947
0.049426
0.0495262
0.0598896
0.0231359
0.0245984
0.0274038
0.143747
0.0781456
1.77869
0.0399621
1.5136
0.0244422
0.0377568
1.52188
0.0262045
0.0296253
0.0568964
2.21046
0.0249295
2.4764
0.0305764
0.043023
0.0249845
0.0267506
1.46314
0.0241182
2.2322
0.0305176
0.02688
0.0920771
0.0457298
1.16715
0.106696
1.49066
0.109436
0.0264787
0.106021
0.0342328
0.106752
2.01536
1.64605
0.0905609
2.26106
0.0820302
0.0248583
0.026941
0.0348217
0.0341989
0.10955
0.0277095
2.24828
0.0531882
0.0240198
0.0267556
0.105498
0.380336
0.542112
0.592485
0.0304459
0.064317
0.0294373
2.03143
0.024061
0.0300734
0.0245347
0.0263818
3.08887
0.141113
0.575712
1.41554
0.105305
0.0637863
0.0234831
2.33707
2.29883
0.0242876
0.0601067
2.67174
0.0318708
0.0270148
0.0337769
1.47976
0.0297051
0.028994
0.0267125
0.0260969
0.0248658
0.031444
0.0234816
1.02604
1.21605
1.87899
0.0658866
0.0238424
0.0295565
1.11017
0.0282116
0.0282433
0.105652
0.0374196
0.155715
3.79054
0.0347104
0.0271415
0.624299
0.0274956
2.27423
1.31721
2.25457
0.0311201
0.434104
0.0277362
0.0248324
0.188336
0.0915333
0.379218
0.036464
0.105079
0.0264362
0.0268129
1.86439
1.69352
2.61293
0.0269041
2.30679
3.79109
0.0590314
0.0242317
0.0456095
0.0250836
1.14354
0.0315573
0.0332141
1.72908
2.26755
0.0235743
0.0325273
2.47435
0.0427719
0.0371778
0.0457391
0.026612
0.0455682
2.77393
1.58759
0.134249
0.0276475
0.0292197
0.0252518
0.024675
0.245822
0.0462191
0.0356475
0.29797
2.22051
0.024467
1.10836
1.63586
2.56537
0.142008
2.32334
0.0349216
0.104057
0.0923374
0.0299618
0.290869
0.0558248
0.024174
0.08964
0.0783511
0.0234625
0.0242203
0.0290524
0.032952
2.2809
0.0271462
0.0235869
0.026775
3.01342
0.0301927
0.0471049
0.240086
0.024121
0.0304508
0.0298128
0.0270438
0.0278894
2.36732
0.028073
0.0275539
0.023972
1.12312
0.0463616
3.13107
0.0265417
0.365935
2.25192
0.0379474
0.0245005
0.0257673
0.032293
0.034062
0.0267269
0.0380026
0.0274969
0.0263581
0.0255652
0.0822759
2.28633
0.0273312
0.027956
0.0690046
0.0303258
0.0230771
2.34033
0.0366251
0.0598579
0.0236727
0.0240944
1.50706
0.0242576
0.0239364
0.0242286
2.826
0.0290729
1.52999
0.0242582
2.11015
0.0281346
0.156276
0.0345361
2.29267
0.104453
0.0775422
0.0331251
0.0263339
2.35452
0.14313
2.87608
0.0326672
0.0251885
0.0277875
0.0261865
0.0245913
0.0305028
0.0794811
0.183753
0.0290662
0.0274033
0.0456456
0.0243752
3.14823
0.0245128
0.0286222
0.0342312
0.0251436
0.188941
0.0492527
0.0235487
0.0230066
0.426916
0.0624688
0.079172
1.66031
0.0251534
0.233928
3.01633
1.90106
0.0229302
0.194571
0.026873
0.0275774
2.29987
0.0300367
0.7293
0.0283632
2.12175
1.39953
0.0727396
0.0244824
0.0293516
2.12153
0.0267188
0.104956
0.0456674
2.40228
0.0360194
0.294973
2.11803
0.574863
0.0459956
0.1725
0.0281016
1.62605
0.207991
0.0256781
0.0728458
0.0252692
2.53106
0.0370214
1.68293
0.0343121
0.169475
0.177417
0.040921
0.0265263
0.0482706
0.027332
0.0272001
0.0243402
0.0277783
2.96354
0.0248498
3.51295
2.40345
0.245694
0.0285324
0.028693
0.144081
0.0256378
0.0230011
0.0386271
0.0281892
2.47601
0.0609096
0.0318481
0.0253221
0.0243042
0.526019
0.0260287
0.0232317
0.0248195
3.20156
2.03561
0.289822
0.0796496
0.0357265
0.0262975
0.0256457
0.163792
0.0235206
0.0323386
0.0251119
0.0247769
1.34924
5.53457
0.0886702
2.33212
1.19865
0.0256777
0.0251431
6.28404
0.0783728
0.0991955
0.0729202
0.0457187
0.0998372
0.0285131
1.2363
0.0255374