/*--------------------------------*- C++ -*----------------------------------*\
| =========                 |                                                 |
| \\      /  F ield         | OpenFOAM: The Open Source CFD Toolbox           |
|  \\    /   O peration     | Version:  v2012                                 |
|   \\  /    A nd           | Website:  www.openfoam.com                      |
|    \\/     M anipulation  |                                                 |
\*---------------------------------------------------------------------------*/
FoamFile
{
    version     2.0;
    format      ascii;
    class       volScalarField;
    location    "400";
    object      p;
}
// * * * * * * * * * * * * * * * * * * * * * * * * * * * * * * * * * * * * * //

dimensions      [0 2 -2 0 0 0 0];


internalField   nonuniform List<scalar> 
14804
(
-0.00053774
-0.0058054
-0.0794763
-0.00743114
-0.0968472
-0.0217824
-0.101432
-0.0803667
-0.0007486
-4.29417e-05
-9.77646e-05
-0.0780945
-0.000398402
0.0143127
-0.0914789
-0.0399257
-0.1297
0.0141299
-0.041028
-0.000537731
-0.00456272
-0.0952399
-0.00151115
-0.0368981
0.00347651
-0.098147
-0.100968
-0.016609
-0.0913255
-0.0764176
0.00366554
-0.130072
-0.0724544
-0.0785572
-0.147269
-0.00760779
-0.0226901
-0.0363115
-0.125752
-0.00040531
-0.113874
-0.125574
-0.0460232
-0.061736
0.0120941
-0.0143562
-0.106942
-0.00765024
-0.038586
-0.00447421
-0.0244432
-0.0084098
-0.000911388
-0.00130654
-0.0723672
-0.0164586
-0.0977208
-0.12859
0.00926937
-0.000775031
-0.131628
-0.143027
-0.000452299
-0.00558526
-0.0697967
-0.0786956
7.51214e-06
-0.00244744
-5.09763e-05
-0.0278651
-0.0454347
-0.00258574
-0.0739111
-0.0790736
-0.0771905
-0.0238981
-0.0433629
-0.0466103
-6.19725e-05
-0.000174982
-0.00101767
-3.49302e-05
-0.0962944
-0.0832179
-0.00222749
-0.0384943
-0.00421328
-0.0102732
-0.0672765
-0.0689567
-0.011666
-0.0102803
-0.000435738
-0.0354831
-5.10253e-05
-0.0754417
-0.00708893
0.0141103
-0.0304121
-1.12429e-05
-0.0151631
-0.0538339
-0.0990996
-0.0714562
-0.0978188
0.00423801
-0.0146569
-0.0060886
-0.0313707
-0.0806229
-0.00624099
-0.0140437
-0.067237
-0.0837102
-0.0477795
-0.093706
-0.086072
-0.0454988
-0.0386063
-0.000895112
-0.0818056
-0.0966039
-0.035628
-0.0972165
-0.0396564
-0.0847841
-0.00419667
-0.00132259
-0.0803566
-0.0768453
-0.00166051
-0.0754206
-0.000787428
0.0115795
-0.000848319
-0.00658017
-0.131166
-0.00154869
-0.0747685
0.0120109
-0.0230668
-0.000801933
-0.00167805
-0.0628941
-0.120094
-0.00466353
-0.0858266
-0.12686
-0.0901874
-0.0127593
0.00190163
-0.00172593
-0.0996635
-0.121578
-0.000546355
-0.00183488
0.00377699
-0.0652315
-0.0337144
-0.0884723
-0.0223444
-0.000548533
-0.00131841
-0.000766897
-0.0584156
-0.0334279
-0.00202105
-6.42703e-05
-0.000781261
-0.06399
-0.0219744
-0.0741646
-0.0697776
-0.00445721
-0.0032761
-0.0970727
-0.0597187
-0.0796442
-0.0707729
-0.00103601
-0.000934335
-0.0370378
-0.0372326
0.00829402
-0.000927344
-0.0831355
-0.00559727
-0.107156
0.0109264
-0.00220017
-0.00713441
-0.122656
-0.0634527
0.0039481
-0.018595
0.00983491
-0.0261664
-0.104654
-0.0376915
-0.0676317
-0.0317247
-0.00711886
-0.000575882
-0.12441
-0.0214406
-0.0800794
0.00576718
0.00361252
-0.0808117
-0.0338912
-0.00386932
-0.0844008
-0.00082861
-0.00743012
-0.0692507
-0.039058
0.000197751
-0.0447943
-0.131998
0.00353984
-0.0183348
0.0149187
-0.0195195
-0.000398108
-0.134052
-0.0814216
-0.0967324
-0.0393881
-0.000932955
-0.0386601
-0.0483574
-0.02061
-0.0338926
-0.0344782
0.0124537
-0.037968
-0.107968
-0.0238061
-0.0488251
0.0133348
-0.0811272
-0.0364642
0.0117616
-0.137066
-0.0174138
-0.00644246
-0.0328581
-0.133858
-0.079272
-0.0850046
-0.102296
-0.0513735
-0.000974205
-0.00660605
-0.00961453
0.000161268
-0.0818164
-0.113413
-0.0656999
-0.134743
-0.00620226
0.00154942
-0.00960025
-0.000924872
-0.00694925
-0.0911368
-0.0334568
-0.000422056
-0.0788731
-0.000446093
-0.0366928
-0.0478757
-0.113609
-0.0797081
-0.112763
0.0129907
-0.00398263
-0.0725749
-0.000414858
0.0136848
-0.0339601
-0.0903785
-0.0332352
-0.0363758
-0.0480675
-0.120627
-0.0380909
-0.110329
-0.0228985
-0.119037
-0.0906912
-0.0711298
-0.000554382
-0.138447
-0.035118
-0.0468338
-0.115557
-0.0495333
-0.093159
-0.00210032
-0.000614975
-0.0214824
-0.0223506
-0.0447748
-0.0188518
0.00849992
-0.000118277
-0.0329245
-0.0604123
-0.00308939
-0.00667046
-0.0449961
-0.0985874
-0.00766192
-0.0406491
-0.000459912
-0.00216353
-0.00231606
-0.128698
-0.00255452
-0.000578645
-0.0453256
-0.105048
0.00844433
-0.0365134
-0.00428379
-0.01934
-0.0934815
-0.124433
-0.120785
-0.00231578
-0.00426216
-0.0492934
-0.109713
-0.00400316
-0.118323
-0.112092
-0.114404
-0.0821323
-0.12129
-0.10574
-0.0757952
-0.0797167
-0.0912524
-0.000836371
-0.0434172
-0.0673044
-0.0654172
-0.00683227
-0.0333753
-0.0788531
-0.000710768
-0.00549479
0.00508162
-0.0077682
-0.000598921
-0.00713791
-0.0176789
0.00688704
-0.0484603
-0.0034644
-0.00370137
-0.0477179
-0.0804531
-0.115279
-0.0199442
-0.047907
0.0112651
-0.0781144
-0.00446883
-0.000585661
-0.0875506
-0.00060512
0.00985472
-8.13849e-05
-0.0850585
-0.0796932
-0.000130022
-0.0304315
-0.0613333
-0.00668967
-8.82772e-05
-0.0756813
-0.0833101
-0.000617825
-0.00149103
-0.00538497
-0.00768586
-0.135096
-0.00727973
-0.0931064
-0.00880183
-0.0967034
-0.00254707
-0.0334309
-0.135087
-0.110178
-0.10205
-0.00326811
-0.123553
-0.0703185
0.000606082
-0.108906
-0.120484
-0.0898868
-0.0808356
-0.0299481
-0.00256819
-0.000897404
-0.00421097
-0.0143151
-0.116449
-0.132593
-0.087706
0.000551164
-0.00439959
0.00796281
-0.0305911
-0.0467126
-0.0693005
0.00771813
-0.0345775
-0.0520601
-0.0445971
-0.00395509
-0.0426834
-0.0757084
-0.0817547
-0.107715
-0.0461584
-0.00671003
-0.000817361
0.010692
-0.0788855
-0.0200359
-0.0447726
-0.0696729
-0.0813524
-0.0424064
-0.120808
-0.108156
-0.0417827
-0.0280641
-0.00862995
-0.0525761
-0.0378081
0.0126178
-0.00371893
-0.0317616
0.00731137
-0.0886463
0.00847776
-0.108509
-0.109559
-0.0945023
-0.0117538
0.00893072
-0.00578402
-0.0477937
-0.0189859
-0.0453036
-0.123098
-0.00378663
0.0100534
-0.0378213
-0.0779613
-0.0530597
-0.00946938
-0.0819712
-0.0422097
-0.0375432
-0.00765121
-0.116958
-0.0664085
-0.0780454
-0.11538
-0.000848902
-0.0981855
-0.000601198
-0.0936207
-0.0260345
-0.0753168
-0.0698876
-0.0972905
-0.0801829
-0.000202764
0.00936371
-0.0687561
-0.0793941
-0.107871
-0.124681
-0.123052
-0.0646639
0.010373
-0.11437
-0.000183837
-0.000869401
0.00155396
-0.000850605
-0.0941132
-0.101503
-0.0316062
-0.000594834
-0.137578
-0.0210251
-0.000693168
-0.0658609
-0.00377306
-0.000798621
-0.124297
-0.0710082
-0.124125
0.00970642
-0.0327681
-0.109493
0.0116146
-0.0890566
-0.129215
-0.0355728
-0.00508697
-0.00717844
-0.124235
-0.0784008
-0.0469049
-0.104087
-0.0906134
-0.0845727
-0.0775749
-0.107095
-0.137936
-6.9386e-05
-0.00178672
-0.0873653
0.00974064
0.0099685
-0.0133901
-0.000168626
-0.0298463
-0.0400203
-0.0784253
-0.0193128
-0.00217663
-0.0414581
-0.00575758
-0.000100489
-0.0194886
-0.139353
-0.0192055
-0.00934555
-0.00217354
-0.00251669
-0.00377357
-0.0358102
-0.00477079
-0.107259
-0.00016813
0.0125934
0.00956688
-0.0185515
-0.132612
-0.013804
-0.126691
-0.0227697
0.00879489
-0.0257706
-0.0609369
-0.000919112
-0.0137955
-0.0860446
-0.00643346
-0.098489
-0.0801859
-0.104422
-0.0797802
-0.00142696
-0.0838517
0.00696457
-0.0800437
-0.000732937
-0.00152937
-0.0806552
-0.000569158
-0.0952798
0.0104479
-0.121962
-0.117529
-0.032109
-0.0363709
-0.00352276
-0.034762
-0.00073286
-0.0213706
0.00083229
0.00535057
0.00298173
-0.106735
-0.0984929
-0.112172
-0.108843
-0.00888255
-0.064917
-0.111709
-0.0200607
-0.00374794
-0.111501
-0.0104824
-0.0132028
0.0135908
-0.0310025
-0.00676807
-0.129497
-0.00944967
-0.0206707
-0.103378
-0.00778022
-0.12732
0.000586453
-0.00912699
-0.115366
-0.00067924
-0.104598
-0.091086
-0.0583931
-0.0800575
-0.0115082
-0.0271242
0.00553531
-0.0405007
-0.000772642
-0.0101134
-0.000582289
-0.000252236
-0.113579
-0.0414968
-0.00953708
-7.63832e-05
-0.107194
0.00620463
-0.081757
-0.0577292
0.00636864
0.000860573
-0.0512526
-0.0433525
-0.00484662
-0.00633226
-0.0227729
-0.000432147
-0.0344101
-0.0879434
0.0125015
-0.0785147
-0.0702058
-0.000841104
-0.108323
0.0107338
0.00399858
-0.0480644
-0.106155
0.000454907
0.00484643
-0.0363108
-0.0832416
-0.0345313
-0.00100766
-0.109165
-0.121212
-0.12374
-0.000895919
-0.000199884
-0.0673644
-0.0355543
-0.026481
-0.000773532
-0.0338707
-0.0206027
0.00146538
-0.00173538
0.0131866
-0.133405
-0.000184902
-0.00890523
-0.01347
-0.121153
-0.00150236
-0.0182355
-0.0393712
-0.000628691
-0.0023298
-0.0240323
-0.00183676
-0.0682023
-0.0800322
-0.019988
-0.103787
-0.0180388
-0.00609947
-0.00018621
-0.0803541
-0.0805474
-0.000601047
-0.00854098
-0.00178259
-0.00224517
-0.0979368
-0.124678
-0.099256
-0.108942
-0.0229709
-0.109204
-0.0218939
-0.00705208
-0.0994099
-0.104274
-0.0796506
-0.0802137
-0.00817729
-0.000459163
-0.115297
-0.00140502
0.00288904
-0.0739815
-0.0106803
-0.0867909
-0.0492201
0.0081221
-0.0462867
-0.00383938
-0.00265006
0.000213827
-0.134781
0.00118559
0.00085371
-0.000806637
-0.0810353
-0.0377884
-0.0156804
-0.0325813
-0.0403084
-0.0614956
-0.00146791
0.00118247
-0.0204348
-0.0729789
-0.112347
-0.0139605
-0.0782961
-0.00811679
-0.00352547
-7.87218e-05
-0.0132064
-0.0461547
0.00520763
-0.0344087
-0.0797672
-0.0606506
0.00515477
-0.0219759
-0.109873
-0.00703555
-0.000593719
-0.0471936
-0.0805806
-0.0221235
-0.0862526
-0.0752909
-0.0110377
-0.00275247
-0.0843733
-0.00139446
-0.0801514
-0.0800158
-0.0160482
-0.0398081
-0.0576787
-0.00335332
-0.0819801
-0.0423983
-0.0793913
-0.000929939
-0.0920575
-0.000571384
-0.0424799
-0.0829923
-0.0321033
-0.0510617
-0.0630038
-0.00151571
-0.0466448
-0.0789029
-0.00141166
-0.00420772
-0.0117316
-0.00569656
-0.0348939
-0.0309888
-0.0411397
0.00253291
-0.0430992
-0.0299166
-0.0764087
-0.0121279
-0.0316518
-0.0158415
-3.5907e-05
-0.040511
-0.0214654
-0.0902858
-0.0152827
0.00112662
-0.110989
-0.00702978
-0.142234
-0.0640563
-0.087247
-0.0310322
-0.0331091
-0.112832
0.00519848
-0.10762
-0.00183914
0.00916724
-0.000755376
-0.0360908
-0.0988909
-0.00742449
-0.0450253
-0.0364274
-0.0452124
-0.103411
-0.0191548
-0.0475693
-0.0127648
-0.00183569
-0.0978444
-0.00864577
-0.0355291
-0.00743006
-0.00105826
-0.0837204
-0.0786008
0.000749717
-0.0510127
-0.0645466
-0.0792185
-0.0750101
-0.00972725
-0.0014522
-0.00943814
-0.0017075
-0.00171649
-0.0195411
-0.084073
-0.0975829
-0.00931101
-0.0913505
-0.0322427
0.000887876
-0.0794599
-0.112597
-0.0463769
-0.0833714
0.00971429
-0.0815681
-0.0069918
-0.00950594
-0.0909371
-0.00366681
-0.0792233
-0.0877968
-0.00859731
-0.0453263
-0.00220155
0.000537906
-0.00207337
-0.010839
-0.077066
-0.0863164
-0.00215053
-0.0157739
-0.00665018
-0.00562969
-0.0713703
-0.000576668
-0.0431912
-0.0758787
-0.0167296
0.00625295
0.000504701
-0.0778678
-0.0215864
-0.031985
-0.0958634
-0.0267707
-0.0679077
-0.0420747
-0.0112674
-0.0857549
-0.0998644
-0.0617182
-0.00555842
-0.0374815
-0.00129218
-0.0237756
-0.0500351
-0.00118066
-0.0108259
0.00111697
0.003498
-0.0240324
-0.0722305
-0.00721643
-0.117161
2.57726e-05
-0.0225307
-0.127744
-0.0186789
-0.0224231
-0.120105
-0.117283
-0.000780386
-0.0304571
-0.0291517
-0.0429385
-0.0776381
-0.116625
-0.0726383
-0.00138493
-0.000574049
-0.0447829
-0.00148057
-0.0065158
-0.0613784
-0.0189918
0.0146053
-0.0800293
-0.00341228
-0.0761562
0.013497
-0.0602722
-0.064911
-0.00077827
-0.0192404
-0.0935546
-0.079428
0.00408361
-0.0768064
-0.0354612
-0.0761114
-0.0442758
-0.00233754
-0.0239518
-0.00129925
-0.122458
-0.0336983
-0.00816326
-0.00824094
-0.076886
-0.0507066
-0.0198359
-0.117226
-0.0756991
-0.0432534
-0.00883494
-0.0117476
-0.00324421
-0.0248926
-0.0177323
-0.074736
-0.0120488
0.013116
-0.0799214
-0.0196927
-0.0845322
-0.0858668
-0.000265237
-0.0053283
-0.000227544
-0.0992441
-0.0775069
-0.0203933
-0.0950312
-0.0753366
0.0138602
-0.0388513
-0.123702
-0.0230981
-0.0356855
-0.0399021
-0.0777587
4.31886e-05
-9.00105e-05
-0.00933483
-0.101749
-0.00831424
-0.000703246
-0.000801096
-0.0686736
-0.0562211
-0.00070966
-0.00650901
-0.0774781
-0.0385443
-0.0178111
0.00127632
-0.0789804
-0.0526854
-0.0402609
-0.0174031
0.000339368
-0.0072401
-0.078972
-0.00281366
-0.00528749
-0.0637625
-0.0882761
-0.00543659
-0.0638133
-0.0905524
-0.000870863
-0.140419
-0.0795566
-0.0842964
-0.00706558
-0.0352286
-0.0851623
-0.0959985
-0.00720565
-0.0167574
-0.0480485
-0.0208783
-0.000572042
-0.0085308
-2.50667e-05
-0.0630511
-0.0845699
-0.0386049
-0.043081
-0.00236971
-0.062996
-0.00547191
-0.0426989
-0.0174028
-0.0311251
0.00300188
-0.0973366
-0.000774603
-0.0330275
-0.10059
0.0146212
0.00540217
0.000237933
-0.0474392
-0.000284813
-0.116683
-0.117794
-0.000225123
-0.00144741
-0.0322396
-0.0666941
-0.098502
-0.0438427
-0.0809985
-0.018296
-0.0508263
-0.000559486
-0.0807782
-0.116307
-0.000910181
-0.0275731
-0.000897211
-0.0181845
-0.0834836
-0.000541075
-0.0391124
-0.00039674
-0.0841332
-0.0509216
-0.037765
-0.018868
-0.0373322
-0.114071
-0.007448
-0.05461
-0.10103
-0.000400846
0.00371774
-0.0577948
-0.0993931
-0.0282441
0.00143965
-0.00148894
0.00498912
-0.0343715
-0.121606
-0.0557174
-0.0852483
-0.102917
-0.0293074
-0.000519845
-0.0430599
-0.10494
0.00944397
0.00339476
-0.081727
-0.018058
-0.0819041
-0.115207
-0.04838
-0.000760752
-0.0794496
-0.000324669
-0.0577518
-0.029649
-0.0760545
-0.000658961
-0.0617337
-0.0426153
-0.0792309
-0.000636016
-0.0983786
-0.0130089
-0.134659
-0.114987
-0.00349949
-0.000533491
-0.0881917
-0.0868418
-0.0922977
-0.0782666
-3.24178e-06
-0.0211239
-0.000363434
-0.0631272
-0.0803629
-0.00605712
-0.124955
-0.00723923
-0.0303617
-0.000953387
-0.0486076
-0.00747905
0.00401917
-0.00966825
-0.138237
2.37694e-05
-7.83582e-05
-0.0845411
-0.0834791
-0.00565953
-0.0179841
-0.0181358
-0.00775272
-0.129352
-0.000457734
-0.0090658
-0.0649113
-0.000492533
-0.114235
-0.116874
-0.0303928
-0.000551049
-0.0856493
-0.0490484
0.0039254
-0.0804429
-0.0458055
-0.00132315
-0.096957
-0.0158913
-0.0352684
-0.0166592
-0.0555949
-0.0865998
-0.000798639
-0.116566
-0.000532317
0.000966002
-0.0464863
-0.114622
-0.0291007
-0.00467532
-0.00155629
-0.0398572
-0.105077
-0.0473272
-0.0332482
-0.0133918
-0.000140271
-0.000994112
0.000270567
-0.0613928
-0.00270758
-0.0178583
-0.000365044
-0.031557
0.00501881
-0.00879763
-0.122987
-0.0906465
-0.0143851
-0.0795687
-0.12732
-0.0905779
0.000998864
-0.00929821
-0.0910658
0.00198112
-0.0368485
-0.00956275
-0.00464384
-0.0670172
-0.0109907
-0.0794294
-0.0648019
0.000523503
-0.0393752
-0.0612593
-0.0772786
-0.0211095
-0.035312
-0.000781084
-0.000306854
-0.0110358
-0.0609867
-0.000827559
-0.0161458
-0.00456029
-0.0761987
-0.000366544
-0.0775552
-0.105204
-0.043826
-0.0452253
0.00744375
-0.0160024
-0.0619068
-0.00528747
-0.104419
-0.0421412
-0.000828259
0.00415894
-1.63597e-05
-0.0900911
-0.0963122
-0.00771508
-0.0437425
-0.0047076
-0.0302219
-0.0480247
-0.0413166
-0.000819007
-0.125224
-0.0707798
0.000120181
-0.0730189
-0.0998811
-0.0748703
-0.00112674
-0.03438
-0.105355
-0.0857465
-0.015468
-0.0345484
-0.0557649
-0.00928164
-0.000138319
-0.119527
-0.0429737
-0.00556657
-0.0188204
-0.0996698
-0.0223412
-0.0839292
-0.0833306
-0.000470034
-0.0924086
-0.0994887
-0.0437569
0.00586783
-0.00375411
-0.0146354
-0.00434387
-0.000986629
-0.0595091
-0.0816336
-0.0805082
-0.0166736
-0.0143391
-0.0569796
-0.00420508
-0.0764644
-0.000383249
-0.0168476
-0.0680584
-0.0803999
-0.0921795
-0.00031495
-0.00863655
-0.00156188
-0.0997596
-0.0678996
-0.00859741
0.000100547
-0.124619
-0.000430827
-0.0897046
-0.00157806
-0.0621922
-0.0414498
-0.0386191
-8.3222e-05
-0.0159813
-0.115432
-0.0918066
-0.0830109
-0.0327977
-0.00305992
-0.0821574
-0.00455495
-0.083722
-0.0883527
-0.0796895
-0.0453819
-0.0914107
-0.00480228
-0.112652
-0.0751416
-0.0591811
-0.0749471
-0.115426
-0.00659406
-0.0667173
-0.00040288
-0.0390043
-0.117785
-0.0814342
-0.0323488
-0.0640119
-0.113016
-0.0623324
-0.0192522
-0.0594546
-0.12879
-0.0849942
-0.000345556
-0.0899966
-0.00644141
-0.0414758
-0.0796154
0.00853811
-0.0427347
-0.0784427
-0.0802546
-0.13272
-0.0295978
-0.0326106
-0.000317351
0.0145335
-0.0156622
0.00225415
-0.0286304
-0.00671354
-0.0871301
-0.00111226
0.0124367
-0.0575515
-0.0691025
-0.09354
-0.0800964
-0.0353987
-0.000496207
-0.0429388
-0.0328994
-0.0798919
-0.0797125
-0.075531
-0.00660122
-0.02473
-0.0848106
-0.00382694
-0.0833601
-0.0794994
-0.00168194
-0.00737234
-0.00443506
0.0110708
-0.0991178
-0.0741914
-0.079606
0.00665327
-0.0946515
-0.0948094
-0.00356911
0.000430163
-0.0487237
0.00241237
-0.000316776
-0.0686745
-0.00398029
-0.029632
-0.0026145
-0.0471394
-0.115092
-0.103687
-0.00168495
-6.50802e-05
-0.112159
-0.0148674
-0.0538537
-0.00768862
-0.135706
-0.0284033
-0.0268742
-0.00401698
-0.00430204
-0.00192419
-0.0593332
-0.0209712
-0.0351718
-0.0395638
-0.0585382
-0.123299
-0.113175
-0.0810649
0.00290226
-0.00856321
-0.000863494
-0.12368
-0.0842114
0.00511647
-0.0100094
-0.0797525
0.00350635
-0.0452169
-0.00649586
-0.0138409
-0.0281782
-0.0799746
0.00150294
-0.047251
-0.132451
-0.127267
-0.100681
-0.0777952
-0.0813884
0.00426625
-0.0448382
-0.000517344
-0.0132048
-0.0129559
0.00115913
-0.0661231
-0.00912292
-0.0251322
-0.0493701
-0.00104166
-0.0612703
-0.0632641
-0.0363122
-0.0489635
-0.000317224
-0.0930649
0.00680353
-0.0706382
-0.0621657
-0.12805
-0.0418621
-0.0807171
-0.0777935
0.0145089
-0.0396567
-0.0407361
-0.0364514
-0.0786481
-0.0566195
-0.123326
-0.0172278
-0.00567245
-0.132982
-0.00568101
-0.0735693
-0.0596685
0.000812739
-0.081038
-0.0815259
-0.0865485
-0.012505
-0.0456779
-0.12733
-0.0214315
-0.0775339
-0.00596062
-0.100613
-0.0802303
-0.113756
-0.0413962
-0.0410143
-0.00563483
-0.00156715
-0.00556066
-0.0258569
-0.119072
-0.000531796
-0.0749858
-0.110689
-0.0836768
-0.10138
-0.0841777
-0.122961
-0.0773557
-0.00612143
-0.0367946
-0.00524602
0.00169409
-0.123456
-0.0892587
-0.000825798
-0.0411375
-0.000322528
-0.000864895
-0.030187
-0.109864
-0.000138945
-0.000992008
-0.0323063
-0.0243393
-0.0742606
-0.0920753
-5.39093e-05
-0.104222
-0.00872679
-0.0811849
-0.0801177
-0.000796604
0.00022215
-0.115331
0.0035592
-0.116303
-0.0128761
-0.00709571
-0.000501672
0.00488167
-0.0418719
-0.000817248
0.00548607
-0.073415
-0.103342
-0.0664995
-6.13589e-05
-0.0316439
-0.00137989
-0.0986245
-0.114518
-0.105896
-0.0796083
0.00539282
-0.0499745
-0.125448
-0.0553027
-0.0328716
-0.0428696
-0.00335921
-0.00576561
-0.0618224
-9.58859e-05
-0.00922267
-0.00999524
-0.0973825
-0.092913
-0.0722735
-0.0609282
-0.028318
-0.058808
0.000629359
-0.085069
-0.0397481
-0.0679035
-0.0694191
-0.0298764
-0.103144
0.0130099
-0.000542805
-0.116002
-0.00245201
-0.119667
-0.0290741
-0.000846353
-0.00544354
-0.0421812
-0.0436688
-0.0589123
-0.1034
-0.0607665
-0.0219343
-0.0874634
-0.000844294
0.0111828
-0.000242954
-0.02491
-0.0182303
-0.0915411
-0.0040513
-0.0711869
-0.000296994
-0.0282333
-0.00810162
-0.0106361
-0.0079912
-0.0954006
0.00536051
-0.0185065
-0.0560627
-0.0936544
-0.0197127
-0.0304118
-0.0481968
-0.00682879
-0.087221
-0.141279
-0.000834282
-0.110709
-0.0163775
-0.0408842
-0.0287532
-0.137688
-0.0798573
-0.0383055
-0.0309793
-0.0808634
0.00215653
-0.0256031
-0.000921129
0.00358107
-0.0875312
-0.109679
-0.0111507
-0.0504904
-0.133312
-0.131107
-0.118946
-0.000346855
-0.112578
-0.0674187
-0.0811078
-0.00533393
-3.38511e-05
-0.00132689
-0.032907
-0.0750306
-0.0607269
-0.00966433
-0.0127745
-0.081135
-0.0966276
-0.00164233
-0.00785459
-0.0180303
-0.0516805
-0.0824199
-0.120918
-0.00128735
0.0053771
-0.0754409
-0.000843408
-0.0804881
-0.0352405
-0.0811286
-0.00805043
-0.00686621
-0.000151639
-0.00523967
-0.0414226
0.0112594
-0.00306389
-0.0132173
-0.0804681
-0.0592258
-0.00254085
-0.0874378
-0.000860314
-0.000306875
-0.048765
-0.0302795
-0.0606151
0.00173835
-0.0953515
-0.0472769
-0.13464
-0.110379
-0.0159314
0.00276228
-0.00531119
-0.0729077
-0.000768237
0.00207904
-0.0237973
-0.0398993
-0.0811817
-0.000342741
-0.0161224
0.00222803
-0.0757609
-0.132864
-0.0770355
-0.0337927
-0.0810344
-0.0899674
-0.117349
-0.122547
-0.00169589
-0.00160093
-0.0870877
-0.11895
0.00081081
-0.0522938
-0.0338883
0.00769401
-0.140582
-0.0799351
-0.0006138
-0.0561758
-0.0752792
0.0018374
-0.129821
-0.0682298
-0.0209972
-0.043981
-0.130696
-0.00225769
-0.0693202
0.00194594
-0.0573918
-0.0443485
-0.0960349
0.00957979
-0.0187774
-0.0031474
-0.116036
-0.0714266
-0.0526138
-0.0762692
-0.000325505
-0.0314894
-0.0297902
-0.0024726
-0.060383
-0.0326452
-0.0419687
-0.010514
-0.0156343
-0.0112304
-0.00694325
-0.000506652
-0.0889896
-0.00118018
-0.0288836
0.00197853
-0.000361757
-0.134157
-0.0257168
-0.00191329
-0.0904832
-0.129469
-1.40426e-05
-0.0126391
-0.0307585
-0.0268243
0.000326278
-0.00093874
-0.0111711
-0.00547065
-0.108425
-0.0294727
0.00303437
-0.0982976
-0.00182699
-0.00119046
0.00137905
-0.00555503
-0.0457155
-0.0685673
-0.090256
-0.0904314
-0.0176437
-0.000205189
-0.000474325
-0.0786383
-0.0660489
-0.0816001
-0.0138718
-0.0776851
-0.0406494
-0.02363
-0.0289222
-0.0167921
-0.109696
-0.000920572
-0.0958265
-0.000400361
-0.0870529
-0.000737089
-0.000949517
-0.000874508
-0.0810847
0.0122326
-0.0319241
-0.0657112
-0.00888705
-0.0782011
-0.0108058
-0.00446732
-0.0559217
-0.0243154
-0.0582705
-0.000420354
-0.0292023
-0.0807277
0.000209812
-0.0199524
-0.00361453
0.00361404
0.00989263
-0.00279092
-0.0597667
-0.0435069
-0.00176583
-0.0751954
-0.0247069
-0.00678813
-0.000338834
-0.124338
-0.0134603
-0.109838
-0.0862762
-0.0119486
-0.0202141
-0.0386324
-0.116955
-0.0797086
-7.14771e-05
-0.0710956
-0.00797932
-0.0819867
-0.0810515
-0.0352125
-0.0335634
-0.0186631
-0.123803
-0.0653253
-0.000522754
-0.00516437
-0.0759858
0.000411007
-0.0165137
-0.0454144
-0.030518
-0.058997
-0.0805895
-0.0241355
-0.0298139
-0.0933982
-0.04418
-0.0957218
0.00789795
-0.122835
-0.0604107
-0.0797572
-0.0158866
-0.000206361
-0.0102108
-0.0446827
0.00280855
-0.0828897
-0.0992494
-0.0207995
0.00176383
-0.0969364
-0.0938984
-0.0802077
-0.0817353
-0.099137
-0.0605061
-0.00692724
-0.081357
-0.0506148
-0.0676961
-0.000894272
-0.0321283
-0.000750337
0.01507
-0.000320412
-0.0847909
-0.077972
0.00632837
-0.076659
0.00891232
-0.0806998
0.0129009
-0.108859
-0.134823
-0.117732
-0.0726123
-0.0240465
-0.0581565
-0.123381
-0.126232
-0.000650105
-0.0393029
-0.00428768
-0.105449
-0.081652
-0.0599417
-0.0892136
-0.00112181
-0.0196982
-0.129422
-0.0358698
-0.077464
-0.0366389
-0.10023
-0.0283311
-0.00664165
-0.0792897
-0.068837
0.00307223
-0.0312627
0.0138666
-0.114045
-0.00498388
0.00130015
0.0049319
-0.0366658
-0.051279
-0.0219705
-0.0011498
-0.0271236
-0.0797469
0.00282707
-0.0794008
-0.00160453
-0.00873991
0.000399794
-0.0855553
-0.084563
0.00393428
-0.0785983
-0.00492184
-0.0202858
-0.000518871
-0.076369
-0.10666
-0.0807974
-0.007257
-0.0944014
-0.0786997
-0.0133361
-0.00520193
-0.0925303
-0.0162984
-0.0132109
-0.00508052
-0.0801474
-4.84441e-05
-0.0880428
-0.0103131
-0.0829311
-0.0805888
-0.0809057
-0.0158321
-0.0796194
-0.0808206
-0.0791174
-0.0816308
0.0119648
-0.0773509
-0.00111041
-0.136131
-0.0164609
-0.0197917
-0.0735595
-0.0773807
-0.0866578
-0.0182852
-0.0160041
-0.00224585
0.00140921
-0.0493314
-0.000517911
-0.0215105
-0.0785396
-0.0906888
-0.0392265
-7.75402e-05
-0.0758469
0.000707109
-0.0035315
-0.0247993
-0.0470669
-0.0304739
-0.0710027
-0.0611768
-0.102302
-0.0638996
-0.0875846
0.0137075
-0.00450874
-0.0325691
-0.0331515
-0.0282839
-0.05051
-0.0408465
-0.080815
-0.00127619
-0.0797622
-0.0838143
-0.0766437
-0.000115028
-0.0810184
-0.0912564
-0.118013
-0.0459055
-0.0782827
-0.110757
-0.1184
-0.0870407
-0.0560514
-0.00658687
-0.0776572
-0.000416576
-0.0115428
-0.0924276
-0.0307104
-0.0648799
-0.000866561
-0.0800527
-0.131645
-0.0806224
-0.00320653
-0.060923
-0.00309708
-0.0794273
-0.100378
0.00226135
-0.0595907
-0.0792948
-0.0261878
-0.132199
-0.0167623
-0.0799999
-0.0542663
-0.0871273
-0.0758783
-0.0712235
-0.000295351
-0.0806154
-0.0035556
-0.0119085
-0.0830635
-0.0612886
-0.0295361
-0.062484
-0.000879455
-0.104459
-0.0021471
-0.0166401
-0.0554834
-0.0035487
-0.00514488
-0.0815335
-0.0660392
-0.00150938
-0.000978639
0.00255664
-0.0422918
-0.00430095
-0.0169429
-0.0569305
-0.0769187
-0.0172452
-0.12591
-0.112038
-0.12527
-0.0646522
0.00658916
-0.0018977
-0.05171
-0.0710471
0.00417557
-0.133026
-0.0780168
-0.0359513
-0.0566543
-0.0590347
-0.0577893
-0.000289995
-0.0768859
-0.0346747
-0.0540524
-0.00288175
-0.00182329
-0.109861
-0.132329
-0.00683148
-0.0518758
-0.116085
-0.0506048
-0.122409
-0.00276059
-0.06498
-0.0969759
-0.0486019
-0.0464496
-0.071135
-0.126016
-0.052509
-0.112977
0.000307653
-0.0886775
-0.0562754
-0.127544
-0.0294224
-0.0748684
0.000561796
-0.00397823
-0.0807988
-0.00319814
-0.106468
-0.0812192
-0.0477711
-0.000137764
-0.00038971
-0.0025912
-0.0745641
-0.0645998
-0.0517372
-0.0135511
0.0048141
-0.101216
-0.0740803
-0.00684037
0.000908932
-0.136934
-0.000750166
-0.0609372
-0.0398499
-0.0695033
-0.0171434
-0.0801856
-0.114898
0.000983565
-0.0137668
-0.033097
-0.0440589
-0.0429369
-0.0136542
-0.0523627
-0.0763796
-0.0169672
-0.034748
-0.0755907
-0.111727
-0.0247187
-0.0327442
-0.111568
-0.129978
-0.000337752
-0.0167032
0.0117786
-0.080817
-0.0361661
-0.000356708
-0.0105716
-0.0754026
-0.0279251
-0.0732731
-0.0467071
2.14754e-05
-0.000212676
-0.0659543
-0.0804555
-0.0252449
-0.0171979
-0.064678
-0.0455472
-0.000867523
-0.0574528
-0.0121774
-0.0492997
-0.00259796
-0.0832819
-0.0283142
0.0133925
0.00540996
-0.111728
-0.0179602
-0.0405686
-0.000105082
-0.0821413
-0.135582
-0.0315654
-0.0629925
-0.000370198
-0.000157554
-0.000670943
-0.0036372
0.00281775
-0.0475447
-0.0774045
-0.0027288
-0.0748467
-0.0536733
-0.0153817
-0.0767578
-0.010619
-0.00622846
-0.0331704
-0.00175353
-0.0354951
0.000360646
-0.117171
-0.0830206
0.0110774
-0.130389
-0.056805
-0.0958359
-0.0171319
-0.0977791
-0.000432196
-0.0845627
-0.0799144
-0.0635648
-0.118638
-0.101367
-0.0886134
-0.0772392
-0.113642
-0.0358715
-0.0395074
-0.074355
-0.0541049
-0.0795951
-0.0237865
-5.59408e-05
-0.0190433
-0.00275859
-0.00979195
-0.00316385
-0.0945786
-0.0528914
-0.0335546
-0.0315738
-0.0114112
-0.0596815
-0.110406
-0.0938683
-0.130163
-0.0767146
-0.111611
-0.0310376
-0.0245063
-0.0834139
-0.00555777
-0.000506267
-0.0642828
-0.0734717
-0.00251168
-0.0583273
-0.00361704
-0.0426185
-0.0413497
-0.0849318
-0.0852605
-0.067779
-0.0756786
-0.00587314
-0.0508346
-0.0998914
-0.0813285
-0.110195
-0.0590551
-0.0110299
-0.121497
-0.0756183
-0.000373476
-0.00717366
0.00058946
-0.0328724
-0.117168
-0.000122792
-0.080346
-0.10178
-0.00179718
-0.0777436
-0.0744936
-0.0274582
-0.0812648
-0.0776774
-0.00588498
-0.00279858
-7.01263e-05
-0.021683
-0.000413117
-0.100696
-0.041443
-0.0269767
-0.0906658
-0.0148046
-0.080841
-0.090108
-0.0853437
-0.0124925
-0.0532215
-0.00202065
-0.0365807
-0.0155461
-0.0681839
-0.000798144
-0.0830449
0.00973588
-0.0208229
-2.01968e-05
-0.0808127
-0.0239215
-0.101082
6.28892e-05
0.0106842
-0.0194918
-0.0426599
-0.0316193
-0.0218332
-0.0659888
-0.0977922
-0.0441294
-0.0823366
0.010082
-0.10098
-0.0108165
0.00352453
-0.0582016
-0.109885
-0.0680198
-0.00763126
-0.0419742
0.000796897
-0.0122218
-0.0807835
-0.00398867
-0.00116935
-0.00094273
-0.0830636
-0.0553282
-0.108055
0.00107218
-0.044228
-0.000849582
-0.024903
-0.0906738
-0.0558687
-0.0135468
-0.0933214
-0.032237
-0.00176296
-0.0784463
-0.000475599
-0.074692
-0.0873484
-0.000452048
-0.0764177
-0.0211616
-0.0742507
-0.0628941
0.0109124
-0.0871768
-0.00637635
-0.00998239
0.000779099
-0.0782733
-0.0324023
-0.0510524
-0.0662309
-0.0353314
-0.0145623
-0.0887639
-0.0763837
-0.0146779
-0.000392154
-0.0306137
0.00855362
-0.0101273
-0.0862457
-0.0599115
-0.0249781
-0.111407
-0.0419468
-0.0861939
-0.0431619
-0.0809741
-0.0928451
-0.0559995
-0.00276706
0.00529233
0.00173609
-0.0834667
-0.0897341
-0.0161083
-0.109541
-0.0960829
-0.000772476
-0.000726378
-0.0817476
-0.0933009
-0.0829395
-0.0762376
-0.00221044
-0.0815504
-0.0293986
-0.12645
-0.0799333
-0.0409054
-0.0659598
-0.0862319
-0.000930506
-0.0430163
-0.080468
0.00105911
-0.089992
-0.0791207
-0.0480828
-0.045333
-0.000455011
-0.00104307
-0.0137715
-0.0722288
-0.0452362
-0.0286814
-0.116075
-0.0633217
-0.0815597
-0.0974337
-0.0902544
-0.0930406
-0.0137746
-0.0944203
-0.0027632
0.00115481
-0.0760912
0.00231946
-0.0893808
-0.104658
-0.066074
-0.0740285
-0.0798293
-0.0816765
-0.0782306
-0.0556511
-0.0926003
-0.129603
-0.0466943
-0.0505685
-0.022981
-0.100649
-0.0808358
-0.093513
-0.027175
-0.0895181
-0.00786655
-0.00216325
-0.0619528
-0.0153973
-0.0170921
-0.0941891
-0.0645583
-0.121337
-0.0661615
-0.0983122
-0.0958714
0.000161518
0.0109331
-0.0939128
-0.000123114
-0.0180409
-0.00994663
-0.0517025
-0.135015
-0.115776
-0.137614
-0.0987437
-0.0274296
-0.0175925
-0.0860814
-0.0326885
-0.0518819
-0.0442404
-1.75983e-05
-0.0124726
-0.0799464
-0.09541
-0.0982448
-0.0385983
-0.0764907
-0.131153
-0.128725
-0.0765008
-0.0800484
-0.000884166
-0.0792423
-0.104842
-0.00170527
-0.0639946
-0.095261
-0.0801934
-0.0658116
-0.0184971
-0.0802902
-0.0989806
-0.00342699
0.00615998
-0.0211159
-0.107347
-0.075547
-0.0417691
-0.100341
-0.0850149
-0.138449
-0.107597
-0.0196386
-0.0993211
-0.103377
-0.0539409
-0.0720129
-0.0420591
-0.0886116
0.000363542
-0.0431317
-0.128646
-0.139634
-0.005758
-0.12783
-0.0116262
-0.104291
-0.101214
-0.0647108
-0.112521
-0.0692701
-0.000976439
-0.0828362
-0.100685
-0.100926
0.00161921
-0.00392008
-0.0420438
-0.0747905
-0.100747
0.0153215
-0.0261563
-0.118896
-0.135437
-0.0953147
-0.0800345
-0.0414865
-0.10701
-0.119939
-0.0566746
-0.109891
-0.120107
-0.101596
-0.01533
-0.0671623
-0.111209
0.00329199
-0.101592
-0.10407
-0.0238255
-0.106543
-0.00556038
-0.0162188
-0.00190056
-0.00584295
-0.0507291
-0.0974238
-0.00078924
0.00760751
0.00605177
-0.10434
-0.0600422
-0.117844
-0.102129
-0.00283921
-0.087835
0.00782865
0.00727385
-0.00665132
-0.0733128
0.000457073
-0.0790607
-0.110623
-0.0417483
-0.00832288
-0.0412073
-0.0646453
-0.00575302
-0.0117233
0.000669197
-0.021595
-0.116173
-0.00190205
-0.013359
-0.112268
-0.000207836
-0.0785479
-0.000791098
-0.111429
-0.0623672
-0.102027
-0.0201254
-0.0408287
-0.128158
-0.0765059
-0.0556578
-0.0875093
-7.26242e-05
-0.121111
-0.027185
-0.0112453