/*--------------------------------*- C++ -*----------------------------------*\
| =========                 |                                                 |
| \\      /  F ield         | OpenFOAM: The Open Source CFD Toolbox           |
|  \\    /   O peration     | Version:  v2012                                 |
|   \\  /    A nd           | Website:  www.openfoam.com                      |
|    \\/     M anipulation  |                                                 |
\*---------------------------------------------------------------------------*/
FoamFile
{
    version     2.0;
    format      ascii;
    class       surfaceScalarField;
    location    "400";
    object      phi;
}
// * * * * * * * * * * * * * * * * * * * * * * * * * * * * * * * * * * * * * //

dimensions      [0 3 -1 0 0 0 0];
oriented        oriented;


internalField   nonuniform List<scalar> 
21967
(
0.0608264
-0.465819
0.404993
0.655889
-0.249449
-0.40644
0.0739211
-0.0789579
0.00503676
-0.398473
-0.14163
0.540103
0.325527
-0.204011
-0.121517
-0.133669
0.424366
-0.290696
9.65245e-05
-0.0054093
0.00531278
0.251213
-0.0651499
-0.186063
0.136658
-0.573485
0.436827
-0.389153
-0.196089
0.585242
0.0758894
0.497948
-0.573838
0.00625289
-0.00678543
0.000532544
-0.389899
-0.189896
0.579795
-0.302145
0.0105016
0.291643
-0.0292539
0.0167336
0.0125203
-0.506004
0.225567
0.280437
-0.000381754
0.000245182
0.000136572
-0.0541883
-0.247956
-0.245899
-0.260105
0.562516
-0.501689
0.670576
-0.35422
-0.316356
0.138959
0.186568
-0.454558
0.39103
0.0635281
0.289883
-0.428937
0.139054
0.320697
-0.438011
0.117314
0.00097248
0.00541233
-0.00638481
0.00413076
-0.00403423
0.571932
-0.0833755
-0.488557
-0.0168185
-0.0124354
-0.0258812
0.000133711
0.0257475
0.0896126
-0.0963435
0.0067309
-0.000621502
0.000239748
0.203156
0.10758
-0.310737
0.247449
0.00376422
0.0600388
-0.00317002
-0.0568688
0.174609
-0.569152
0.394543
-0.45475
0.595344
-0.140594
0.425892
-0.136009
-0.026805
-0.0773253
0.10413
-0.424939
-0.12419
0.549129
-0.00539836
0.118026
-0.112627
0.114319
-0.141124
0.0204633
-0.179253
0.15879
-0.186797
-0.17082
0.357616
-0.200425
-0.0125696
0.212995
-0.0389463
-0.00555222
0.0444986
-0.00973089
-0.101514
0.111245
0.13869
-0.537163
0.205021
-0.194041
-0.01098
0.257782
0.412794
0.610526
-0.319571
-0.290955
-0.592436
0.604346
-0.0119099
0.710607
-0.475089
-0.235518
-0.440644
-0.0139139
-0.067575
0.270731
0.113441
0.458491
-0.00371882
0.0046913
0.00100384
-0.000758654
0.277949
-0.246331
-0.0316178
0.235381
-0.625281
-0.0003532
-0.000268302
-0.012008
0.0720469
0.132541
-0.564505
0.431964
0.382414
0.273475
-0.216788
0.386257
-0.169469
0.000610583
0.00564231
-0.463322
0.353712
0.10961
0.0818826
0.390543
-0.472426
0.306125
-0.695278
0.111417
-0.3615
0.250083
-0.362916
0.114707
0.248209
-0.37888
0.460762
-0.257772
0.347521
-0.0897489
-0.176311
-0.0208884
0.197199
-0.0608328
-0.0248628
0.0856957
0.313583
0.296944
-0.149558
0.419832
-0.270274
-0.227637
0.214196
0.013441
-0.161074
0.609946
-0.448872
0.153659
-0.317198
0.163538
-0.20774
0.3614
0.607854
-0.106302
-0.501552
-0.0139462
-0.163222
0.177168
0.0154409
-0.000114858
-0.015326
0.660088
-0.660088
0.326774
-0.44922
0.122446
-0.00409004
0.518195
-0.514105
0.178205
0.362215
-0.54042
-0.319371
0.227451
0.0919197
-0.194711
-0.12466
-0.0236172
0.137789
-0.114172
-0.352606
0.530811
0.122931
-0.54787
-0.361524
0.533329
-0.171804
-0.610393
0.313945
0.296448
0.0316198
-0.0153684
-0.0162514
-0.483575
0.619892
-0.136316
-0.189924
-0.378366
0.135882
0.242485
0.0644691
0.543385
-0.048264
0.00931764
0.123659
-0.0199937
-0.103665
-0.0217681
0.132671
-0.110903
0.0526374
-0.269426
0.138072
-0.158419
0.0203469
0.41144
-0.0907428
0.484426
-0.148273
-0.336153
-0.552557
-0.0291211
0.581678
-0.332201
-0.0461658
-0.00272486
0.00261061
0.000114252
-0.467646
-0.0849112
0.367114
0.117312
0.00221726
-0.00185836
-0.0448405
-0.182056
0.226896
0.259975
-0.306344
0.0463688
-0.0732769
0.0749173
-0.00164038
-0.013274
-0.105312
0.118586
-0.170303
0.190766
-0.491767
0.200201
0.291566
0.435392
-0.583128
0.147735
-0.075793
0.0149602
0.151804
-0.0137328
-0.472249
0.110724
0.141267
-0.155213
-0.2662
0.12506
-0.169901
-0.481146
0.477055
-0.71483
0.378976
0.335854
0.0779135
-0.143063
0.00020041
-0.0260816
-0.569994
0.423784
0.14621
0.00873822
0.0228816
0.56636
-0.429701
0.14976
-0.0714015
-0.0783584
0.214014
0.496594
-0.162653
0.0147939
0.147859
-0.0490154
-0.0670919
0.116107
0.0459634
-0.394834
0.348871
-0.00187188
0.124561
-0.167037
0.0424758
-0.537767
0.0830173
-0.159343
-0.420656
0.579999
0.391872
-0.345909
-0.336701
0.149905
-0.101123
0.123596
-0.0224724
0.362307
-0.566354
0.204048
0.119825
-0.133099
-0.147601
0.0702757
0.0121644
-0.0149391
0.00277472
-0.506505
0.401107
0.105399
-0.399296
-0.0640263
-0.418261
-0.151733
0.0699594
-0.0917275
-0.123511
0.0223875
0.159314
-0.625133
0.409292
0.157811
-0.567103
-0.329923
0.399945
-0.0700217
0.32456
-0.292131
-0.032429
-0.458021
0.390968
0.0670535
0.0146533
-0.00248887
0.617059
-0.259463
-0.357596
-0.59873
0.434803
0.163927
-0.334549
-0.380281
0.407017
0.241835
-0.305721
0.0638859
-0.00948458
0.00847884
0.00100574
-0.471065
-0.170961
0.642026
-0.318845
-0.291548
0.364225
-0.582013
0.217788
0.115287
0.209273
0.305974
0.311085
-0.254304
-0.00346818
0.0108133
0.0493653
-0.0601786
-0.111346
0.473653
0.214066
-0.235727
0.0216609
0.0126361
-0.00223439
-0.0104017
-0.141963
-0.00670631
0.148669
-0.00332678
0.00393736
0.0774202
-0.0666069
0.580572
-0.216347
0.668326
-0.317825
-0.350501
-0.00105287
0.206074
-0.337184
0.438128
-0.100944
0.222195
0.0557544
-0.213671
0.598545
-0.384874
0.00308047
0.0723514
-0.0754319
-0.112659
-0.0499933
0.0105639
-0.00981328
-0.000750581
0.0315676
0.118192
-0.549122
0.0780566
0.598117
-0.320103
-0.278014
0.0625302
-0.000183056
-0.0623471
-0.000155915
-0.00395572
0.00411163
0.249384
-0.326744
0.0773601
-0.0657315
0.0638607
0.00187077
-0.147618
-0.0620504
0.209668
0.0861632
-0.098223
0.0120598
0.00999652
0.00056734
-0.425302
0.0881177
0.0540678
-0.0437217
-0.0103461
-0.0894702
0.430659
-0.341189
0.429354
-0.585121
0.155767
-0.145333
-0.453397
0.00942088
0.070809
-0.0802299
-0.353281
0.219612
-0.15029
0.148028
0.00226175
0.086672
0.00294059
0.416456
-0.325702
-0.0907531
0.0152548
-0.191566
-0.563084
0.468168
0.0949156
-0.516405
0.512181
0.00422431
-0.062934
0.0660145
0.139813
-0.560469
-0.539372
0.397742
-0.00386933
0.0466614
-0.0427921
-0.517079
-0.0404994
0.557578
0.418785
0.0467392
-0.465524
0.325471
-0.499051
0.17358
0.0619215
-0.110937
-0.016779
0.433235
-0.367432
0.0905191
0.276913
0.175667
-0.0788639
-0.0968031
0.626085
-0.456469
-0.169615
0.444823
0.135749
0.00493823
-0.018947
0.0140087
-0.135382
-0.0149083
-7.89148e-05
0.012715
-0.532903
0.0158241
-0.214959
0.530406
-0.315448
-0.143341
-0.0137857
0.157127
-0.182272
-0.0453641
-0.00068078
-0.0650507
0.449633
-0.362928
-0.0867049
-0.0297549
-0.162451
-0.0299127
0.192364
0.362281
-0.0355074
-0.0250897
-0.0514579
0.0765476
0.101417
-0.0152542
0.460285
-0.20671
-0.253575
0.105125
0.0303677
-0.135492
-0.0100034
0.0087894
0.00121402
-0.210218
0.208151
0.00206703
0.169748
0.0492165
-0.218965
0.00674782
-0.00145781
-0.430514
-0.145073
0.575587
-0.554745
0.153055
0.401689
-0.213604
-0.00700204
0.220606
0.00058108
-2.7321e-05
-0.000553759
-0.289676
0.21376
0.0759163
0.310836
-0.0643355
0.0740725
-0.00973708
-0.00396984
0.127629
0.193237
0.321928
-0.387551
0.0656224
-0.0222808
0.476041
-0.45376
0.368016
-0.493045
0.125029
0.0168915
-0.00145059
-0.0574616
-0.00857571
0.0660374
0.0010158
0.053052
0.00630917
0.000438651
0.430333
-0.108405
-0.117515
-0.320496
0.414508
-0.436789
0.347378
-0.551292
0.203914
0.250455
0.347662
-0.000191204
0.00688089
-0.00668968
-0.557129
0.397642
0.159487
-0.146114
0.51413
-0.000938639
-0.0151945
0.0161331
0.54937
-0.416828
0.36173
-0.492828
0.131099
0.0047216
0.140028
-0.14475
-0.115183
0.109785
-0.00454314
-0.00546028
0.161502
-0.164831
0.00332965
-0.175021
-0.0174
-0.499005
0.189754
-0.142045
-0.0477093
0.42518
0.0282556
0.147411
-0.456755
-0.100374
-0.037086
0.0386342
-0.00154823
0.337574
0.11206
-0.00214372
0.234504
-0.23236
0.342646
0.117639
0.00883267
-0.00755291
-0.00127976
-0.228736
0.000458766
0.00386085
-0.00431961
0.55966
-0.316138
-0.243522
-0.00667374
0.00862884
-0.0019551
0.00538253
-0.00557373
0.0647347
0.12502
-0.133302
0.578125
0.0675888
-0.0795968
0.120848
0.305044
0.308331
-0.0483563
-0.0574644
0.0647441
-0.00727964
-0.315589
0.423008
-0.107419
0.049554
-0.25157
0.202016
0.55292
-0.400229
-0.152691
0.735064
-0.4612
-0.273864
0.224816
-0.239218
0.0144018
0.300197
0.207166
0.00702924
0.344117
0.281967
0.0756636
-0.0332662
-0.0423974
0.113339
-0.440538
0.327199
-0.575735
0.446786
0.128949
-0.00154976
0.0279717
-0.026422
-0.103791
-0.236498
0.340288
-0.0817941
0.483127
-0.401333
0.474864
-0.149394
-0.067698
0.0625175
0.00518054
-0.364763
-0.142497
-0.000844142
-0.585475
0.550526
0.0349496
-0.311531
-0.707352
0.323593
0.383758
-0.0856794
-0.711146
0.146939
0.564207
0.333911
0.401153
-0.345989
0.119159
0.22683
0.0746503
-0.09974
-0.0717265
0.0042247
0.0675018
-0.110519
-0.160286
0.579718
-0.419432
-0.233811
-0.133621
-0.0831834
0.00990648
0.0536564
-0.0675507
0.0138943
-0.186145
0.184533
0.00161223
-0.229118
-0.0596549
0.288773
-0.425667
0.465493
-0.0398254
0.104811
-0.00275731
0.00321607
0.34578
-0.511241
0.165461
0.00876497
6.77011e-05
0.18177
-0.0202686
-0.00275299
0.00264053
0.000112456
0.0762829
-0.00393148
0.00209123
-0.00853397
0.0107704
-0.00223641
-0.0345317
0.111698
-0.0771666
0.00507201
0.000665208
-0.00573722
0.0727236
0.00219372
-0.318147
0.45796
-0.354673
0.205115
0.0291991
0.00145253
-0.0306516
0.0041444
-0.00430032
0.548836
-0.119481
-0.39272
0.26935
0.12337
0.196375
-0.217263
0.432114
0.139553
-0.571666
0.575914
-0.254653
-0.321261
-0.0376308
-0.102267
0.139898
0.538305
-0.402875
-0.135429
0.765912
-0.432001
0.0199569
-0.201555
0.181598
-0.569338
0.138824
-0.00597031
-0.0657562
0.444373
-0.35938
-0.0849927
-0.336639
-0.00984172
0.34648
-0.604018
0.514125
0.0898927
0.126296
-0.116922
-0.00937414
0.0454382
-0.0424689
-0.00296931
-0.00214776
-0.000605225
0.00651086
0.218305
0.104517
0.339857
-0.0201733
0.0911909
0.0421983
0.00323992
-0.0555681
-0.281071
0.328887
0.437025
-0.0140705
0.0148881
-0.000817563
0.710898
-0.305072
-0.405826
-0.150978
-0.0432332
0.194211
0.568815
-0.492926
0.00680215
-0.0697362
0.00197894
-0.00230783
0.000328898
0.613197
-0.115249
-0.608767
0.26032
0.348447
-0.0234527
-0.134813
0.158266
0.356909
-0.438703
0.506895
-0.0253397
0.0217465
0.00359327
0.248276
0.06256
0.233143
0.477754
-0.553881
-0.0392159
0.593097
0.37428
0.201635
0.479666
0.0586386
-0.00934786
0.0142861
-0.56258
0.0790041
-0.0333971
-0.00368896
0.185462
0.107309
-0.29277
-0.221307
0.016005
0.205302
-0.14656
-0.564586
-0.107567
-0.00443191
0.00646297
-0.00203107
0.0943544
-0.126345
0.0319902
0.000601236
-0.186813
0.186212
0.239916
-0.0258501
-0.00287508
0.12498
-0.122104
0.325305
-0.260514
-0.0647905
-0.358315
0.437681
-0.0793663
0.0110356
-0.00928414
-0.00175147
0.0640035
-0.0103471
0.140195
-0.0765247
-0.0636703
-0.185978
-0.103698
0.226891
-0.0660987
-0.160792
-0.620709
0.474149
-0.413451
-0.0018473
0.415299
-0.571939
0.411654
-0.514716
0.632499
-0.117784
0.172089
-0.160094
-0.0119957
0.00022788
0.000582717
0.480126
-0.366787
0.0528901
-0.478557
-0.0484318
0.266023
-0.217591
0.496616
-0.399913
-0.096703
-0.0540387
-0.308878
0.19801
0.127295
0.0554902
-0.271872
0.173705
-0.0250099
-0.148696
-0.0533707
0.0407452
0.0126255
0.326626
-0.49158
0.164954
0.546506
-0.454033
-0.0924735
-0.135521
0.10099
0.000538943
-0.00163008
0.00109113
-0.152138
0.166385
-0.0142478
-0.158714
0.385639
-0.226925
0.419757
0.129079
-0.594283
0.436095
0.158188
-0.134937
-0.077152
0.212089
0.0301777
-0.0348334
0.0046557
0.322435
-0.423874
0.101439
-0.0271941
-0.0261765
-0.222764
0.175009
0.0477557
0.00139453
-0.000855587
0.413325
0.133181
-0.0345069
0.0351762
-0.000669324
0.00146255
-0.0994789
0.363718
-0.264239
0.026143
0.200748
-0.527314
-0.0651221
-0.0400414
0.220532
-0.18049
-0.211271
-0.102406
0.016789
0.0856175
-0.188895
0.515521
-0.441652
0.352182
-0.0895724
0.0836021
0.104893
0.0353017
0.206762
-0.280463
0.0737018
0.0347135
-0.0347261
1.26433e-05
0.116758
-0.0224032
-0.0112811
-0.0016943
0.0129754
0.333517
-0.60019
0.266673
-0.0623246
0.0665493
0.297703
-0.547152
-0.165581
-0.328239
0.307556
0.0206836
0.233716
0.0746159
0.0079087
0.505295
-0.17711
-0.328185
0.181799
-0.230231
0.393604
-0.492826
0.0992223
-0.0048577
0.0018873
0.143612
-0.183654
-0.180122
0.365584
-0.0148568
-0.00138758
0.0162444
-0.302397
0.202919
-0.0992246
0.543439
-0.404749
-0.00779267
-0.00128268
0.00907535
0.00255062
0.00618043
-0.00110842
0.00725804
-0.158891
0.158461
-0.0885019
0.756426
-0.427539
-0.143571
0.147999
-0.00442769
-0.407312
0.285647
0.121665
-0.0166015
-0.0352717
0.0314023
0.102915
0.0555459
-0.0719923
0.0776036
-0.00561121
-0.200114
0.707009
0.0627991
-0.231393
-0.11786
0.349253
0.0472435
-0.00951337
-0.0377302
0.00122233
-0.0300685
-0.0044384
0.00881922
-0.00698317
-0.00183605
-0.136305
0.150979
-0.0146733
0.0360733
-0.187051
0.00503286
-0.0210114
0.0159785
0.190831
-0.555113
0.364282
0.582491
-0.386378
-0.196113
-0.383842
0.142749
0.241092
0.415923
0.166568
0.188513
0.191671
-0.19107
-0.405437
0.128075
0.277362
0.451354
0.00187726
0.354866
0.0694992
0.142484
-0.448375
0.30589
-0.157947
0.0216419
0.336807
0.168489
-0.14136
0.577456
0.0641147
-0.0546938
-0.15803
-0.0266264
0.0344574
-0.00783097
-0.17817
-0.136087
0.0296329
0.252973
-0.0462116
0.0140669
-0.0133684
-0.000698547
-0.00376611
0.0331749
-0.0294088
-0.341462
0.527269
-0.185806
-0.0823425
-0.247187
0.32953
0.625127
-0.374672
0.116676
-0.119551
0.0310363
-0.000858553
0.00773121
0.118565
-0.00932541
-0.00116857
0.010494
-0.00133194
0.0140178
-0.0126859
-0.00396607
0.123791
0.0166003
-0.00813411
-0.00846621
0.00145204
0.0182719
-0.0197239
-0.106879
0.103763
0.00311648
0.66097
-0.332836
-0.328134
-0.158221
0.567513
-0.000872185
-0.201737
0.054119
0.166873
-0.1308
-0.656478
0.355486
0.300992
0.324172
0.336798
-0.391247
0.129337
0.26191
0.153436
-0.167222
0.0118525
-0.0127911
-0.0889953
0.411431
-0.0353158
0.0328748
0.002441
-0.515865
-0.0131037
0.528969
-0.380961
0.325393
-0.313166
-0.245482
0.558648
0.0652374
-0.370703
0.305466
-0.0148141
-0.518455
0.10799
0.410465
0.327051
-0.446476
0.119425
0.180406
0.479682
-0.513149
-0.606126
0.00210867
-0.459372
0.11791
-0.383244
-0.191152
0.574396
-0.168417
0.0918175
0.0765998
-0.316655
0.507486
-0.0319887
0.241319
0.03666
-0.277979
0.32093
-0.419491
0.0985616
-0.00543994
-0.00147754
0.00691748
-0.241181
-0.415297
-0.000787946
0.00122342
-0.000435475
0.380022
0.14235
-0.522372
0.0587849
0.207238
-0.358024
-0.0504245
0.408449
-0.140357
-0.0016054
0.376543
-0.590215
-0.0189641
0.200874
-0.18191
0.0307681
-0.00968637
-0.0210817
0.518619
-0.0988623
0.0120641
-0.233371
0.074973
-0.118862
0.0438891
0.00438841
-0.0687239
-0.0110679
-0.00246201
0.0135299
-0.217199
-0.223445
0.238636
-0.113576
-0.109032
0.0047746
0.324463
0.218424
-0.542886
-0.496309
-0.0575722
0.0425857
-0.0316555
-0.0109302
-0.513302
0.00379833
0.509504
0.00823357
-0.19361
0.00126631
0.000836166
-0.562703
0.0533706
0.509333
-0.0238653
0.505854
-0.481989
0.134783
-0.537112
0.402328
0.589554
-0.61012
0.0205663
0.462893
-0.138431
0.358533
-0.425613
0.0670797
0.453541
-0.0998289
-0.0165158
-0.142481
0.158997
0.100692
0.310748
0.0168268
-0.0153747
-0.00401133
0.00449547
-0.000484135
0.00244921
-0.002739
0.000289782
-0.0916269
-0.0767904
0.434873
-0.107822
-0.00186457
0.0310636
0.0608867
-0.0605658
-0.000320846
-0.530317
0.411796
0.118521
0.0711043
-0.300222
-0.000523052
0.00297227
0.160133
-0.179097
-0.271173
-0.235332
0.163876
-0.0393145
-0.263172
-0.273653
0.00854974
0.343452
-0.462678
0.119227
-0.0956064
0.103417
-0.00781107
0.0370058
-0.00229237
-0.136185
0.156142
0.00021589
0.555663
-0.136878
-0.129587
0.473039
-0.0113463
0.0163791
0.564004
-0.13189
-0.164704
0.163265
0.00143909
0.0177443
-0.094269
-0.144256
0.13755
-0.00394217
0.00143006
0.00251212
0.373998
0.017367
-0.391365
-0.23865
0.350067
0.0561756
0.0705118
-0.303141
0.232629
-0.278502
-0.230328
0.50883
0.330808
0.103176
-0.433984
-0.528231
0.014929
0.44286
0.110062
-0.552923
0.00263235
8.18042e-06
-0.538704
0.0228384
-0.115668
-0.570159
0.409084
0.101615
-0.111346
-0.268699
0.0790374
0.189662
0.156863
-0.162827
0.00596395
-0.0217145
0.26355
0.30556
-0.121835
0.388023
-0.266188
-0.127235
-0.247881
0.375116
0.215647
-0.00848097
-0.53499
0.151746
0.394034
0.124585
0.0553646
0.348344
-0.403709
0.535323
-0.412391
-0.53505
0.0782949
0.154306
0.000334324
-0.15464
-0.0708389
0.000809422
0.000461522
-0.00127094
0.121251
-0.647393
0.251861
0.395532
0.0152431
-0.140914
-0.346702
-0.158349
-0.0209043
0.00168086
0.0177331
0.230218
-0.247951
0.120285
0.203179
-0.323464
0.268557
0.169571
-0.0424121
0.00313049
0.0392816
-0.295837
-0.162184
0.298879
-0.281146
0.037837
-0.00737954
-0.0304575
-0.0306733
0.0329753
-0.00230199
-0.0125793
0.0661905
-0.0536112
0.457451
-0.110073
0.443285
-0.562444
0.119159
0.00045942
-0.0240217
0.0235622
0.234731
-0.236875
-0.397587
0.0395628
-0.505244
0.226742
0.0109495
-0.224554
-0.0653409
0.329482
0.0181172
-0.347599
-0.0612005
0.453073
-0.0852863
0.0804369
0.00484937
0.00102304
0.554192
-0.110907
0.261003
-0.105283
-0.155719
-0.139376
0.115759
0.00378414
-0.420402
0.308251
0.112151
-0.172088
-0.325009
0.497097
-0.0661517
0.0725797
-0.00642795
0.648054
-0.414911
-0.143145
0.350905
-0.0600073
-0.290898
0.459817
-0.547181
0.0873639
0.0204181
-0.0199587
-0.0132006
0.00213272
-0.311981
0.377218
-0.174231
-0.0125815
0.268971
-0.441059
0.324513
0.105821
0.354752
0.125374
0.00443333
0.152429
-0.00100716
-0.0017177
0.333866
0.314188
0.0251295
0.654657
-0.19484
-0.461329
-0.0877932
0.00324283
0.0381343
-0.0413771
-0.00101584
-0.000491785
0.00150763
2.23508e-05
-0.00403368
-0.0820858
0.0306279
-0.353147
0.408511
0.00311089
0.297103
-0.486101
0.188998
0.0296776
0.231325
0.00937229
-0.000734105
-0.00863819
0.00144498
-0.00318782
-0.000138959
-0.0447267
0.1197
0.473284
-0.00794292
-0.465341
-0.0553701
-0.530105
-0.00517929
-0.110004
-0.0222856
-0.0130302
0.431291
-0.330599
0.0676158
0.21006
-0.277676
-0.373198
-0.17257
0.545768
0.175808
-0.021502
0.0643001
-0.0553115
-0.00898858
-0.0092347
-0.0530899
0.182935
-0.341649
0.447108
-0.101328
-0.478512
-0.142196
0.336713
-0.00723124
0.000221029
-0.245266
-0.138576
-0.333916
-0.106621
-0.195835
-0.386178
0.000477697
-0.00301428
0.213765
-0.537355
0.323591
0.107376
-0.447867
0.340491
-0.50282
-0.0598832
-0.00439253
-0.0559402
0.0603327
0.12855
-0.152002
-0.277918
0.282429
-0.103181
-0.427136
0.280864
-0.213248
-0.000106645
-0.0926136
0.325614
-0.233001
-0.00308109
0.070409
-0.385592
0.520375
0.488973
-0.540085
0.0511113
0.214549
-0.307163
-0.191543
0.151641
0.0399018
-0.223768
0.282553
0.00395507
0.204196
0.0147888
-0.0172508
0.2168
-0.187104
-0.0296959
-0.118783
-0.0772688
0.00239861
0.0584881
0.236748
0.38838
-0.108608
-0.339766
0.0948519
0.347317
-0.442169
-0.00221083
0.00268853
0.00581103
-0.00017759
-0.00618772
0.00636531
0.00863482
-0.101136
0.0925008
0.524179
-0.417202
-0.106977
-0.56693
0.0884175
0.0138949
0.0029966
0.148945
-0.363904
-0.00193016
5.55965e-05
0.00187457
0.000306442
-0.00251727
0.443638
-0.336263
0.106392
0.380759
-0.48715
-9.90249e-05
0.00800731
-0.00790829
0.256165
0.0540228
-0.310188
0.188386
0.0502494
0.372066
0.0477659
-0.00353717
0.00394992
-0.000412747
-0.298407
-0.194639
-0.00780594
0.100318
-0.0925121
0.632156
-0.251159
-0.380997
0.216521
0.383706
0.0156601
-0.00176521
-0.238534
0.00521359
0.233321
0.0762244
-0.0962182
-0.0586146
0.0599658
-0.00135117
0.0488702
-0.443704
-0.328611
0.423463
0.0374665
0.00511925
-0.228395
5.15826e-05
0.228343
-0.31884
0.451623
-0.118106
0.443504
-0.118992
-0.00778172
-0.252411
0.186312
-0.0705443
0.305122
0.12617
-0.438817
0.511328
-0.0725115
0.112271
0.384345
-0.00421951
0.00696913
-0.00274961
-0.440182
-0.160008
-0.546806
0.104076
0.44273
-0.0990236
-0.00973224
0.108756
0.112432
0.497514
-0.202612
0.273124
0.495947
0.00854289
-0.504489
-0.122924
0.140668
-0.42521
-0.0920069
0.517217
0.433217
-0.123866
-0.309351
0.0291272
0.00787869
-0.11754
0.53526
-0.417719
0.0141319
-0.00748722
-0.0182369
-0.318464
0.0909926
-0.0712599
-0.0197327
-0.124727
-0.48404
0.391763
-0.000795605
-0.00148949
0.00932947
-0.00783998
-0.203946
-0.122798
0.0350643
-0.00593717
0.320313
-0.381513
-0.0391442
-0.461587
-0.111898
0.397319
-0.128761
-0.0136725
-0.0540255
0.117963
0.425476
0.395424
-0.513121
0.117697
0.438618
-0.462483
-0.103627
-0.004809
-0.0301729
0.0349819
-0.0987904
-0.335844
0.434634
0.236701
-0.379339
0.142638
0.00754898
0.193325
0.6131
-0.455289
0.0357273
-0.0324844
0.282807
0.152066
-0.00883687
-0.000647703
0.520613
-0.402649
0.239224
0.00480859
0.0259595
0.101823
-0.0906778
-0.0111454
0.434141
-0.423218
-0.0109226
-0.327048
0.199813
-0.0575988
0.00157966
-0.00127322
-0.0345544
0.0430548
-0.00850036
0.357213
-0.513688
0.156475
-0.309734
-0.103717
0.422261
-0.34104
-0.081221
0.466161
0.105872
-0.572033
0.55152
-0.0853591
-0.106659
0.0168453
-0.0169602
0.0898752
-0.0564731
-0.0334021
0.353206
0.0690548
-0.00111921
0.155995
-0.154875
-0.0814761
0.407918
-0.326442
0.313983
0.119234
-0.00504869
0.00445664
0.000592058
-0.00831898
-0.109288
0.299045
-0.0507684
0.235918
0.00429057
-0.544095
0.426555
0.492573
-0.13536
0.0598726
0.03112
0.300883
-0.0447178
0.00764389
-0.0790659
0.33532
-0.0785797
-0.256741
0.279585
-0.164878
0.503999
0.131111
0.403552
0.149368
0.150981
0.196503
-0.00012847
-0.00149231
-0.0129416
0.0144339
-0.57119
0.0287197
-0.45393
-0.40896
-0.145785
-0.334454
0.632157
-0.0372826
-0.167897
0.205179
0.486823
-0.244117
0.46704
0.0332261
-0.035197
0.00197095
0.0692438
-0.00538312
-0.25699
0.204007
0.0529826
0.474424
-0.119672
0.00230141
0.0142989
0.495315
-0.198212
-0.0762379
0.289585
-0.213347
0.0010492
-0.0123303
-0.327416
-0.0798953
0.246576
-0.0629595
0.00701925
0.0344207
0.00757038
0.125845
-0.133416
0.0567383
0.033137
-0.209052
0.0717943
0.137258
0.641163
-0.444816
-0.196347
0.57861
-0.364845
-0.508047
0.392779
0.115268
0.0414994
-0.394646
0.0153565
-0.117017
-0.0530257
0.427024
0.430881
-0.346969
-0.309093
0.238301
0.0707922
0.240419
-0.0225149
-0.217904
0.107127
-0.144409
-0.114784
-0.429311
-0.00502056
-0.496793
0.198387
0.0169619
0.333943
-0.00157371
0.0073212
-0.00574749
0.0101279
0.0264164
-0.0365444
-0.106079
0.161079
-0.00680382
-0.154275
-0.000416127
0.0024035
-0.00198737
-0.610205
0.17992
0.430286
-0.191614
0.327496
-0.232163
-0.261909
-0.142112
0.404021
0.0906606
0.0111625
0.00653906
0.183525
-0.00184493
-0.18168
-0.326163
0.375033
-0.633932
0.382773
-0.450193
0.316316
0.133877
0.165409
-0.499958
0.0154812
-0.416396
0.245577
-0.423799
-0.0365475
0.141672
-0.0035325
-0.000409668
0.263747
-0.449378
0.18563
0.00415792
-0.00159013
-0.0025678
0.165233
-0.134865
0.0152015
-0.0167513
0.153175
0.0645001
-0.217675
-0.521308
0.0597216
0.0595847
-0.0494567
0.0529909
0.000593611
0.101814
0.256414
-0.358228
-0.325718
0.0811594
0.244559
0.0523785
0.114949
-0.167327
0.0322992
-0.0321655
0.288561
-0.0548455
0.042671
-0.374434
0.415934
-0.504753
-0.044938
0.549691
-0.0105316
0.0813405
0.227729
-0.132982
0.415788
0.0750023
0.260318
0.00602043
-0.00823364
0.00221321
0.0938373
-0.0193652
-0.0744722
0.0926516
-0.549121
-0.169909
0.173056
-0.00314708
-0.0824925
0.0911273
0.0174234
-0.45624
0.344444
0.136609
-0.481053
-0.118293
0.332843
-0.156289
0.420036
-0.0248496
-0.393108
0.417958
-0.484932
-0.0844054
-0.00631885
0.418474
-0.0684973
0.0156942
-0.000905404
-0.23772
-0.128512
0.124546
-0.120942
0.228813
0.0719417
-0.300755
-0.600896
0.18458
0.416316
0.410997
-0.496318
0.0853215
-0.00522857
0.218292
0.00245385
0.00170407
-0.557697
0.154856
0.402842
0.00973323
0.0796956
-0.0894288
0.0358066
-0.0025805
-0.13532
-0.031717
0.381632
-0.491286
0.109654
-0.00834379
0.122663
0.013155
-0.0135149
0.216386
-0.164007
-0.183508
-0.0468351
0.230343
-0.243922
0.00278982
0.241133
-0.360162
0.0118267
-0.525856
0.51403
0.0365725
-0.172758
-0.00646495
0.0933238
-0.0868588
0.211737
0.392609
0.62478
-0.260401
-0.364379
-0.633259
0.202353
0.430906
0.0642013
-0.273089
0.208888
0.0319459
-0.00397417
0.496566
-0.219289
-0.277277
-0.563167
0.191816
0.371351
-0.00433158
0.164247
-0.0108104
-0.500873
0.39006
0.110812
0.407516
-0.178703
0.00231814
-0.000738478
0.0562047
-0.0525507
-0.00365394
0.3398
-0.432332
0.0925328
0.0109011
0.296654
0.329073
-0.348374
-0.000667365
0.00147679
-0.0950604
-0.47187
-0.00330283
0.228294
-0.224991
-0.241954
-0.00427062
0.246224
0.00261225
0.0399051
-0.0425173
0.38651
-0.0558771
-0.138491
0.144796
-0.00630435
-0.433379
0.0315114
-0.00229201
0.000493963
0.00179805
-0.0374227
0.0411197
-0.00369701
0.225003
-0.228305
0.236031
-0.00152698
-0.0402766
0.00285393
0.0813709
-0.0716376
0.405828
-0.306523
-0.0969057
0.403429
0.111896
0.265055
-0.376951
-0.380064
-0.177633
0.514739
-0.0181732
-0.414153
0.335204
0.0789488
-0.217338
0.628335
-0.0106514
0.060766
-0.0501146
-0.00595127
-0.143
0.148951
0.434775
-0.542404
0.10763
0.20964
-0.424827
0.489371
-0.064544
0.145413
0.00556577
0.64001
-0.257596
-0.51009
0.056058
-0.416593
0.11007
0.0445618
-0.444475
-0.260897
0.36271
-0.00457702
0.137248
0.505247
0.00949246
-0.137462
0.0604001
0.155232
-0.102381
-0.0029004
0.23089
-0.352724
-0.107787
-0.256282
0.364069
0.205093
0.419687
0.0112986
0.0811367
-0.0924354
0.100359
-0.112728
0.0123686
-0.119584
-0.320065
0.485474
-0.10002
0.00367479
0.117039
-0.120714
0.0159786
-0.018385
0.00240636
0.383995
-0.252538
-0.131457
-0.00101656
-0.00199772
0.524511
-0.163202
-0.361308
0.0965488
-0.359561
0.263012
0.590429
-0.252201
-0.338228
0.00205639
0.000554224
0.00701324
0.115637
-0.12265
0.212167
0.380377
-0.130294
0.151055
-0.46888
-0.104796
-0.396077
-0.13951
-0.0233164
0.579896
-0.151984
-0.427912
0.364299
-0.228707
-0.135593
0.0959364
0.439386
-0.0266363
-0.0136403
0.352954
-0.256405
0.125866
0.238433
0.471875
-0.127757
0.147415
-0.0122026
-0.135213
0.00728244
0.220487
0.259179
0.293191
0.119798
-0.412988
-0.00309913
-0.154537
0.157636
0.51174
-0.415803
-0.210476
-0.0465139
-0.00918066
-0.149347
0.158527
0.192563
-0.000892148
-0.480731
-0.0472024
0.527934
0.429629
-0.115646
-0.499066
0.564881
-0.0658156
0.0532885
-0.277056
0.46207
0.127484
0.016555
-0.00913089
-0.00742409
-0.128212
0.00359064
0.124622
0.0037327
-0.185788
-0.0404378
0.0356288
0.129981
-0.0620313
-0.0679499
0.161004
0.418892
0.155657
0.0351093
-0.0723901
-0.00969569
-0.0465043
-0.231506
0.284794
0.24999
0.0490546
0.00439387
0.000803288
-0.0828923
0.00920089
0.0736914
-0.419378
0.0599977
-0.537276
0.0159675
-0.190508
-0.0534148
0.244505
0.260742
-0.158944
0.149763
0.127371
-0.359534
0.00212591
0.0191883
-0.0213142
0.406335
0.184094
0.123427
-0.365681
0.242255
-0.269635
0.347118
-0.0774832
-0.000118266
-0.0150762
-0.4539
0.234611
0.000668104
0.00870419
-0.0831487
0.0934247
-0.010276
0.0127226
0.00140936
-0.119516
0.114337
-0.536782
0.359672
-0.374467
-0.259465
0.0369336
-0.0343214
0.00683864
-0.00701623
0.00819402
0.0731768
0.125784
0.0222443
-0.483016
-0.0267515
0.509768
0.0208427
-0.00768769
0.0771881
0.434551
0.158012
0.219318
-0.37733
-0.00169651
0.00311443
-0.00141792
-0.13989
0.533925
0.0639316
0.471138
-0.250651
-0.105169
-0.384141
0.48931
0.582761
-0.391191
-0.19157
-0.269823
-0.109516
-0.459365
-0.103215
-0.129935
-0.225313
0.355248
0.371955
0.0575656
-0.429521
-0.00429544
-0.0273692
0.0316646
0.359748
0.114676
0.594967
-0.587696
-0.00727104
0.193383
-0.18965
-0.0012924
-0.0181809
0.10076
-0.0825789
0.280841
0.24367
-0.0130574
-0.437355
-0.131797
0.0342161
-0.0379822
-0.601565
0.466796
0.13477
-0.208449
0.00689402
-0.293679
0.0517252
-0.512339
-0.0892259
0.0142149
0.00234007
-0.0715937
0.113637
0.0163442
-0.252064
0.496569
-0.0660139
0.181165
-0.115151
0.260604
0.162404
0.17641
0.000369611
-0.17678
-0.00365334
0.00195683
0.00134063
-0.476239
-0.0285138
-0.00246552
0.0184442
-0.198128
0.444064
-0.245936
-0.515464
-0.0946558
0.36149
0.137811
-0.4993
-0.211646
-0.0885666
0.300212
-0.110316
0.0840834
0.0262324
-0.30773
-0.00522729
0.312957
-0.112503
0.672878
-0.467741
-0.205137
0.352142
-0.2802
0.011064
0.0827733
-0.0647394
0.0739403
-0.211734
-0.0515278
0.263262
-0.450835
0.334455
0.11638
0.0115214
0.44039
-0.10059
0.0111171
-0.112705
0.101588
-0.363161
0.255374
-0.00250353
-0.00704486
0.0762887
-0.409692
-0.126098
0.535791
0.492099
-0.0993208
0.370115
-0.00581468
0.00571566
-0.124511
0.482445
-0.357934
-0.0956629
0.503791
-0.426603
-0.310287
-0.0932153
0.403502
-0.206009
0.326294
-0.285496
0.0543024
0.231193
-0.0153199
0.00618898
0.156031
-0.15715
-0.0901936
-0.00135434
0.00310643
0.0391836
-0.0309895
-0.274273
-0.226066
-0.05943
0.0137174
-0.0150493
0.386047
0.00695758
0.0656221
-0.290696
0.233305
0.0573912
-0.0988667
-0.351968
0.112137
-0.108462
-0.298415
-0.00090056
-0.00106446
0.00196502
0.0347397
-0.0366043
0.315994
-0.243673
-0.380516
0.486908
-0.0698306
0.0591792
0.0159416
-0.0138157
0.0163256
0.00451708
0.0423343
-0.0487839
0.00644958
-0.224368
-0.290317
0.514685
-0.363687
0.550964
-0.187277
0.392668
0.110837
-0.503505
-0.0388988
0.0358797
0.00301914
0.426438
0.0352649
-0.461702
-0.515992
0.136628
0.379364
0.606226
-0.348444
-0.123874
0.317366
-0.505554
0.141867
0.00655297
0.112732
-0.0812858
0.0738255
0.00746033
-0.43746
0.364434
0.0730259
0.282216
0.300302
-0.355445
0.0551434
-0.000932828
0.366862
0.273148
0.0577178
0.00357073
-0.0612885
0.0380884
-0.0442445
0.00615606
0.577493
-0.133766
-0.258967
0.392734
0.120194
-0.60321
0.000649431
0.0365524
-0.00341574
-0.0331367
-0.334939
0.256359
0.132173
-0.394082
-0.586273
0.216836
0.369437
0.222838
0.112787
-0.335625
-0.151495
-0.0400484
0.00372489
0.211922
0.27923
-0.503597
0.000207578
-0.00124782
0.184772
-0.604943
0.344541
-0.169742
0.123751
-0.020891
-0.10286
-0.00290437
-0.00406665
0.00697103
0.384675
0.107425
-0.167213
-0.0088214
0.176035
-0.0127223
0.0873726
-0.179589
-0.329574
0.241889
0.0876852
-0.433467
0.0705386
-0.0334421
-0.0947703
0.446904
-0.0749487
0.119625
0.0146245
-0.0430505
0.57677
-0.303295
-0.541599
0.401706