/*--------------------------------*- C++ -*----------------------------------*\
| =========                 |                                                 |
| \\      /  F ield         | OpenFOAM: The Open Source CFD Toolbox           |
|  \\    /   O peration     | Version:  v2012                                 |
|   \\  /    A nd           | Website:  www.openfoam.com                      |
|    \\/     M anipulation  |                                                 |
\*---------------------------------------------------------------------------*/
FoamFile
{
    version     2.0;
    format      ascii;
    class       volVectorField;
    location    "400";
    object      U;
}
// * * * * * * * * * * * * * * * * * * * * * * * * * * * * * * * * * * * * * //

dimensions      [0 1 -1 0 0 0 0];


internalField   nonuniform List<vector> 
14804
(
(0.991148 0.000310864 -2.05478e-22)
(0.993522 0.000614922 1.54107e-21)
(0.811107 0.0990852 7.68511e-23)
(0.996545 0.00200995 -2.34623e-21)
(1.10751 0.0457781 -1.02641e-20)
(1.03125 0.0341368 0)
(0.114884 0.0124154 0)
(1.09325 0.0622444 0)
(1.0111 0.00156104 -1.22375e-22)
(0.999343 0.000638225 -1.36921e-23)
(1.01859 0.00100292 -2.7872e-23)
(-0.0703328 0.0139552 2.66328e-20)
(0.972734 0.00197485 3.34911e-22)
(0.866825 0.0479178 -1.94758e-22)
(0.359859 0.053734 -2.13168e-20)
(1.04518 0.0332887 -3.70197e-23)
(0.00858799 0.00581969 3.39488e-23)
(0.907384 0.0483507 8.39115e-22)
(1.04624 0.0332715 0)
(0.990756 0.000297011 9.411e-24)
(1.00019 0.00349244 -1.9857e-21)
(1.10602 0.0462611 3.63905e-20)
(1.02016 0.0147204 5.18568e-22)
(1.04366 0.0361254 -1.38448e-20)
(0.879365 0.0162136 -3.24876e-22)
(0.124817 0.012347 -2.24427e-20)
(0.0993845 0.00912698 0)
(1.01205 0.0120707 -7.10735e-21)
(0.359288 0.0556916 2.35812e-20)
(0.370174 0.0538928 0)
(0.444153 0.0566131 2.53888e-21)
(0.00505276 0.00511953 -4.96284e-21)
(1.08195 0.0439029 -2.30383e-20)
(1.0918 0.0631719 0)
(0.804604 0.10178 -8.51028e-21)
(0.997415 0.00259815 0)
(1.01098 0.00322286 3.6256e-21)
(1.04253 0.0349636 1.35523e-20)
(1.13362 0.108824 -7.90981e-21)
(0.990019 0.000217417 -1.77161e-22)
(1.12775 0.111825 0)
(1.13799 0.107438 -4.02674e-20)
(1.06492 0.10246 0)
(1.06505 0.0252777 0)
(0.727874 0.0433063 0)
(0.280743 0.0560587 0)
(1.11944 0.110973 0)
(0.996601 0.00192026 1.18601e-21)
(1.05756 0.087542 1.16086e-20)
(1.00002 0.00338417 1.71888e-21)
(1.02038 0.0161195 3.38381e-22)
(0.993193 0.000316814 2.32468e-21)
(1.00463 0.00125341 2.56592e-22)
(1.02032 0.015113 0)
(1.08198 0.0450939 5.18518e-20)
(1.01162 0.0116861 6.35683e-21)
(0.110775 0.00945537 0)
(0.0200453 0.0086031 -7.67687e-21)
(0.666754 0.0214108 2.69398e-21)
(0.955681 0.00152704 -2.89089e-22)
(0.0133304 0.00692037 0)
(0.828758 0.104576 1.97377e-20)
(0.990699 0.000287765 2.80429e-22)
(0.993282 0.000595221 -1.37245e-21)
(1.07561 0.0292629 1.72041e-20)
(-0.0648161 0.0102099 -3.07677e-20)
(0.834946 0.00584565 -3.32849e-22)
(1.01368 0.00580647 -5.35051e-22)
(1.00005 0.000669108 7.7427e-24)
(1.03663 0.0364642 -4.86216e-21)
(1.0548 0.0438927 -9.83539e-21)
(1.01295 0.00573443 -5.81032e-22)
(1.07939 0.0257709 -1.02862e-20)
(1.09366 0.0773444 -1.55865e-20)
(0.817722 0.10257 4.06443e-21)
(1.01982 0.0159462 5.46689e-21)
(1.04084 0.0194956 0)
(1.06465 0.0857874 3.19329e-21)
(0.989554 0.0002015 0)
(1.02239 0.0419151 1.22647e-22)
(1.02286 0.0413738 0)
(1.01738 0.000936311 1.24801e-23)
(1.10961 0.0740213 2.6991e-20)
(0.272917 0.0317909 0)
(0.99357 6.84327e-05 0)
(1.0368 0.0214432 2.76165e-21)
(0.9895 9.36997e-05 0)
(1.0007 0.00411731 0)
(1.07955 0.0559853 -1.4214e-20)
(1.08093 0.0554154 -1.49737e-20)
(0.763613 0.0889958 1.45931e-21)
(1.00036 0.0037776 0)
(0.989903 0.000199207 5.64687e-23)
(1.02706 0.0112092 7.0234e-21)
(1.00171 0.000718077 2.75091e-23)
(0.321891 0.047002 1.64111e-20)
(0.992726 0.000303109 5.0376e-22)
(0.768529 0.0456688 2.49783e-22)
(1.04068 0.0413423 6.19816e-21)
(1.01694 0.0008894 0)
(0.251735 0.0535349 0)
(0.783567 0.102571 -1.95227e-22)
(1.1141 0.107738 -3.77891e-20)
(1.07754 0.0297787 -2.24861e-20)
(1.11234 0.0978608 2.03073e-21)
(0.834157 0.0149031 6.03126e-23)
(1.02405 0.0274237 2.60231e-21)
(0.991138 0.000196734 -2.36521e-22)
(1.0418 0.0420145 -1.31037e-20)
(-0.000722759 -0.0492418 -2.80536e-21)
(0.991462 0.000282207 0)
(1.02361 0.0271759 -4.61385e-21)
(-0.0236681 0.00534583 -1.78064e-20)
(1.09752 0.0716339 2.43449e-20)
(1.05942 0.0505615 -7.15524e-21)
(0.807614 0.100869 4.60164e-20)
(1.10783 0.110906 -1.84557e-20)
(1.06377 0.104996 0)
(1.04453 0.0348632 -9.95422e-21)
(0.995708 0.000726268 -2.68923e-22)
(0.784161 0.0984862 0)
(1.11109 0.096964 0)
(1.02709 0.0108061 -3.86156e-21)
(1.11059 0.0754937 -1.01583e-20)
(1.0455 0.0348157 1.8149e-20)
(1.0987 0.0730123 -3.28038e-20)
(0.990455 0.00020691 1.38455e-21)
(0.987544 -5.83685e-05 0)
(1.09276 0.0612594 0)
(0.35816 0.0506218 4.20103e-21)
(0.990494 0.000260238 6.22818e-22)
(0.319398 0.0473067 -7.84213e-23)
(1.01011 0.00153404 -1.34746e-22)
(0.476401 0.0480489 4.32017e-21)
(1.00436 0.00123354 -3.56676e-22)
(0.754727 0.0852648 1.48728e-23)
(1.14977 0.113217 3.09967e-20)
(1.01742 0.00543515 0)
(0.786306 0.0982425 0)
(0.540575 0.0232287 3.59164e-21)
(1.01134 0.00289438 0)
(1.00885 0.00145846 0)
(1.01686 0.00541011 0)
(1.06673 0.0257698 0)
(1.13455 0.111575 -2.76627e-20)
(1.01229 0.00909589 -7.90386e-22)
(1.09992 0.109503 1.60847e-20)
(1.13372 0.11019 -2.74957e-20)
(0.237003 0.0283384 0)
(1.02252 0.0258936 3.32362e-21)
(0.822635 0.00596779 2.80858e-22)
(0.990605 0.000281516 -5.67515e-22)
(1.11128 0.108328 0)
(1.13894 0.112763 3.2728e-20)
(0.991405 0.000343643 2.95983e-22)
(0.990801 0.000327949 -3.0388e-22)
(0.780407 0.0162148 -1.30535e-22)
(1.07201 0.0344431 1.9079e-20)
(1.0326 0.0222949 0)
(0.248071 0.0312323 0)
(1.01712 0.0138987 5.84361e-21)
(1.00036 0.00082964 -3.68961e-22)
(0.987807 -8.02355e-05 4.34708e-22)
(1.00982 0.00148619 2.12664e-22)
(1.06962 0.0506348 -3.52928e-20)
(0.0660499 0.038578 -8.13005e-22)
(0.98827 -4.72783e-05 2.89633e-22)
(1.00173 0.000720544 2.12951e-23)
(1.0245 0.00536322 1.60047e-22)
(1.07064 0.034584 -3.16896e-20)
(1.01671 0.0137373 -6.82588e-22)
(1.07927 0.0245241 6.57143e-21)
(0.67162 0.0914737 1.46752e-20)
(1.01259 0.00900756 1.80896e-21)
(1.02154 0.0796663 0)
(0.21102 0.0314065 -3.01292e-20)
(1.07652 0.111974 -1.38929e-20)
(-0.0484788 0.0085086 -3.32529e-20)
(0.718251 0.0959285 1.25737e-20)
(1.02376 0.0053328 -4.03085e-24)
(1.00404 0.00127491 2.76877e-22)
(1.05608 0.0860118 -1.00069e-20)
(1.03237 0.0164749 -2.04998e-23)
(0.691008 0.02378 4.2791e-23)
(1.00073 0.0010687 -4.40162e-22)
(0.792244 0.0990201 -2.13934e-20)
(0.78325 0.0880082 -2.1081e-21)
(0.177169 0.0300056 -3.88789e-21)
(0.464123 0.0431151 -2.11314e-21)
(0.988522 -8.3779e-05 3.22787e-22)
(1.00947 0.0095952 2.71038e-21)
(0.771589 0.10128 -9.03955e-21)
(-0.0261777 0.0437204 1.96571e-20)
(0.678332 0.0110192 2.9203e-22)
(0.460408 0.0751409 -2.25336e-21)
(0.672402 0.0469076 -1.37618e-21)
(0.615086 0.0887938 -6.77048e-22)
(0.170986 0.0283185 4.42458e-21)
(1.0325 0.0159619 0)
(0.47432 0.076425 -1.9403e-20)
(1.02705 0.0168482 0)
(1.00742 0.00820368 0)
(1.00062 0.00084697 -1.02161e-22)
(0.904387 0.109483 0)
(1.0315 0.0350126 0)
(1.096 0.0981842 -9.07571e-21)
(0.410631 0.0516518 -1.68945e-21)
(0.919263 0.0168551 -5.17119e-22)
(1.09537 0.0782084 0)
(1.02557 0.0114091 0)
(0.989312 2.19166e-05 0)
(0.738977 0.0952306 1.12555e-20)
(1.00815 0.00146064 0)
(0.996812 0.00223622 1.12158e-21)
(0.48317 0.0753101 7.85606e-21)
(1.02677 0.0017554 0)
(0.866624 0.00101481 8.72547e-24)
(1.03454 0.00350519 1.20042e-20)
(1.13961 0.112134 -3.28059e-20)
(0.889788 0.0165491 3.07234e-22)
(1.03738 0.0611202 7.50955e-21)
(0.551046 0.0380665 5.13859e-21)
(1.00607 0.00136875 5.91036e-21)
(1.02456 0.00515532 -9.17482e-23)
(0.267912 0.0575372 3.08797e-20)
(1.09721 0.0975 -1.1461e-20)
(0.205014 0.0299103 2.92763e-20)
(1.02724 0.00192426 4.50645e-24)
(0.840416 0.00659732 7.62344e-23)
(1.05722 0.109639 0)
(1.06632 0.0869768 0)
(0.437453 0.0744413 -5.30353e-21)
(1.02961 0.0176005 1.41556e-20)
(1.02642 0.0116428 1.71462e-21)
(0.611355 0.0339385 1.75154e-21)
(1.03589 0.0210639 -8.73583e-22)
(0.868275 0.106539 0)
(0.650913 0.0907551 -6.08431e-21)
(1.04639 0.0175739 0)
(0.487983 0.0185954 -8.91744e-23)
(0.0977087 0.013963 1.88972e-20)
(1.05519 0.0825029 -2.50273e-21)
(0.766543 0.0553161 0)
(0.103254 0.0303778 -5.06447e-21)
(1.00279 0.000886217 1.08356e-20)
(0.99425 0.000710194 1.04542e-21)
(1.05111 0.0745055 7.42537e-21)
(0.00912516 0.007988 6.0856e-20)
(1.09138 0.0572876 -2.01109e-20)
(1.09168 0.0239623 1.34484e-20)
(0.797099 0.101485 -1.50609e-23)
(0.810907 0.104317 -1.31225e-20)
(1.00384 0.00123714 0)
(1.01718 0.0167906 5.10308e-22)
(0.994666 0.000439187 -3.24539e-21)
(1.01504 0.00461758 6.22457e-23)
(0.266763 0.0299521 0)
(0.778209 0.102011 1.64817e-22)
(0.488013 0.0778591 7.59803e-21)
(0.0954655 0.0284903 0)
(1.01729 0.016658 0)
(0.864596 0.0162306 -1.82289e-22)
(0.996122 0.000711356 1.65435e-21)
(1.02044 0.00455298 8.05906e-23)
(1.00923 0.00934025 -3.7933e-21)
(0.154139 0.0133318 1.28775e-20)
(1.02245 0.00647186 4.26102e-23)
(1.00273 0.0049012 -4.9945e-23)
(0.273158 0.0293893 0)
(0.99037 0.000258133 -1.01051e-23)
(1.02795 0.0103046 2.42491e-20)
(1.06711 0.108615 5.47603e-21)
(1.12307 0.109878 0)
(0.106044 0.0147115 -2.29941e-20)
(1.12559 0.0830172 0)
(0.650157 0.0378238 -3.53915e-21)
(0.989303 6.43378e-05 -1.31725e-21)
(1.08879 0.090246 0)
(0.990244 0.000248718 -1.26363e-22)
(0.539152 0.0343871 -4.64119e-21)
(1.02306 0.00661256 -3.50368e-21)
(0.494063 0.0748273 0)
(1.02878 0.0173417 -1.31196e-20)
(1.0538 0.0710635 0)
(1.04576 0.0181569 -1.51895e-20)
(0.140324 0.0301112 -4.33804e-20)
(1.04468 0.0360963 1.57751e-20)
(0.0865868 0.0120322 2.83662e-20)
(1.01827 0.0148394 -6.81039e-21)
(0.147502 0.0306235 -3.59947e-20)
(0.139183 0.0102484 -2.82975e-20)
(1.08741 0.0905544 1.80978e-20)
(1.0217 0.00507917 -4.03867e-23)
(0.885039 0.109861 -4.00635e-20)
(1.04155 0.035043 1.91845e-20)
(1.05868 0.0514065 6.65728e-21)
(0.773963 0.102201 1.85676e-20)
(1.04206 0.00438125 3.60038e-21)
(1.10314 0.0440599 1.04224e-20)
(0.989065 0.000116476 3.44337e-22)
(1.00878 0.00124273 0)
(1.04074 0.0677847 -1.13233e-21)
(1.01772 0.0146926 -1.0716e-20)
(1.06296 0.086313 1.01675e-20)
(1.00571 0.00135589 -3.41783e-21)
(0.284795 0.00351197 -1.81049e-23)
(0.809225 0.00454521 1.08321e-22)
(1.02472 0.0118264 1.29575e-20)
(0.258523 0.0692948 0)
(1.02396 0.0414913 -2.24423e-22)
(0.991697 0.000285819 -2.35926e-21)
(1.03494 0.00381798 -1.8415e-20)
(0.694424 0.0933834 1.59579e-20)
(0.997126 0.00234875 1.22661e-21)
(1.04473 0.110447 2.63748e-21)
(0.988762 -7.06902e-05 -1.34982e-22)
(1.02356 0.0421696 -5.83616e-22)
(0.988145 -5.49146e-05 2.84554e-22)
(1.13653 0.11019 -3.62038e-21)
(0.98843 -0.00013136 -5.41637e-22)
(1.00867 0.00123828 0)
(1.04892 0.0305328 -1.00597e-20)
(0.921628 0.10893 0)
(0.344931 0.0349306 0)
(1.02799 0.0108183 -1.24807e-20)
(0.99883 0.00290462 -7.44612e-22)
(1.03829 0.0623438 -1.2855e-20)
(0.777731 0.0981972 -2.74407e-20)
(0.739687 0.0993815 0)
(1.13208 0.0667144 -2.17999e-20)
(1.0249 0.0566919 -2.98793e-22)
(1.00325 0.00428559 0)
(1.04155 0.00380487 0)
(0.0718146 0.00869123 0)
(1.01157 0.00760841 0)
(0.132848 0.0283127 4.58385e-20)
(1.12477 0.084049 -3.439e-21)
(0.0503715 0.00700268 0)
(0.818575 0.100384 4.46464e-20)
(0.135813 0.02766 3.23704e-20)
(0.184099 0.0305752 -7.74081e-21)
(1.09006 0.108462 7.58771e-21)
(0.0514976 0.025025 4.55714e-20)
(0.779493 0.0977276 -4.07006e-20)
(1.00735 0.00141071 -3.4983e-22)
(1.04044 0.0188695 0)
(0.32717 0.0631126 -4.75066e-21)
(-0.0199778 0.0451477 0)
(1.0077 0.00819872 6.47095e-22)
(1.04071 0.0361918 -1.29333e-20)
(1.09331 0.0753975 2.64826e-20)
(0.994523 0.000590667 0)
(0.997277 0.0026923 0)
(0.595804 0.057945 4.31912e-22)
(1.00435 0.00669488 3.3403e-21)
(1.00754 0.0011713 2.79879e-22)
(0.972949 0.089268 7.88177e-24)
(1.0015 0.000712847 -7.41913e-21)
(0.361263 0.0407926 0)
(1.04145 0.00736022 0)
(1.02504 0.0495527 1.92815e-21)
(0.990595 0.000228649 1.15465e-21)
(0.913839 0.108663 0)
(0.554105 0.0780946 0)
(0.0567328 0.00883367 -2.282e-22)
(1.03945 0.0675573 -2.34894e-21)
(1.04075 0.0076923 6.50446e-21)
(0.346547 -0.0127332 3.27464e-21)
(0.537661 0.0759079 0)
(1.02576 0.0501664 -2.57693e-21)
(1.00747 0.0011676 9.54992e-23)
(0.252959 0.0310235 1.58153e-20)
(1.00509 0.00105664 0)
(0.60072 0.0163829 4.024e-21)
(1.01707 0.000980095 1.43338e-23)
(0.711857 0.0923677 -3.74306e-20)
(-0.0078299 -0.0404597 1.35565e-21)
(1.01927 0.000929214 4.85972e-23)
(1.01858 0.00340736 3.86547e-23)
(1.07873 0.0962938 3.18402e-20)
(0.992618 0.000433217 0)
(1.01902 0.000939901 2.35935e-23)
(0.291619 0.045628 -3.16102e-20)
(1.08993 0.024739 -4.12851e-20)
(1.00492 0.00103703 -1.77772e-22)
(0.988865 9.14043e-05 -5.60123e-23)
(0.997096 0.00260047 0)
(1.00409 0.00651783 -1.62914e-21)
(0.241996 0.0538258 0)
(0.992151 0.000166176 1.05249e-21)
(0.510275 0.0760081 -4.23342e-21)
(1.02852 0.0494429 0)
(1.10748 0.0502139 0)
(0.988559 -4.6043e-05 -6.97004e-22)
(1.02546 0.0120257 0)
(0.110196 0.0309141 0)
(1.12708 0.112675 -6.64989e-21)
(1.11404 0.061237 -1.69711e-20)
(1.02844 0.0779236 -6.06329e-23)
(1.13538 0.0936309 -6.04634e-21)
(1.08117 0.0500139 0)
(1.02104 0.0287276 0)
(0.172142 0.0305035 8.03263e-21)
(0.771593 0.102731 -5.58461e-22)
(1.10344 0.109252 0)
(1.09273 0.0564147 1.91707e-20)
(1.05027 0.0942227 0)
(0.989342 8.06551e-05 -7.85044e-22)
(1.0215 0.029072 0)
(0.999393 0.0030393 -1.43591e-21)
(1.00205 0.00148601 0)
(1.12886 0.0820914 5.53796e-20)
(0.00203116 0.00571613 -7.06648e-20)
(0.242682 0.0290146 -1.84817e-21)
(0.845343 0.00554354 -3.90313e-23)
(1.00299 0.00430716 -2.41321e-22)
(0.956932 0.0588667 0)
(1.02378 0.0136099 1.77043e-20)
(1.05624 0.0443469 -1.15644e-20)
(1.08024 0.0508633 -2.43694e-22)
(0.29432 0.00128799 2.20689e-21)
(1.0417 0.0362248 -1.38403e-20)
(1.0706 0.103018 0)
(0.374187 0.0752171 4.16811e-21)
(1.01314 0.00869985 0)
(1.03091 0.00204977 8.83991e-21)
(1.09271 0.107335 -6.29438e-21)
(0.000734348 -0.023737 -5.01673e-20)
(1.12083 0.0842784 0)
(1.05117 0.0332938 -1.36613e-22)
(1.00735 0.00792676 -3.13667e-21)
(0.995964 0.000713368 0)
(0.579643 0.0064609 0)
(0.388268 0.054919 1.52592e-20)
(1.02494 0.0254437 -4.91981e-21)
(0.383859 0.0766652 -1.69433e-20)
(1.0863 0.0930243 2.66564e-20)
(0.00268684 -0.0263471 3.89649e-20)
(1.03055 0.00215573 -2.41523e-20)
(0.435638 0.0766865 5.3023e-20)
(0.173803 0.0278594 0)
(1.04026 0.0215912 0)
(1.04846 0.0941561 0)
(0.993965 0.00043233 -6.3264e-22)
(1.06826 0.0718131 1.25588e-20)
(1.05654 0.0840525 0)
(0.391899 0.0307039 -7.12427e-22)
(1.01363 0.00862345 0)
(1.02757 0.0175646 0)
(0.416431 0.0487366 -1.80913e-21)
(1.10234 0.109502 -2.72204e-20)
(0.893843 0.0362888 6.44499e-23)
(0.485393 0.0765808 3.9882e-20)
(1.1228 0.111141 -5.69551e-23)
(0.220929 0.0305507 0)
(0.999592 0.00129898 2.25426e-21)
(0.306472 0.0252966 1.96448e-21)
(0.994303 0.000808147 -1.8391e-21)
(1.06583 0.10663 -4.65054e-21)
(1.03729 0.0580789 -1.03125e-20)
(1.05714 0.0507965 -1.19624e-20)
(1.13428 0.0669812 0)
(1.01516 0.0103393 7.54714e-23)
(0.881768 0.0567036 0)
(1.02888 0.00983447 -1.45439e-20)
(-0.0488192 0.0189825 1.88858e-20)
(1.06899 0.0732858 0)
(1.02884 0.0486249 0)
(0.285207 0.0329616 -3.02425e-21)
(1.04102 0.0222405 4.71979e-21)
(1.02886 0.010327 1.45896e-20)
(0.996525 0.00170591 1.21909e-21)
(0.15198 0.0301292 0)
(-0.017329 0.00280318 0)
(0.067702 0.0323067 -2.76408e-20)
(1.12784 0.08327 -6.5523e-20)
(0.996173 0.000736666 4.2445e-22)
(1.11053 0.109686 0)
(1.0063 0.00110745 1.95391e-22)
(1.10834 0.0971772 0)
(1.03347 0.0331402 -4.83733e-21)
(0.298656 0.044566 1.82182e-20)
(0.453148 0.0714438 -1.82625e-20)
(1.10901 0.109935 -1.93343e-20)
(0.81817 0.100397 -2.69324e-21)
(1.01948 0.000861772 -3.12142e-23)
(0.364255 -0.0171469 0)
(1.07081 0.0149085 -1.70261e-20)
(0.548442 0.0779908 -1.34471e-20)
(0.165462 0.0285938 1.14483e-21)
(0.455101 0.0779937 -5.70366e-20)
(0.134878 0.0304988 -1.82461e-20)
(1.08112 0.107286 -1.66402e-20)
(0.618635 0.0203206 1.14396e-21)
(0.306672 0.0568303 0)
(0.986998 6.52739e-06 4.70647e-23)
(1.00121 0.00105252 1.55614e-22)
(0.824145 0.0108493 -3.58972e-22)
(1.00099 0.00102385 2.94503e-22)
(1.10433 0.0454998 -4.18746e-20)
(1.11327 0.059159 -3.16599e-20)
(1.03864 0.0350456 0)
(1.0062 0.00110095 0)
(0.0982497 0.0279214 0)
(1.03036 0.0333112 0)
(1.02133 0.0269491 9.56618e-23)
(1.08248 0.108375 1.965e-20)
(1.01498 0.0100727 0)
(0.996411 0.000734181 -1.25111e-22)
(0.855056 0.10656 -2.11893e-20)
(1.08758 0.0924086 -1.49682e-20)
(0.463711 0.0796476 -4.95455e-20)
(0.576582 0.0115361 -9.92854e-22)
(1.03961 0.035129 1.2526e-20)
(1.12273 0.085009 1.02816e-20)
(0.847481 0.0361519 0)
(0.240347 0.0305108 0)
(0.452727 0.078385 1.71301e-20)
(1.02446 0.00598217 -1.96967e-20)
(1.02499 0.0413859 -1.63903e-21)
(1.00859 0.00900018 1.2732e-21)
(1.13596 0.0953749 3.15632e-20)
(0.403589 0.0579352 0)
(0.881088 0.107747 0)
(0.190097 0.0302632 3.32915e-20)
(0.235878 0.030839 1.29701e-20)
(1.09757 0.108617 1.9251e-20)
(0.247433 0.0248636 0)
(0.327199 0.0566901 -2.88064e-20)
(1.15875 0.115054 0)
(0.999037 0.00275842 0)
(0.990887 0.00036078 2.90874e-22)
(0.233999 0.02878 0)
(0.734601 0.0521478 0)
(0.655565 0.024625 1.29797e-21)
(0.999457 0.000863028 -3.73415e-21)
(1.00029 0.00273601 1.81932e-22)
(1.03776 0.0358783 0)
(1.05975 0.107214 9.39115e-21)
(0.258436 0.025843 0)
(1.02471 0.0255979 0)
(0.186517 0.00458356 -3.37011e-22)
(1.02808 0.000672187 4.15e-22)
(1.02651 0.0491349 1.7299e-21)
(1.00414 0.000757469 0)
(1.02898 0.0323796 -7.26104e-21)
(1.16188 0.113902 1.2292e-21)
(1.00969 0.00735768 4.13022e-21)
(1.01765 0.0187225 8.21625e-23)
(0.990597 4.665e-05 7.55982e-22)
(0.990326 -2.51027e-05 0)
(0.99026 0.00018835 -1.02786e-21)
(1.02456 0.00569083 1.519e-20)
(0.992847 0.000539566 0)
(1.12087 0.096645 -2.02979e-20)
(0.987109 2.98589e-06 0)
(0.710821 0.0518103 0)
(0.920843 0.0381653 0)
(1.02285 0.023563 8.50834e-21)
(0.114787 0.0304597 0)
(0.999736 0.000874941 -1.13069e-21)
(0.0259955 0.00840938 3.43314e-20)
(1.01222 0.00645937 -4.68498e-21)
(0.97668 0.0567754 -1.06561e-21)
(1.02612 0.0223921 0)
(1.0671 0.112009 2.71999e-21)
(1.00152 0.00111161 -2.87653e-22)
(1.03396 0.0921549 4.08049e-21)
(0.400895 0.0575935 9.93564e-21)
(1.00761 0.00788901 2.56376e-21)
(1.10951 0.05026 -4.39421e-22)
(1.10359 0.112041 -4.49326e-20)
(0.768873 0.0986201 -4.26391e-21)
(0.249498 0.0231048 -3.18527e-20)
(1.02018 0.0154062 0)
(1.09807 0.074482 3.22731e-20)
(0.535741 0.0517411 1.29914e-21)
(0.533908 0.0763832 0)
(1.02061 0.00324898 -1.67635e-22)
(0.98926 0.000127767 1.20437e-22)
(0.439274 0.0640519 2.96381e-20)
(0.992429 0.000431833 2.09912e-22)
(1.10982 0.0979376 0)
(0.587902 0.00269333 0)
(0.127789 0.0285255 5.12712e-21)
(0.140867 0.0280716 0)
(1.01983 0.00218193 -1.57218e-20)
(1.02368 0.00144786 0)
(0.992595 0.000776143 -5.8912e-22)
(1.02101 0.00126268 0)
(1.02156 0.00315578 0)
(1.02601 0.0259498 4.49002e-21)
(0.812769 0.00510496 1.18501e-22)
(0.714729 0.0676384 -5.37814e-22)
(0.851967 0.0148377 1.64521e-21)
(0.3025 0.0528582 -2.94021e-20)
(0.0955693 0.00754602 0)
(0.0556727 0.00622196 0)
(1.12235 0.0963845 0)
(1.01767 0.0186337 0)
(0.338775 0.0655677 0)
(0.778441 0.102159 0)
(1.01039 0.00739166 -4.14016e-21)
(1.0261 0.0574873 -3.13253e-22)
(0.0665341 0.00844975 -1.17534e-20)
(1.02207 0.0949152 -3.41085e-21)
(1.02305 0.0264978 4.87237e-21)
(0.518652 0.0178668 -1.82689e-21)
(1.03873 0.0360526 0)
(1.02734 0.0498377 0)
(0.43675 0.0756867 4.86745e-20)
(1.0064 0.00839836 1.09287e-21)
(0.652453 0.0889649 5.46091e-21)
(0.464605 0.0747957 -3.19865e-20)
(0.899474 0.0877179 -3.47315e-21)
(0.0155632 0.00673048 -3.47971e-20)
(0.860278 0.000708951 -3.54415e-23)
(1.00653 0.00841564 0)
(0.282655 0.0532152 -2.93148e-20)
(0.994925 0.000604676 0)
(1.11787 0.0850889 3.00755e-20)
(1.10211 0.108272 -1.18326e-20)
(1.07696 0.111211 1.43029e-20)
(-0.0534603 -0.00150664 1.40235e-20)
(1.02246 0.0262898 -3.40706e-21)
(1.03642 0.0371709 1.08843e-20)
(0.673611 0.00384458 -1.42395e-21)
(1.05049 0.0446371 9.85091e-21)
(1.02405 0.00433304 0)
(1.01799 0.0193411 -2.67457e-21)
(0.992649 0.000469987 -2.16818e-22)
(0.990448 0.000271601 -1.13796e-22)
(0.0609303 0.00791236 0)
(1.02913 0.000888887 0)
(1.018 0.0192822 -8.62205e-23)
(0.989785 0.000228829 -1.26177e-23)
(1.11753 0.109159 2.20085e-20)
(0.672607 0.0199185 -1.45821e-22)
(1.09715 0.0887672 4.28591e-20)
(1.06904 0.0517331 2.05766e-20)
(0.671303 0.00750682 6.06876e-22)
(0.810281 0.00733423 1.0949e-22)
(1.048 0.0144748 -2.81789e-20)
(1.0615 0.0847683 -4.80498e-22)
(0.992499 0.000484136 3.86412e-22)
(1.00726 0.0076193 2.49323e-21)
(1.02716 0.026456 3.62805e-21)
(0.989709 0.000174251 0)
(1.02331 0.00612425 6.12413e-21)
(1.10278 0.0874717 -3.77097e-20)
(0.402059 0.0345412 0)
(-0.0124961 -0.0222926 -1.42976e-21)
(1.07257 0.0147658 2.15606e-20)
(1.00315 0.00116417 0)
(1.12337 0.112009 -7.26385e-21)
(0.605619 0.0410656 3.75752e-21)
(0.816144 0.0175243 -7.52489e-22)
(1.06694 0.102053 0)
(1.11955 0.0857565 -3.56719e-21)
(1.02274 0.060193 -4.37591e-22)
(0.788056 0.0257913 1.59373e-21)
(1.03144 0.0164978 1.8227e-23)
(0.54613 0.076678 1.47766e-20)
(1.03355 0.0226091 -1.8949e-23)
(1.02402 0.0593805 -4.95924e-22)
(0.482981 0.0782029 4.17531e-20)
(0.467216 0.0783674 0)
(0.772505 0.103083 1.95499e-20)
(1.0213 0.00444408 0)
(0.990538 0.000277495 -6.94334e-23)
(0.283604 0.0626874 1.06399e-20)
(1.05333 0.0725978 -6.73566e-21)
(1.02642 0.02215 -2.16492e-21)
(1.02355 0.00431986 0)
(1.0522 0.0761118 0)
(1.0257 0.0260972 -4.64535e-21)
(0.94956 0.0183346 0)
(1.01641 0.00522955 0)
(0.354173 0.0161812 1.84123e-22)
(0.103344 0.0283834 0)
(0.990794 0.000297258 8.06703e-23)
(1.03117 0.0810123 2.5472e-21)
(0.833911 0.0926562 0)
(0.444248 0.076365 0)
(1.02135 0.0259103 0)
(1.02013 0.0202894 1.14741e-22)
(0.545652 0.0868664 -1.24476e-20)
(1.00383 0.00101349 0)
(0.988481 -6.86518e-05 2.00872e-23)
(1.03999 0.0526396 0)
(0.989214 0.000123238 2.69057e-22)
(0.254225 0.0616116 -2.16401e-20)
(0.239009 0.0199959 2.18458e-20)
(1.02881 0.0315535 0)
(1.11582 0.0614399 5.16908e-20)
(1.02057 0.0209345 1.23618e-22)
(1.017 0.0161123 0)
(0.855646 0.00567932 5.73785e-23)
(1.09565 0.0880544 -5.533e-20)
(-0.00365657 -0.0455104 -1.25216e-20)
(1.00372 0.000999206 -1.1311e-22)
(0.732592 0.087113 -1.01108e-21)
(0.989659 0.00014493 -2.33166e-22)
(0.988399 -1.33094e-06 3.596e-22)
(0.546004 0.0812425 -2.03108e-20)
(0.0310979 0.00836797 0)
(0.103562 0.00900444 0)
(0.829165 0.103621 0)
(1.02663 0.0256086 3.53446e-21)
(0.464537 0.0762527 -4.70019e-20)
(1.01149 0.00657018 0)
(1.02966 0.0801319 0)
(0.178458 0.0246867 -1.37182e-20)
(0.178975 0.0282418 -2.82447e-20)
(-0.0370288 0.0115849 3.77055e-20)
(1.10038 0.110638 3.44251e-20)
(1.0046 0.00695273 0)
(0.98788 -4.84033e-05 -1.14839e-22)
(1.12478 0.109022 -3.22621e-21)
(0.180946 0.00058963 -2.38863e-22)
(0.916424 0.0153705 0)
(1.08236 0.0389233 1.27675e-20)
(0.997887 0.000986261 0)
(1.10173 0.0881688 4.49684e-20)
(0.453683 0.0802878 1.64009e-20)
(0.286741 0.0219489 -2.6312e-22)
(1.05072 0.0322759 3.18689e-20)
(1.01187 0.00750905 5.04794e-22)
(0.989662 0.000106981 4.26731e-22)
(0.966707 0.0195913 4.89388e-24)
(-0.00366641 0.00580659 3.74189e-20)
(0.818337 0.0108447 0)
(0.802323 0.00422375 2.1201e-22)
(1.02411 0.00538006 3.71759e-23)
(-0.0348169 0.0388545 -1.41709e-20)
(1.02595 0.00393938 6.5613e-21)
(1.01882 0.0198486 2.07122e-21)
(1.02052 0.00242486 1.0793e-20)
(0.46892 0.0814131 0)
(1.07882 0.0948024 2.95085e-20)
(1.02145 0.0266364 0)
(0.796988 0.0155687 -3.03146e-22)
(1.01092 0.00767378 1.45026e-20)
(1.081 0.0375903 3.74441e-20)
(0.0531288 0.00642982 0)
(1.03148 0.0473104 1.78062e-21)
(-0.0509481 0.0176806 7.77788e-21)
(1.00424 0.00671379 0)
(0.992467 0.000662048 -1.76114e-21)
(0.988026 9.07588e-05 3.64425e-23)
(1.03122 0.0482848 0)
(1.06472 0.0934222 8.87574e-21)
(1.00717 0.0558509 -4.75892e-22)
(1.05342 0.0826837 0)
(0.263787 0.0267097 -2.66018e-20)
(1.07674 0.0792967 -9.77979e-21)
(0.645914 0.0620205 6.18402e-22)
(1.02684 0.0266607 5.17079e-21)
(0.751633 0.0994792 0)
(1.00834 0.00876194 -2.65462e-21)
(1.02135 0.0276912 0)
(1.04024 0.00878855 -7.14761e-21)
(-0.0304868 0.0386582 9.36766e-23)
(0.619865 0.0881817 -6.05799e-21)
(0.163391 0.0113135 1.31183e-20)
(0.954628 0.108932 -1.64824e-20)
(0.997591 0.000872084 4.85917e-21)
(0.989203 4.57629e-05 1.09974e-21)
(0.269437 0.0295905 -2.70701e-20)
(0.807543 0.0044559 0)
(-0.0186995 -0.0290911 1.75324e-20)
(-0.0309893 0.0322823 0)
(1.01846 0.01921 -6.1993e-21)
(1.03053 0.0086915 2.21348e-20)
(0.0554194 0.0598656 1.27969e-20)
(1.02274 0.0323684 -1.36427e-21)
(1.09646 0.0752691 6.43545e-21)
(1.04012 0.0199926 0)
(0.0819291 0.00239207 3.53815e-20)
(1.01154 0.00478006 -1.38078e-22)
(0.938559 0.106761 1.13938e-20)
(1.00181 0.000887976 0)
(1.02537 0.000228475 7.79854e-21)
(0.279729 0.0325397 1.96648e-20)
(1.04965 0.0683383 6.14943e-21)
(0.715696 0.0976601 -9.29738e-21)
(0.55277 0.0850672 -4.54025e-22)
(1.01776 0.0056172 -5.70007e-22)
(1.03928 0.00837659 7.1834e-21)
(0.44947 0.0652544 -1.3512e-20)
(1.02767 0.0748216 1.16132e-22)
(1.02463 0.0421086 1.96561e-21)
(0.998482 0.000903269 -1.12722e-21)
(1.01711 0.0159811 9.14206e-23)
(1.02396 0.00631719 -3.66751e-21)
(1.05099 0.0921385 0)
(0.519647 0.0852858 -6.75011e-21)
(0.931029 0.0146925 -5.95413e-22)
(1.03409 0.00763745 -2.56884e-21)
(1.02298 0.0133449 -1.39008e-20)
(-0.0775762 0.019209 -3.09584e-20)
(0.999875 0.0013378 2.06218e-21)
(1.02369 0.0121016 0)
(0.650044 0.0869055 2.83122e-21)
(0.989469 0.000192808 -4.28192e-24)
(1.04994 0.0435471 -2.2249e-20)
(1.0092 0.00191563 0)
(1.10546 0.107822 8.00728e-21)
(1.01176 0.0123608 -1.82735e-21)
(1.02114 0.0226743 -4.85145e-22)
(0.465021 0.0739615 0)
(0.994672 0.000765677 -2.38865e-21)
(0.235009 0.0544637 0)
(1.06782 0.0251651 -1.93603e-20)
(0.848864 0.103626 -3.07425e-20)
(1.01918 0.00351512 1.00037e-20)
(1.03226 0.022687 0)
(0.162663 0.0303534 3.61773e-20)
(0.672413 0.0103385 2.28867e-21)
(0.487983 0.0773717 0)
(1.01576 0.00521615 0)
(0.874673 0.0385324 -1.1873e-21)
(1.01143 0.00160221 -1.3975e-22)
(1.03138 0.0169274 -5.75074e-21)
(0.717602 0.0946791 -1.46413e-20)
(0.996273 0.00157466 1.03095e-21)
(1.03462 0.00264861 2.46249e-20)
(1.02418 0.00192284 0)
(1.035 0.00303654 -2.28989e-20)
(0.493458 0.0772182 -2.16402e-20)
(1.01985 0.0194788 -2.60515e-21)
(1.05136 0.0308037 -1.02203e-20)
(1.03698 0.0900423 -1.28389e-21)
(0.990541 0.000264867 5.60137e-22)
(0.504738 0.0768474 2.06468e-20)
(1.01731 0.0180435 -2.13458e-21)
(0.0599305 0.042833 2.05121e-21)
(0.996219 0.00137375 -3.43463e-21)
(1.02386 0.0576129 5.0677e-23)
(0.40788 0.0580944 -9.63552e-21)
(0.977375 0.10924 -1.80166e-20)
(0.779941 0.00349685 3.48193e-22)
(1.04734 0.0138705 0)
(0.53267 0.0826636 3.73686e-20)
(-0.0258385 0.0296814 0)
(0.532789 0.0759362 7.46049e-21)
(1.00037 0.00404904 -5.61665e-21)
(1.02174 0.0296699 0)
(1.02219 0.0263742 0)
(1.00506 0.00228055 -5.36828e-22)
(1.00458 0.00217457 5.89966e-22)
(1.01016 0.00763039 0)
(0.290253 0.0356248 2.31848e-20)
(0.845051 0.101755 8.38476e-21)
(1.02179 0.02565 2.80372e-21)
(1.10588 0.0869734 0)
(1.03062 0.0214398 -9.8287e-21)
(1.021 0.022064 3.54503e-22)
(-0.0647282 0.0047772 2.90632e-20)
(1.12866 0.11246 0)
(1.04986 0.0301801 0)
(1.09026 0.0266394 2.14097e-20)
(0.821287 0.0550837 0)
(0.791158 0.0991158 -2.03166e-20)
(0.995385 0.000956107 0)
(1.0004 0.00416466 2.8353e-21)
(0.849625 0.102606 0)
(1.02274 0.0317984 1.17077e-21)
(0.55258 0.0771328 -1.37893e-20)
(0.88483 0.104565 3.74137e-20)
(1.0272 0.0427797 -2.10633e-21)
(1.05408 0.0427657 0)
(0.988637 7.54852e-05 -1.00717e-21)
(0.848262 0.0066956 -7.09758e-23)
(0.988777 9.7251e-05 -3.65651e-22)
(0.997339 0.000859167 -2.34882e-21)
(1.09153 0.0746308 -2.47673e-20)
(0.258828 0.031377 1.4099e-20)
(0.988491 7.38859e-05 -3.36476e-22)
(1.01186 0.0122547 0)
(0.994598 0.000776487 -4.29662e-21)
(0.994382 0.000956815 4.04363e-22)
(1.08716 0.0846131 1.25923e-20)
(1.00156 0.000865485 0)
(1.03123 0.0012501 0)
(0.433362 0.0635769 -1.37175e-20)
(0.423318 0.0717259 6.31551e-21)
(1.01533 0.0632254 -4.38916e-23)
(0.830433 0.00512113 -8.94282e-24)
(0.243362 0.0245683 2.48399e-20)
(1.01136 0.0067939 0)
(1.04633 0.0529153 0)
(0.210575 0.0281499 7.98726e-21)
(1.03436 0.0337637 0)
(1.06948 0.0137332 0)
(0.443807 0.0797897 -1.20817e-20)
(0.99857 0.00105384 -6.19113e-21)
(1.10158 0.105202 2.98331e-20)
(0.841861 0.102075 -7.80588e-21)
(1.07588 0.0655558 3.06934e-20)
(0.997882 0.00297309 9.33208e-22)
(1.02552 0.0035115 6.32278e-21)
(1.02027 0.0140223 -8.9423e-23)
(1.02698 0.0254322 0)
(1.06861 0.103584 -6.59118e-22)
(1.02039 0.0143917 -2.12297e-22)
(1.02224 0.0260917 3.4547e-21)
(0.779602 0.00232746 9.5746e-23)
(0.678448 0.00684825 1.1314e-21)
(1.04307 0.0695803 -4.90717e-21)
(1.08802 0.0859993 -4.41032e-20)
(0.995711 0.00105769 -1.04523e-21)
(0.742465 0.10031 0)
(1.02126 0.00409504 0)
(1.03879 0.0524796 0)
(0.125341 0.0305203 0)
(0.302812 0.061385 -2.1516e-21)
(1.01205 0.00672921 2.67292e-21)
(1.13214 0.0811027 0)
(0.0506237 0.00824242 6.31603e-20)
(1.00475 0.00121679 -1.13192e-22)
(1.04012 0.0400822 0)
(1.03766 0.036843 -1.83316e-20)
(1.04419 0.0263536 -1.28032e-20)
(0.952831 0.108442 1.74511e-20)
(0.744401 0.100249 0)
(1.08803 0.0816347 -2.56487e-20)
(1.01836 0.00556033 -8.70519e-23)
(1.00268 0.000926518 -1.87419e-22)
(1.04211 0.0185485 1.34647e-20)
(0.987786 8.3304e-05 -7.44869e-22)
(0.991259 0.000182116 2.23501e-21)
(1.0642 0.0238949 -2.41937e-20)
(1.02034 0.0201419 1.38522e-22)
(0.478814 0.0129919 2.11514e-21)
(-0.0566559 -0.00181377 0)
(1.01265 0.00728716 0)
(-0.033607 0.0256639 0)
(0.528908 0.0260427 -3.60675e-21)
(0.225913 0.0676813 0)
(1.07912 0.0663221 0)
(1.01081 0.0016073 1.30131e-22)
(0.349587 0.0665362 4.40913e-21)
(0.79535 0.0995477 3.09096e-20)
(-0.070554 0.0083551 -1.77254e-20)
(1.00956 0.0208873 -6.1191e-22)
(1.08257 0.0243083 -2.15767e-20)
(1.05482 0.0911715 0)
(0.393774 0.0582312 0)
(1.05631 0.0513645 1.54551e-20)
(0.988898 -4.37583e-05 -6.15543e-22)
(1.02648 0.0245535 0)
(0.988791 6.22265e-05 0)
(0.93312 0.110638 0)
(1.05168 0.0727791 1.48331e-20)
(1.01734 0.0179355 2.72336e-21)
(1.02676 0.0415867 3.45633e-21)
(-0.0856241 0.0181111 -1.08716e-20)
(0.710892 0.100348 0)
(1.00527 0.00104667 -1.15352e-20)