/*--------------------------------*- C++ -*----------------------------------*\
| =========                 |                                                 |
| \\      /  F ield         | OpenFOAM: The Open Source CFD Toolbox           |
|  \\    /   O peration     | Version:  v2012                                 |
|   \\  /    A nd           | Website:  www.openfoam.com                      |
|    \\/     M anipulation  |                                                 |
\*---------------------------------------------------------------------------*/
FoamFile
{
    version     2.0;
    format      ascii;
    class       volVectorField;
    location    "400";
    object      U_0;
}
// * * * * * * * * * * * * * * * * * * * * * * * * * * * * * * * * * * * * * //

dimensions      [0 1 -1 0 0 0 0];


internalField   nonuniform List<vector> 
14804
(
(0.991148 0.000310863 -2.05466e-22)
(0.993522 0.000614922 1.54097e-21)
(0.811107 0.0990853 7.68521e-23)
(0.996545 0.00200995 -2.34609e-21)
(1.10751 0.0457781 -1.02636e-20)
(1.03125 0.0341368 0)
(0.114884 0.0124154 0)
(1.09325 0.0622444 0)
(1.0111 0.00156103 -1.22369e-22)
(0.999343 0.000638204 -1.36906e-23)
(1.01859 0.00100073 -2.78386e-23)
(-0.0703335 0.0139579 2.66329e-20)
(0.972732 0.0019677 3.3486e-22)
(0.866827 0.0479185 -1.94753e-22)
(0.359859 0.053734 -2.13162e-20)
(1.04518 0.0332887 -3.70199e-23)
(0.00858805 0.00581968 3.39479e-23)
(0.907385 0.0483514 8.391e-22)
(1.04624 0.0332715 0)
(0.990756 0.000297011 9.41045e-24)
(1.00019 0.00349244 -1.98558e-21)
(1.10602 0.0462611 3.63891e-20)
(1.02016 0.0147202 5.18456e-22)
(1.04366 0.0361254 -1.38442e-20)
(0.879364 0.0162095 -3.24831e-22)
(0.124817 0.012347 -2.24419e-20)
(0.0993845 0.00912697 0)
(1.01205 0.0120707 -7.10694e-21)
(0.359287 0.0556916 2.35805e-20)
(0.370173 0.0538932 0)
(0.444151 0.0566142 2.53921e-21)
(0.00505283 0.00511953 -4.96266e-21)
(1.08195 0.0439029 -2.30374e-20)
(1.0918 0.0631719 0)
(0.804604 0.10178 -8.50999e-21)
(0.997415 0.00259815 0)
(1.01098 0.00322286 3.62541e-21)
(1.04253 0.0349636 1.35517e-20)
(1.13362 0.108824 -7.9095e-21)
(0.990019 0.000217416 -1.7715e-22)
(1.12775 0.111825 0)
(1.13799 0.107438 -4.02659e-20)
(1.06492 0.10246 0)
(1.06505 0.0252777 0)
(0.727877 0.0433068 0)
(0.280745 0.0560605 0)
(1.11944 0.110973 0)
(0.996601 0.00192026 1.18594e-21)
(1.05756 0.087542 1.16081e-20)
(1.00002 0.00338417 1.71877e-21)
(1.02038 0.0161195 3.38363e-22)
(0.993193 0.000316814 2.32454e-21)
(1.00463 0.00125341 2.56578e-22)
(1.02032 0.0151127 0)
(1.08198 0.0450939 5.18497e-20)
(1.01162 0.0116861 6.35647e-21)
(0.110775 0.00945537 0)
(0.0200454 0.0086031 -7.6766e-21)
(0.66675 0.0214069 2.69427e-21)
(0.955679 0.00151917 -2.89054e-22)
(0.0133305 0.00692037 0)
(0.828758 0.104576 1.9737e-20)
(0.990699 0.000287764 2.80412e-22)
(0.993282 0.000595221 -1.37236e-21)
(1.07561 0.0292629 1.72034e-20)
(-0.0648166 0.0102123 -3.07679e-20)
(0.834947 0.00584341 -3.32717e-22)
(1.01368 0.00580645 -5.35011e-22)
(1.00005 0.000669082 7.74179e-24)
(1.03663 0.0364642 -4.8619e-21)
(1.0548 0.0438927 -9.83496e-21)
(1.01295 0.00573442 -5.8099e-22)
(1.07939 0.0257709 -1.02858e-20)
(1.09366 0.0773444 -1.5586e-20)
(0.817722 0.10257 4.06433e-21)
(1.01982 0.0159462 5.4666e-21)
(1.04084 0.0194956 0)
(1.06465 0.0857874 3.19317e-21)
(0.989554 0.000201499 0)
(1.02239 0.0419157 1.22733e-22)
(1.02286 0.0413743 0)
(1.01738 0.00093448 1.24678e-23)
(1.10961 0.0740214 2.69901e-20)
(0.272917 0.031791 0)
(0.99357 6.84327e-05 0)
(1.0368 0.0214432 2.76151e-21)
(0.9895 9.36998e-05 0)
(1.0007 0.00411731 0)
(1.07955 0.0559853 -1.42135e-20)
(1.08093 0.0554154 -1.49731e-20)
(0.763614 0.0889965 1.45918e-21)
(1.00036 0.0037776 0)
(0.989903 0.000199206 5.64651e-23)
(1.02706 0.0112092 7.02305e-21)
(1.00171 0.000718038 2.75056e-23)
(0.321891 0.0470024 1.64109e-20)
(0.992726 0.000303109 5.0373e-22)
(0.768531 0.0456692 2.49776e-22)
(1.04068 0.0413423 6.19785e-21)
(1.01694 0.000887879 0)
(0.251737 0.0535364 0)
(0.783567 0.102571 -1.9522e-22)
(1.1141 0.107738 -3.77879e-20)
(1.07754 0.0297787 -2.24852e-20)
(1.11234 0.0978608 2.03066e-21)
(0.834156 0.0148985 6.03602e-23)
(1.02405 0.0274237 2.60215e-21)
(0.991138 0.000196734 -2.36507e-22)
(1.0418 0.0420145 -1.3103e-20)
(-0.000722759 -0.0492411 -2.80534e-21)
(0.991462 0.000282207 0)
(1.02361 0.0271759 -4.61356e-21)
(-0.0236718 0.00534896 -1.78076e-20)
(1.09752 0.0716339 2.4344e-20)
(1.05942 0.0505615 -7.15493e-21)
(0.807614 0.100869 4.60151e-20)
(1.10783 0.110906 -1.84551e-20)
(1.06377 0.104996 0)
(1.04453 0.0348632 -9.95375e-21)
(0.995708 0.000726269 -2.68907e-22)
(0.784161 0.0984864 0)
(1.11109 0.096964 0)
(1.02709 0.0108061 -3.86136e-21)
(1.11059 0.0754937 -1.01579e-20)
(1.0455 0.0348157 1.81481e-20)
(1.0987 0.0730123 -3.28027e-20)
(0.990455 0.00020691 1.38447e-21)
(0.987544 -5.83686e-05 0)
(1.09276 0.0612595 0)
(0.35816 0.0506221 4.20097e-21)
(0.990494 0.000260238 6.22781e-22)
(0.319398 0.0473071 -7.8417e-23)
(1.01011 0.00153403 -1.34739e-22)
(0.4764 0.0480469 4.3204e-21)
(1.00436 0.00123354 -3.56656e-22)
(0.754727 0.0852656 1.4871e-23)
(1.14978 0.113217 3.09966e-20)
(1.01742 0.005435 0)
(0.786306 0.0982426 0)
(0.540577 0.0232296 3.59153e-21)
(1.01134 0.00289438 0)
(1.00885 0.00145847 0)
(1.01686 0.00540999 0)
(1.06673 0.0257698 0)
(1.13455 0.111574 -2.76607e-20)
(1.01229 0.00909588 -7.90327e-22)
(1.09992 0.109503 1.60842e-20)
(1.13372 0.11019 -2.74947e-20)
(0.237003 0.0283385 0)
(1.02252 0.0258936 3.3234e-21)
(0.822635 0.00596409 2.80747e-22)
(0.990605 0.000281516 -5.67481e-22)
(1.11128 0.108328 0)
(1.13894 0.112762 3.27263e-20)
(0.991405 0.000343643 2.95964e-22)
(0.990801 0.000327949 -3.03862e-22)
(0.780405 0.0162119 -1.30532e-22)
(1.07201 0.0344431 1.90782e-20)
(1.0326 0.0222949 0)
(0.248071 0.0312323 0)
(1.01712 0.0138987 5.8433e-21)
(1.00036 0.000829646 -3.68939e-22)
(0.987807 -8.02355e-05 4.34681e-22)
(1.00982 0.00148619 2.12653e-22)
(1.06962 0.0506348 -3.52913e-20)
(0.0660516 0.0385737 -8.12923e-22)
(0.98827 -4.72784e-05 2.89615e-22)
(1.00173 0.000720499 2.12923e-23)
(1.0245 0.0053621 1.60041e-22)
(1.07064 0.0345841 -3.16882e-20)
(1.01671 0.0137373 -6.82552e-22)
(1.07927 0.0245241 6.57115e-21)
(0.67162 0.0914739 1.46748e-20)
(1.01259 0.00900756 1.80883e-21)
(1.02154 0.0796658 0)
(0.21102 0.0314065 -3.01282e-20)
(1.07652 0.111974 -1.38925e-20)
(-0.0484795 0.00851072 -3.32529e-20)
(0.718251 0.0959287 1.25734e-20)
(1.02376 0.00533143 -4.03126e-24)
(1.00404 0.00127491 2.76861e-22)
(1.05608 0.0860118 -1.00064e-20)
(1.03237 0.0164749 -2.04988e-23)
(0.691004 0.0237745 4.27373e-23)
(1.00073 0.0010687 -4.40137e-22)
(0.792244 0.0990202 -2.13928e-20)
(0.78325 0.0880089 -2.10789e-21)
(0.177169 0.0300055 -3.88775e-21)
(0.464122 0.0431128 -2.11324e-21)
(0.988522 -8.37791e-05 3.22767e-22)
(1.00947 0.0095952 2.7102e-21)
(0.771589 0.10128 -9.03922e-21)
(-0.0261812 0.04372 1.96573e-20)
(0.678329 0.0110234 2.92026e-22)
(0.460409 0.0751413 -2.25331e-21)
(0.672403 0.0469065 -1.37618e-21)
(0.615087 0.0887936 -6.77034e-22)
(0.170986 0.0283184 4.42443e-21)
(1.0325 0.0159619 0)
(0.47432 0.0764251 -1.94026e-20)
(1.02705 0.0168482 0)
(1.00742 0.00820368 0)
(1.00062 0.000846976 -1.02155e-22)
(0.904387 0.109483 0)
(1.0315 0.0350126 0)
(1.096 0.0981843 -9.07542e-21)
(0.410629 0.0516527 -1.68968e-21)
(0.919261 0.016854 -5.17238e-22)
(1.09537 0.0782084 0)
(1.02557 0.0114091 0)
(0.989312 2.19166e-05 0)
(0.738977 0.0952307 1.12552e-20)
(1.00815 0.00146063 0)
(0.996812 0.00223622 1.12152e-21)
(0.48317 0.0753103 7.85592e-21)
(1.02677 0.0017554 0)
(0.866623 0.00100529 8.71787e-24)
(1.03454 0.00350519 1.20036e-20)
(1.13961 0.112134 -3.28051e-20)
(0.889786 0.0165469 3.07299e-22)
(1.03738 0.0611201 7.50909e-21)
(0.551047 0.0380651 5.13856e-21)
(1.00607 0.00136875 5.91004e-21)
(1.02456 0.00515449 -9.17572e-23)
(0.267913 0.0575371 3.08787e-20)
(1.09721 0.0975 -1.14606e-20)
(0.205014 0.0299103 2.92754e-20)
(1.02724 0.00192426 4.50617e-24)
(0.840415 0.00659235 7.63205e-23)
(1.05722 0.109639 0)
(1.06632 0.0869768 0)
(0.437454 0.0744414 -5.30342e-21)
(1.02961 0.0176005 1.41549e-20)
(1.02642 0.0116428 1.71453e-21)
(0.611357 0.0339388 1.75148e-21)
(1.03589 0.0210639 -8.7354e-22)
(0.868275 0.106539 0)
(0.650914 0.0907551 -6.08416e-21)
(1.04639 0.0175739 0)
(0.487984 0.0185946 -8.91835e-23)
(0.0977084 0.0139638 1.8897e-20)
(1.05519 0.0825029 -2.50263e-21)
(0.766543 0.0553147 0)
(0.103254 0.0303778 -5.0643e-21)
(1.00279 0.000886217 1.0835e-20)
(0.99425 0.000710194 1.04536e-21)
(1.05111 0.0745055 7.42503e-21)
(0.00912524 0.00798799 6.08539e-20)
(1.09138 0.0572876 -2.01102e-20)
(1.09168 0.0239623 1.34478e-20)
(0.797099 0.101485 -1.50604e-23)
(0.810907 0.104317 -1.31222e-20)
(1.00384 0.00123714 0)
(1.01718 0.0167907 5.10268e-22)
(0.994666 0.000439187 -3.2452e-21)
(1.01504 0.00461751 6.20785e-23)
(0.266763 0.0299522 0)
(0.778209 0.102011 1.64803e-22)
(0.488013 0.0778592 7.5979e-21)
(0.0954656 0.0284903 0)
(1.01729 0.016658 0)
(0.864594 0.0162267 -1.82238e-22)
(0.996122 0.000711356 1.65426e-21)
(1.02044 0.00455358 8.05889e-23)
(1.00923 0.00934025 -3.79304e-21)
(0.154139 0.0133318 1.28771e-20)
(1.02245 0.00647186 4.26082e-23)
(1.00273 0.0049007 -4.97954e-23)
(0.273158 0.0293898 0)
(0.99037 0.000258132 -1.01045e-23)
(1.02795 0.0103046 2.42478e-20)
(1.06711 0.108615 5.47586e-21)
(1.12307 0.109878 0)
(0.106043 0.0147123 -2.29939e-20)
(1.12559 0.0830172 0)
(0.650159 0.0378239 -3.53903e-21)
(0.989303 6.43378e-05 -1.31717e-21)
(1.08879 0.090246 0)
(0.990244 0.000248717 -1.26355e-22)
(0.539153 0.0343858 -4.64116e-21)
(1.02306 0.00661256 -3.5035e-21)
(0.494063 0.0748273 0)
(1.02878 0.0173417 -1.3119e-20)
(1.0538 0.0710635 0)
(1.04576 0.0181569 -1.51888e-20)
(0.140324 0.0301112 -4.33788e-20)
(1.04468 0.0360963 1.57743e-20)
(0.0865868 0.0120321 2.83652e-20)
(1.01827 0.0148394 -6.81003e-21)
(0.147502 0.0306234 -3.59935e-20)
(0.139183 0.0102484 -2.82966e-20)
(1.08741 0.0905545 1.80972e-20)
(1.0217 0.00507846 -4.04189e-23)
(0.885039 0.109861 -4.00622e-20)
(1.04155 0.035043 1.91836e-20)
(1.05868 0.0514065 6.657e-21)
(0.773963 0.102201 1.85669e-20)
(1.04206 0.00438125 3.6002e-21)
(1.10314 0.0440599 1.0422e-20)
(0.989065 0.000116476 3.44317e-22)
(1.00878 0.00124275 0)
(1.04074 0.0677846 -1.13226e-21)
(1.01772 0.0146926 -1.07154e-20)
(1.06296 0.086313 1.01671e-20)
(1.00571 0.00135589 -3.41764e-21)
(0.284793 0.00351079 -1.80788e-23)
(0.809226 0.00454852 1.08243e-22)
(1.02472 0.0118264 1.29568e-20)
(0.258522 0.0692945 0)
(1.02396 0.0414917 -2.24414e-22)
(0.991697 0.000285819 -2.35912e-21)
(1.03494 0.00381798 -1.84141e-20)
(0.694424 0.0933834 1.59574e-20)
(0.997126 0.00234875 1.22654e-21)
(1.04473 0.110447 2.6374e-21)
(0.988762 -7.06903e-05 -1.34972e-22)
(1.02356 0.0421701 -5.83498e-22)
(0.988145 -5.49146e-05 2.84535e-22)
(1.13653 0.11019 -3.62024e-21)
(0.98843 -0.00013136 -5.41604e-22)
(1.00867 0.0012383 0)
(1.04892 0.0305328 -1.00593e-20)
(0.921628 0.10893 0)
(0.344929 0.0349299 0)
(1.02799 0.0108183 -1.248e-20)
(0.99883 0.00290462 -7.44566e-22)
(1.03829 0.0623437 -1.28543e-20)
(0.777731 0.0981972 -2.744e-20)
(0.739687 0.0993814 0)
(1.13208 0.0667144 -2.17991e-20)
(1.0249 0.0566918 -2.98725e-22)
(1.00325 0.0042856 0)
(1.04155 0.00380487 0)
(0.0718146 0.00869122 0)
(1.01157 0.00760842 0)
(0.132849 0.0283127 4.58369e-20)
(1.12477 0.084049 -3.43888e-21)
(0.0503715 0.00700267 0)
(0.818575 0.100384 4.46452e-20)
(0.135813 0.0276599 3.23693e-20)
(0.184099 0.0305751 -7.74055e-21)
(1.09006 0.108463 7.58748e-21)
(0.0514964 0.025026 4.55713e-20)
(0.779493 0.0977276 -4.06995e-20)
(1.00735 0.00141071 -3.4981e-22)
(1.04044 0.0188695 0)
(0.327169 0.0631128 -4.75061e-21)
(-0.0199812 0.0451478 0)
(1.0077 0.00819872 6.47053e-22)
(1.04071 0.0361918 -1.29326e-20)
(1.09331 0.0753975 2.64817e-20)
(0.994523 0.000590669 0)
(0.997277 0.0026923 0)
(0.595803 0.0579436 4.3191e-22)
(1.00435 0.00669488 3.3401e-21)
(1.00754 0.0011713 2.79863e-22)
(0.972949 0.0892682 7.8807e-24)
(1.0015 0.000712847 -7.41873e-21)
(0.361261 0.0407925 0)
(1.04145 0.00736022 0)
(1.02504 0.0495529 1.92788e-21)
(0.990595 0.000228649 1.15458e-21)
(0.91384 0.108663 0)
(0.554105 0.0780948 0)
(0.0567328 0.00883367 -2.28192e-22)
(1.03945 0.0675572 -2.3488e-21)
(1.04075 0.0076923 6.50413e-21)
(0.346547 -0.0127361 3.27431e-21)
(0.537661 0.0759081 0)
(1.02576 0.0501666 -2.57658e-21)
(1.00747 0.0011676 9.54943e-23)
(0.252959 0.0310236 1.58149e-20)
(1.00509 0.00105664 0)
(0.600716 0.0163816 4.02416e-21)
(1.01707 0.000978382 1.43201e-23)
(0.711857 0.0923677 -3.74296e-20)
(-0.00782988 -0.040459 1.35564e-21)
(1.01927 0.000926388 4.85421e-23)
(1.01858 0.00340736 3.86527e-23)
(1.07873 0.0962939 3.18392e-20)
(0.992618 0.000433217 0)
(1.01902 0.000937442 2.35989e-23)
(0.291619 0.0456284 -3.16098e-20)
(1.08993 0.024739 -4.12834e-20)
(1.00492 0.00103703 -1.77762e-22)
(0.988865 9.14044e-05 -5.60089e-23)
(0.997096 0.00260047 0)
(1.00409 0.00651783 -1.62904e-21)
(0.241996 0.0538257 0)
(0.992151 0.000166176 1.05243e-21)
(0.510275 0.0760081 -4.23329e-21)
(1.02852 0.049443 0)
(1.10748 0.0502139 0)
(0.988559 -4.6043e-05 -6.96962e-22)
(1.02546 0.0120257 0)
(0.110196 0.0309141 0)
(1.12708 0.112675 -6.64968e-21)
(1.11404 0.061237 -1.69705e-20)
(1.02844 0.077923 -6.06186e-23)
(1.13538 0.0936308 -6.04614e-21)
(1.08117 0.0500139 0)
(1.02104 0.0287268 0)
(0.172142 0.0305035 8.03236e-21)
(0.771593 0.102731 -5.58441e-22)
(1.10344 0.109252 0)
(1.09273 0.0564147 1.917e-20)
(1.05027 0.0942227 0)
(0.989342 8.06551e-05 -7.84995e-22)
(1.0215 0.0290715 0)
(0.999393 0.0030393 -1.43582e-21)
(1.00205 0.00148601 0)
(1.12886 0.0820913 5.53778e-20)
(0.00203123 0.00571613 -7.06624e-20)
(0.242682 0.0290146 -1.84812e-21)
(0.845344 0.00554693 -3.89811e-23)
(1.00299 0.00430716 -2.41305e-22)
(0.956933 0.0588662 0)
(1.02378 0.0136099 1.77034e-20)
(1.05624 0.0443469 -1.15638e-20)
(1.08024 0.0508633 -2.4369e-22)
(0.294319 0.00128596 2.20671e-21)
(1.0417 0.0362248 -1.38396e-20)
(1.0706 0.103018 0)
(0.374187 0.075216 4.16802e-21)
(1.01314 0.00869985 0)
(1.03091 0.00204977 8.83945e-21)
(1.09271 0.107335 -6.29419e-21)
(0.000734253 -0.023736 -5.0167e-20)
(1.12083 0.0842784 0)
(1.05117 0.0332938 -1.36607e-22)
(1.00735 0.00792676 -3.13647e-21)
(0.995964 0.00071337 0)
(0.579641 0.00645768 0)
(0.388268 0.0549193 1.52589e-20)
(1.02494 0.0254437 -4.91953e-21)
(0.383859 0.0766643 -1.69429e-20)
(1.0863 0.0930243 2.66555e-20)
(0.00268676 -0.0263461 3.89647e-20)
(1.03055 0.00215573 -2.41511e-20)
(0.435638 0.0766864 5.30211e-20)
(0.173803 0.0278594 0)
(1.04026 0.0215912 0)
(1.04846 0.0941561 0)
(0.993965 0.00043233 -6.32603e-22)
(1.06826 0.0718131 1.25583e-20)
(1.05654 0.0840525 0)
(0.391899 0.0307009 -7.12442e-22)
(1.01363 0.00862345 0)
(1.02757 0.0175646 0)
(0.416429 0.0487365 -1.8093e-21)
(1.10234 0.109502 -2.72196e-20)
(0.893844 0.0362913 6.44533e-23)
(0.485393 0.0765807 3.98807e-20)
(1.1228 0.111141 -5.69548e-23)
(0.220929 0.0305507 0)
(0.999592 0.00129898 2.25413e-21)
(0.30647 0.0252956 1.96448e-21)
(0.994303 0.000808147 -1.83899e-21)
(1.06583 0.10663 -4.65039e-21)
(1.03729 0.0580789 -1.03119e-20)
(1.05714 0.0507965 -1.19619e-20)
(1.13428 0.0669812 0)
(1.01516 0.0103393 7.54687e-23)
(0.881768 0.0567028 0)
(1.02888 0.00983447 -1.45432e-20)
(-0.0488168 0.0189876 1.88859e-20)
(1.06899 0.0732858 0)
(1.02884 0.0486251 0)
(0.285207 0.0329618 -3.02418e-21)
(1.04102 0.0222405 4.71956e-21)
(1.02886 0.010327 1.45889e-20)
(0.996525 0.00170591 1.21901e-21)
(0.15198 0.0301292 0)
(-0.0173324 0.0028081 0)
(0.0677006 0.0323076 -2.76407e-20)
(1.12784 0.0832699 -6.55209e-20)
(0.996173 0.000736667 4.24425e-22)
(1.11053 0.109686 0)
(1.0063 0.00110746 1.9538e-22)
(1.10834 0.0971772 0)
(1.03347 0.0331403 -4.83707e-21)
(0.298656 0.0445665 1.8218e-20)
(0.453148 0.071444 -1.82622e-20)
(1.10901 0.109935 -1.93337e-20)
(0.81817 0.100397 -2.69316e-21)
(1.01948 0.000858911 -3.12047e-23)
(0.364256 -0.0171507 0)
(1.07081 0.0149085 -1.70254e-20)
(0.548442 0.077991 -1.34468e-20)
(0.165462 0.0285938 1.14479e-21)
(0.455101 0.0779936 -5.70346e-20)
(0.134878 0.0304987 -1.82455e-20)
(1.08112 0.107286 -1.66397e-20)
(0.618631 0.0203212 1.14399e-21)
(0.306672 0.0568302 0)
(0.986998 6.52699e-06 4.70613e-23)
(1.00121 0.00105252 1.55605e-22)
(0.824144 0.0108462 -3.5902e-22)
(1.00099 0.00102385 2.94486e-22)
(1.10433 0.0454998 -4.1873e-20)
(1.11327 0.059159 -3.16587e-20)
(1.03864 0.0350456 0)
(1.0062 0.00110095 0)
(0.0982498 0.0279214 0)
(1.03036 0.0333112 0)
(1.02133 0.0269485 9.55281e-23)
(1.08248 0.108375 1.96494e-20)
(1.01498 0.0100727 0)
(0.996411 0.000734182 -1.25104e-22)
(0.855056 0.10656 -2.11885e-20)
(1.08758 0.0924087 -1.49677e-20)
(0.463711 0.0796475 -4.95438e-20)
(0.576579 0.0115355 -9.9291e-22)
(1.03961 0.035129 1.25254e-20)
(1.12273 0.0850089 1.02813e-20)
(0.847481 0.0361549 0)
(0.240347 0.0305109 0)
(0.452727 0.0783849 1.71295e-20)
(1.02446 0.00598217 -1.96956e-20)
(1.02499 0.0413861 -1.63881e-21)
(1.00859 0.00900018 1.27312e-21)
(1.13596 0.0953749 3.15622e-20)
(0.403589 0.0579355 0)
(0.881088 0.107747 0)
(0.190097 0.0302632 3.32903e-20)
(0.235878 0.030839 1.29698e-20)
(1.09757 0.108617 1.92504e-20)
(0.247433 0.0248642 0)
(0.327199 0.05669 -2.88054e-20)
(1.15875 0.115054 0)
(0.999037 0.00276002 0)
(0.990887 0.00036078 2.90856e-22)
(0.233999 0.02878 0)
(0.734602 0.0521467 0)
(0.655561 0.024625 1.29808e-21)
(0.999457 0.000863028 -3.73394e-21)
(1.00029 0.00273733 1.81894e-22)
(1.03776 0.0358783 0)
(1.05975 0.107214 9.39084e-21)
(0.258436 0.0258435 0)
(1.02471 0.0255979 0)
(0.186517 0.00458988 -3.37208e-22)
(1.02808 0.000672187 4.14978e-22)
(1.02651 0.0491351 1.72971e-21)
(1.00414 0.000757391 0)
(1.02898 0.0323796 -7.26061e-21)
(1.16188 0.113902 1.22916e-21)
(1.00969 0.00735768 4.12999e-21)
(1.01765 0.0187225 8.21567e-23)
(0.990597 4.665e-05 7.55936e-22)
(0.990326 -2.51027e-05 0)
(0.99026 0.00018835 -1.0278e-21)
(1.02456 0.00569083 1.51892e-20)
(0.992847 0.000539566 0)
(1.12087 0.096645 -2.02972e-20)
(0.987109 2.98537e-06 0)
(0.710821 0.0518089 0)
(0.920844 0.0381679 0)
(1.02285 0.023563 8.50785e-21)
(0.114787 0.0304597 0)
(0.999736 0.000874941 -1.13063e-21)
(0.0259956 0.00840937 3.43302e-20)
(1.01222 0.00645937 -4.68473e-21)
(0.97668 0.0567751 -1.06562e-21)
(1.02612 0.0223921 0)
(1.0671 0.112009 2.71991e-21)
(1.00152 0.00111162 -2.87636e-22)
(1.03396 0.0921551 4.08017e-21)
(0.400895 0.0575936 9.93541e-21)
(1.00761 0.00788901 2.5636e-21)
(1.10951 0.05026 -4.39405e-22)
(1.10359 0.112041 -4.49313e-20)
(0.768873 0.0986201 -4.26377e-21)
(0.249498 0.0231051 -3.18522e-20)
(1.02018 0.015406 0)
(1.09807 0.074482 3.22719e-20)
(0.53574 0.0517396 1.2993e-21)
(0.533908 0.0763834 0)
(1.02061 0.00324835 -1.67627e-22)
(0.98926 0.000127767 1.2043e-22)
(0.439274 0.0640521 2.96376e-20)
(0.992429 0.000431833 2.09898e-22)
(1.10982 0.0979376 0)
(0.587901 0.00269069 0)
(0.127789 0.0285255 5.12694e-21)
(0.140867 0.0280716 0)
(1.01983 0.00218193 -1.5721e-20)
(1.02368 0.00144786 0)
(0.992595 0.000776143 -5.89084e-22)
(1.02101 0.00126268 0)
(1.02156 0.00315507 0)
(1.02601 0.0259498 4.48976e-21)
(0.81277 0.00510388 1.18389e-22)
(0.714727 0.0676374 -5.37905e-22)
(0.851967 0.0148337 1.64517e-21)
(0.3025 0.0528581 -2.94011e-20)
(0.0955693 0.00754602 0)
(0.0556727 0.00622195 0)
(1.12235 0.0963845 0)
(1.01767 0.0186337 0)
(0.338775 0.0655678 0)
(0.778441 0.102159 0)
(1.01039 0.00739166 -4.13993e-21)
(1.0261 0.0574872 -3.13206e-22)
(0.0665341 0.00844974 -1.17529e-20)
(1.02207 0.0949154 -3.41052e-21)
(1.02305 0.0264978 4.87205e-21)
(0.518653 0.0178681 -1.82686e-21)
(1.03873 0.0360526 0)
(1.02734 0.0498378 0)
(0.43675 0.0756866 4.86729e-20)
(1.0064 0.00839836 1.09281e-21)
(0.652454 0.0889651 5.46077e-21)
(0.464605 0.0747956 -3.19854e-20)
(0.899473 0.0877182 -3.4727e-21)
(0.0155633 0.00673048 -3.47959e-20)
(0.860278 0.000699383 -3.54437e-23)
(1.00653 0.00841564 0)
(0.282655 0.0532151 -2.93139e-20)
(0.994925 0.000604678 0)
(1.11787 0.0850889 3.00745e-20)
(1.10211 0.108272 -1.18322e-20)
(1.07696 0.111211 1.43025e-20)
(-0.0534596 -0.00150558 1.40234e-20)
(1.02246 0.0262898 -3.40682e-21)
(1.03642 0.0371709 1.08837e-20)
(0.673608 0.00384664 -1.42368e-21)
(1.05049 0.0446371 9.85046e-21)
(1.02405 0.00433437 0)
(1.01799 0.0193411 -2.67438e-21)
(0.992649 0.000469988 -2.16804e-22)
(0.990448 0.000271599 -1.13789e-22)
(0.0609303 0.00791235 0)
(1.02913 0.000888888 0)
(1.018 0.0192822 -8.62144e-23)
(0.989785 0.000228828 -1.26168e-23)
(1.11753 0.109159 2.20079e-20)
(0.672604 0.0199101 -1.45858e-22)
(1.09715 0.0887672 4.28577e-20)
(1.06904 0.0517331 2.05757e-20)
(0.6713 0.00750881 6.06865e-22)
(0.810281 0.00733916 1.09503e-22)
(1.048 0.0144748 -2.81776e-20)
(1.0615 0.0847683 -4.80486e-22)
(0.992499 0.000484136 3.86389e-22)
(1.00726 0.0076193 2.49307e-21)
(1.02716 0.026456 3.62786e-21)
(0.989709 0.00017425 0)
(1.02331 0.00612425 6.12381e-21)
(1.10278 0.0874717 -3.77084e-20)
(0.402058 0.0345385 0)
(-0.012496 -0.0222921 -1.42975e-21)
(1.07257 0.0147658 2.15596e-20)
(1.00315 0.00116417 0)
(1.12337 0.112009 -7.26363e-21)
(0.60562 0.0410643 3.7575e-21)
(0.816142 0.0175227 -7.52644e-22)
(1.06694 0.102053 0)
(1.11955 0.0857565 -3.56707e-21)
(1.02274 0.0601926 -4.37698e-22)
(0.788052 0.0257851 1.59393e-21)
(1.03144 0.0164978 1.82261e-23)
(0.54613 0.0766782 1.47762e-20)
(1.03355 0.0226091 -1.89472e-23)
(1.02402 0.0593802 -4.95798e-22)
(0.482981 0.0782028 4.17517e-20)
(0.467216 0.0783673 0)
(0.772505 0.103083 1.95492e-20)
(1.0213 0.00444487 0)
(0.990538 0.000277493 -6.9429e-23)
(0.283603 0.0626876 1.06398e-20)
(1.05333 0.0725977 -6.73536e-21)
(1.02642 0.02215 -2.1648e-21)
(1.02355 0.00432096 0)
(1.0522 0.0761118 0)
(1.0257 0.0260972 -4.64509e-21)
(0.949563 0.0183399 0)
(1.01641 0.00522947 0)
(0.354173 0.0161778 1.84128e-22)
(0.103345 0.0283833 0)
(0.990794 0.000297255 8.06651e-23)
(1.03117 0.081012 2.5469e-21)
(0.833912 0.0926567 0)
(0.444248 0.0763649 0)
(1.02135 0.02591 0)
(1.02013 0.0202894 1.14737e-22)
(0.545652 0.0868657 -1.24473e-20)
(1.00383 0.00101349 0)
(0.988481 -6.86518e-05 2.00864e-23)
(1.03999 0.0526396 0)
(0.989214 0.000123238 2.69041e-22)
(0.254224 0.0616119 -2.16399e-20)
(0.23901 0.0199961 2.18454e-20)
(1.02881 0.0315535 0)
(1.11582 0.0614399 5.1689e-20)
(1.02057 0.0209345 1.23614e-22)
(1.017 0.0161123 0)
(0.855647 0.00568351 5.73258e-23)
(1.09565 0.0880545 -5.53281e-20)
(-0.00365656 -0.0455096 -1.25215e-20)
(1.00372 0.000999204 -1.13103e-22)
(0.732592 0.0871138 -1.0111e-21)
(0.989659 0.00014493 -2.33152e-22)
(0.988399 -1.33094e-06 3.59578e-22)
(0.546004 0.0812424 -2.03102e-20)
(0.031098 0.00836796 0)
(0.103562 0.00900443 0)
(0.829165 0.103621 0)
(1.02663 0.0256086 3.53427e-21)
(0.464537 0.0762526 -4.70003e-20)
(1.01149 0.00657018 0)
(1.02966 0.0801315 0)
(0.178458 0.0246867 -1.37178e-20)
(0.178975 0.0282418 -2.82438e-20)
(-0.0370298 0.0115869 3.77055e-20)
(1.10038 0.110638 3.44241e-20)
(1.0046 0.00695273 0)
(0.98788 -4.84034e-05 -1.14831e-22)
(1.12478 0.109022 -3.22612e-21)
(0.180946 0.000596193 -2.38831e-22)
(0.916423 0.0153672 0)
(1.08236 0.0389233 1.2767e-20)
(0.997887 0.000986261 0)
(1.10173 0.0881688 4.49669e-20)
(0.453683 0.0802871 1.64006e-20)
(0.286738 0.0219486 -2.63136e-22)
(1.05072 0.0322759 3.18674e-20)
(1.01187 0.00750906 5.04757e-22)
(0.989662 0.000106981 4.26705e-22)
(0.966709 0.019596 4.89435e-24)
(-0.00366633 0.00580659 3.74176e-20)
(0.818335 0.0108424 0)
(0.802324 0.00422571 2.11842e-22)
(1.02411 0.00537877 3.71796e-23)
(-0.0348158 0.0388536 -1.41708e-20)
(1.02595 0.00393938 6.56096e-21)
(1.01882 0.0198486 2.07109e-21)
(1.02052 0.00242486 1.07925e-20)
(0.46892 0.0814123 0)
(1.07882 0.0948025 2.95075e-20)
(1.02145 0.026636 0)
(0.796987 0.0155647 -3.03226e-22)
(1.01092 0.00767378 1.45018e-20)
(1.081 0.0375903 3.74426e-20)
(0.0531288 0.00642982 0)
(1.03148 0.0473105 1.7805e-21)
(-0.0509462 0.0176867 7.77799e-21)
(1.00424 0.00671379 0)
(0.992467 0.000662048 -1.76103e-21)
(0.988026 9.07581e-05 3.64402e-23)
(1.03122 0.0482849 0)
(1.06472 0.0934222 8.87542e-21)
(1.00717 0.0558508 -4.75928e-22)
(1.05342 0.0826837 0)
(0.263787 0.02671 -2.66013e-20)
(1.07674 0.0792967 -9.77943e-21)
(0.645912 0.0620194 6.18507e-22)
(1.02684 0.0266607 5.1705e-21)
(0.751633 0.0994791 0)
(1.00834 0.00876193 -2.65445e-21)
(1.02135 0.0276906 0)
(1.04024 0.00878855 -7.14725e-21)
(-0.0304859 0.0386574 9.36619e-23)
(0.619866 0.0881818 -6.05785e-21)
(0.163391 0.0113135 1.31179e-20)
(0.954628 0.108932 -1.64819e-20)
(0.997591 0.000872084 4.85889e-21)
(0.989203 4.57629e-05 1.09967e-21)
(0.269437 0.0295906 -2.70695e-20)
(0.807543 0.00445055 0)
(-0.0186993 -0.0290903 1.75323e-20)
(-0.0309885 0.0322818 0)
(1.01846 0.01921 -6.19894e-21)
(1.03053 0.0086915 2.21337e-20)
(0.0554163 0.0598643 1.27969e-20)
(1.02274 0.0323682 -1.36403e-21)
(1.09646 0.0752691 6.43523e-21)
(1.04012 0.0199926 0)
(0.0819295 0.00239312 3.53812e-20)
(1.01154 0.00478088 -1.38006e-22)
(0.938559 0.106761 1.13935e-20)
(1.00181 0.000887979 0)
(1.02537 0.000228475 7.79813e-21)
(0.279729 0.0325399 1.96644e-20)
(1.04965 0.0683383 6.14914e-21)
(0.715696 0.0976601 -9.29714e-21)
(0.55277 0.0850672 -4.54021e-22)
(1.01776 0.00561702 -5.69959e-22)
(1.03928 0.00837659 7.18304e-21)
(0.44947 0.0652547 -1.35118e-20)
(1.02767 0.0748209 1.16085e-22)
(1.02463 0.0421089 1.96533e-21)
(0.998482 0.000903269 -1.12715e-21)
(1.01711 0.0159812 9.14129e-23)
(1.02396 0.00631719 -3.66732e-21)
(1.05099 0.0921386 0)
(0.519647 0.085285 -6.74994e-21)
(0.931028 0.0146902 -5.9532e-22)
(1.03409 0.00763745 -2.56871e-21)
(1.02298 0.0133449 -1.39001e-20)
(-0.0775762 0.0192144 -3.09591e-20)
(0.999875 0.0013378 2.06206e-21)
(1.02369 0.0121016 0)
(0.650045 0.086906 2.83113e-21)
(0.989469 0.000192807 -4.28163e-24)
(1.04994 0.0435471 -2.2248e-20)
(1.0092 0.00191563 0)
(1.10546 0.107822 8.00704e-21)
(1.01176 0.0123608 -1.82724e-21)
(1.02114 0.0226747 -4.85176e-22)
(0.465021 0.0739614 0)
(0.994672 0.000765677 -2.38851e-21)
(0.235009 0.0544636 0)
(1.06782 0.0251651 -1.93594e-20)
(0.848864 0.103626 -3.07416e-20)
(1.01918 0.00351512 1.00031e-20)
(1.03226 0.022687 0)
(0.162663 0.0303533 3.61761e-20)
(0.67241 0.010345 2.2885e-21)
(0.487983 0.0773716 0)
(1.01576 0.0052161 0)
(0.874675 0.0385354 -1.18733e-21)
(1.01143 0.00160219 -1.39743e-22)
(1.03138 0.0169274 -5.75045e-21)
(0.717602 0.094679 -1.46408e-20)
(0.996273 0.00157466 1.03088e-21)
(1.03462 0.00264861 2.46236e-20)
(1.02418 0.00192284 0)
(1.035 0.00303654 -2.28977e-20)
(0.493458 0.0772181 -2.16395e-20)
(1.01985 0.0194788 -2.605e-21)
(1.05136 0.0308037 -1.02198e-20)
(1.03698 0.0900424 -1.28383e-21)
(0.990541 0.000264867 5.60103e-22)
(0.504738 0.0768473 2.06461e-20)
(1.01731 0.0180435 -2.13443e-21)
(0.0599317 0.0428283 2.05115e-21)
(0.996219 0.00137375 -3.43442e-21)
(1.02386 0.0576128 5.05561e-23)
(0.407879 0.0580946 -9.6353e-21)
(0.977374 0.10924 -1.80161e-20)
(0.779941 0.00349155 3.4819e-22)
(1.04734 0.0138705 0)
(0.53267 0.0826637 3.73678e-20)
(-0.0258379 0.029681 0)
(0.532789 0.0759364 7.46033e-21)
(1.00037 0.00404904 -5.61632e-21)
(1.02174 0.0296694 0)
(1.02219 0.0263741 0)
(1.00506 0.00228056 -5.36795e-22)
(1.00458 0.00217457 5.89929e-22)
(1.01016 0.00763039 0)
(0.290253 0.0356249 2.31842e-20)
(0.845051 0.101755 8.3845e-21)
(1.02179 0.02565 2.8035e-21)
(1.10588 0.0869734 0)
(1.03062 0.0214398 -9.82821e-21)
(1.021 0.0220646 3.54508e-22)
(-0.0647282 0.00477945 2.90633e-20)
(1.12866 0.11246 0)
(1.04986 0.0301801 0)
(1.09026 0.0266394 2.14088e-20)
(0.821287 0.0550829 0)
(0.791158 0.0991159 -2.03161e-20)
(0.995385 0.000956107 0)
(1.0004 0.00416466 2.83513e-21)
(0.849625 0.102606 0)
(1.02274 0.0317982 1.17056e-21)
(0.55258 0.077133 -1.3789e-20)
(0.88483 0.104565 3.74126e-20)
(1.02721 0.0427799 -2.10615e-21)
(1.05408 0.0427657 0)
(0.988637 7.54853e-05 -1.00711e-21)
(0.848263 0.00669138 -7.10559e-23)
(0.988777 9.7251e-05 -3.65629e-22)
(0.997339 0.000859167 -2.34869e-21)
(1.09153 0.0746308 -2.47664e-20)
(0.258828 0.0313771 1.40987e-20)
(0.988491 7.38859e-05 -3.36455e-22)
(1.01186 0.0122547 0)
(0.994598 0.000776487 -4.29636e-21)
(0.994382 0.000956815 4.04339e-22)
(1.08716 0.0846132 1.25919e-20)
(1.00156 0.00086549 0)
(1.03123 0.0012501 0)
(0.433362 0.0635772 -1.37172e-20)
(0.423319 0.0717267 6.3154e-21)
(1.01533 0.0632247 -4.38944e-23)
(0.830434 0.00512601 -8.89584e-24)
(0.243362 0.024569 2.48396e-20)
(1.01136 0.0067939 0)
(1.04633 0.0529153 0)
(0.210575 0.0281499 7.98701e-21)
(1.03436 0.0337637 0)
(1.06948 0.0137332 0)
(0.443808 0.0797888 -1.20814e-20)
(0.99857 0.00105384 -6.19078e-21)
(1.10158 0.105202 2.98322e-20)
(0.84186 0.102075 -7.80564e-21)
(1.07588 0.0655558 3.06922e-20)
(0.997882 0.00297309 9.33151e-22)
(1.02552 0.0035115 6.32245e-21)
(1.02027 0.014022 -8.9393e-23)
(1.02698 0.0254322 0)
(1.06861 0.103584 -6.59097e-22)
(1.02039 0.0143914 -2.12257e-22)
(1.02224 0.0260916 3.45446e-21)
(0.779603 0.00232746 9.57044e-23)
(0.678447 0.00684353 1.1314e-21)
(1.04307 0.0695802 -4.90691e-21)
(1.08802 0.0859993 -4.41016e-20)
(0.995711 0.00105769 -1.04517e-21)
(0.742465 0.10031 0)
(1.02125 0.004096 0)
(1.03879 0.0524795 0)
(0.125341 0.0305203 0)
(0.302814 0.0613855 -2.15155e-21)
(1.01205 0.00672922 2.67277e-21)
(1.13214 0.0811027 0)
(0.0506238 0.00824241 6.3158e-20)
(1.00475 0.00121679 -1.13185e-22)
(1.04012 0.0400822 0)
(1.03766 0.036843 -1.83307e-20)
(1.04419 0.0263536 -1.28026e-20)
(0.952831 0.108442 1.74507e-20)
(0.744401 0.100249 0)
(1.08803 0.0816347 -2.56478e-20)
(1.01836 0.0055601 -8.70442e-23)
(1.00268 0.000926521 -1.87409e-22)
(1.04211 0.0185485 1.34641e-20)
(0.987786 8.3304e-05 -7.44824e-22)
(0.991259 0.000182116 2.23488e-21)
(1.0642 0.0238949 -2.41926e-20)
(1.02034 0.0201419 1.38516e-22)
(0.478815 0.0129912 2.11512e-21)
(-0.0566552 -0.00181247 0)
(1.01265 0.00728718 0)
(-0.0336088 0.0256658 0)
(0.528909 0.0260422 -3.60666e-21)
(0.225912 0.067681 0)
(1.07912 0.0663221 0)
(1.01081 0.00160728 1.30124e-22)
(0.349589 0.0665367 4.40907e-21)
(0.79535 0.0995477 3.09088e-20)
(-0.0705541 0.00835762 -1.77255e-20)
(1.00956 0.0208904 -6.11806e-22)
(1.08257 0.0243083 -2.15757e-20)
(1.05482 0.0911715 0)
(0.393773 0.0582316 0)
(1.05631 0.0513645 1.54544e-20)
(0.988898 -4.37582e-05 -6.15506e-22)
(1.02648 0.0245535 0)
(0.988791 6.22265e-05 0)
(0.93312 0.110638 0)
(1.05168 0.072779 1.48324e-20)
(1.01734 0.0179356 2.72316e-21)
(1.02676 0.0415868 3.45601e-21)
(-0.0856247 0.0181147 -1.08718e-20)
(0.710892 0.100348 0)
(1.00527 0.00104667 -1.15346e-20)