/*--------------------------------*- C++ -*----------------------------------*\
| =========                 |                                                 |
| \\      /  F ield         | OpenFOAM: The Open Source CFD Toolbox           |
|  \\    /   O peration     | Version:  v2012                                 |
|   \\  /    A nd           | Website:  www.openfoam.com                      |
|    \\/     M anipulation  |                                                 |
\*---------------------------------------------------------------------------*/
FoamFile
{
    version     2.0;
    format      ascii;
    class       volScalarField;
    location    "200";
    object      ddt0(k);
}
// * * * * * * * * * * * * * * * * * * * * * * * * * * * * * * * * * * * * * //

dimensions      [0 2 -3 0 0 0 0];


internalField   nonuniform List<scalar> 
15335
(
-3.66912e-07
-1.18651e-07
-2.84701e-07
-1.26726e-08
-5.06529e-07
-2.56886e-10
-1.06418e-08
-1.18546e-06
4.16033e-10
-4.48519e-07
-3.52286e-07
4.59262e-10
-5.41345e-07
-4.54752e-07
1.07613e-07
6.60724e-05
5.22438e-10
-1.37307e-06
1.34058e-10
-4.38134e-05
-9.65442e-07
-9.7649e-07
-7.94199e-09
8.4257e-11
4.52463e-07
5.43541e-07
-1.12818e-07
4.5199e-07
-9.41502e-07
1.58152e-10
-1.17494e-07
6.958e-07
-2.63315e-09
-1.36596e-11
1.03065e-10
3.45624e-06
3.83515e-06
0.00412958
-1.44768e-07
1.20082e-06
8.97127e-08
5.38651e-05
-2.27001e-10
6.89318e-10
-3.52791e-07
3.31191e-11
1.32969e-06
1.53438e-06
-1.79608e-07
-1.79564e-10
8.02804e-11
-2.86316e-07
9.06212e-05
-3.38601e-10
1.66337e-10
-2.12142e-08
-2.11364e-07
3.82166e-08
-1.72322e-07
-3.53629e-07
-2.87192e-07
1.23457e-06
-3.99684e-08
-1.79844e-08
2.19474e-10
4.53894e-10
7.97625e-06
3.08179e-07
2.64586e-10
6.66513e-11
-2.46638e-10
1.07222e-10
4.12019e-07
-2.48376e-07
6.45432e-06
-8.28881e-07
1.10867e-07
-1.85188e-07
-3.63348e-07
1.56557e-09
-8.27687e-07
-8.91848e-08
-7.8675e-07
2.77101e-07
-1.05479e-07
3.65663e-11
1.28088e-10
6.66527e-10
3.06487e-10
3.9296e-08
-8.0095e-07
-1.21365e-08
4.40275e-10
1.60051e-06
-2.40312e-07
3.3693e-10
2.85819e-11
-1.10687e-07
6.08656e-11
1.15423e-10
-1.11526e-10
-8.70194e-07
2.9281e-06
-4.98307e-10
3.37422e-10
5.44957e-10
1.60726e-10
-4.13572e-08
1.11992e-07
1.41614e-07
-6.14339e-08
-3.87674e-08
3.98005e-11
4.59145e-10
-0.00016156
4.44092e-10
-6.40478e-10
1.78641e-05
-7.28495e-07
-5.35199e-05
-8.17562e-07
7.02021e-06
-2.18813e-07
3.55992e-06
2.34105e-10
3.13615e-10
-1.47471e-07
-8.05094e-10
-1.1061e-08
1.29093e-10
-8.45041e-07
-4.08107e-07
5.16147e-11
3.13206e-07
-6.63007e-08
1.48627e-11
-8.30294e-07
-7.31766e-07
3.86948e-07
-6.40551e-06
-6.46976e-09
-1.63988e-09
-7.14894e-08
5.47265e-10
-8.36178e-07
-0.00666576
-2.38253e-07
2.21137e-08
-5.42778e-07
-8.36886e-07
1.2855e-10
6.30197e-07
1.33387e-10
2.89377e-10
8.24424e-08
3.86082e-09
-5.28673e-07
-1.28076e-07
1.41669e-07
3.66007e-07
-1.4509e-09
1.08191e-08
3.27861e-06
7.59193e-09
-1.40021e-07
-2.69007e-07
-3.16471e-07
7.14597e-11
-4.00441e-05
-7.75281e-07
-0.00777144
4.13103e-05
-8.48004e-07
3.96057e-07
-1.0019e-07
4.93131e-10
-2.11274e-12
3.10683e-06
-0.000335508
7.28102e-06
-1.79843e-07
0.000316341
-3.24455e-07
-1.84894e-10
-5.11631e-10
-2.60573e-07
1.63602e-10
1.2135e-08
-2.16406e-07
-8.97047e-07
-2.85706e-07
-1.90524e-06
5.01245e-10
1.77325e-07
-1.34164e-05
-5.76803e-07
1.13736e-11
-3.86747e-07
-2.22676e-10
-6.23083e-07
3.17976e-08
2.09229e-07
-1.27355e-07
-3.04605e-07
-3.57972e-07
2.15009e-08
-8.99371e-13
-4.19921e-07
8.81877e-09
1.61933e-09
8.30467e-07
2.26102e-10
8.7845e-08
3.53309e-10
1.30294e-07
3.44793e-07
-2.88142e-07
2.90619e-07
1.64798e-09
1.5888e-06
1.22528e-10
1.54836e-11
1.0517e-10
6.06599e-10
-6.27596e-07
-3.36082e-07
9.47696e-11
1.15496e-08
1.47363e-09
2.81094e-06
2.6259e-11
3.70251e-11
-1.28394e-07
-1.10723e-07
-8.75598e-06
-2.77089e-07
9.21353e-08
2.00268e-09
1.17334e-12
-2.13069e-05
-5.18477e-07
5.71279e-08
-1.83226e-07
1.16799e-10
-3.73402e-07
4.31467e-11
1.85681e-10
-3.41653e-07
1.67759e-06
1.51067e-06
-2.85617e-07
5.52602e-06
4.41515e-11
7.4032e-11
1.04643e-09
-4.3711e-07
-4.31727e-09
-9.13947e-07
6.59733e-11
-3.25624e-08
-1.35432e-07
-1.50757e-09
8.65312e-11
-5.28819e-10
2.8848e-10
7.45973e-11
1.70126e-07
-1.09484e-07
-1.24093e-07
-7.78797e-11
6.51764e-07
-2.28352e-07
-5.68001e-08
2.34737e-11
-1.18214e-07
1.09308e-10
5.37371e-10
1.57814e-07
1.53439e-08
1.7592e-09
-5.28623e-08
-8.76956e-07
1.49871e-10
1.92375e-08
2.83356e-10
-9.13763e-07
-6.54463e-07
4.54872e-10
-2.11297e-10
-5.74744e-10
-2.87564e-07
4.34132e-10
-6.80401e-07
1.81945e-07
5.24018e-10
0.00433312
8.7252e-11
-1.42226e-07
1.02417e-10
-8.62003e-07
4.04854e-10
-5.29389e-07
-1.79168e-07
5.84836e-06
1.03122e-11
-4.84234e-07
-3.31154e-07
1.54938e-12
6.06519e-06
8.38274e-09
-9.10814e-07
2.60529e-10
-1.70737e-07
4.52069e-06
5.66948e-06
2.15904e-10
3.60518e-10
-1.40163e-06
2.21182e-05
3.75255e-07
-1.90865e-06
2.11418e-10
-6.49507e-07
-1.09001e-06
5.79677e-10
6.28824e-08
-9.1709e-07
3.9064e-06
2.93442e-10
1.72689e-10
-3.94992e-10
-1.73292e-07
-7.92817e-11
-8.87623e-08
-7.4695e-09
3.6327e-07
1.61979e-07
-1.08102e-07
-9.96753e-08
-4.32446e-07
-2.13917e-08
-3.93652e-08
1.55347e-11
-3.64567e-08
6.72295e-10
-2.68254e-09
3.85975e-11
-3.60548e-06
4.3787e-11
-7.60916e-07
-7.82298e-07
-8.63735e-07
2.88143e-11
0.00676846
-3.61174e-07
1.64072e-11
-6.39373e-08
-1.05249e-07
3.97809e-10
3.42702e-08
5.05131e-10
-1.27448e-08
2.85654e-10
2.30739e-06
-2.51105e-08
3.13604e-06
3.70754e-07
-5.23484e-09
6.00827e-12
1.68222e-11
5.67708e-06
-2.76445e-10
8.46306e-08
6.95015e-07
1.54473e-10
9.61221e-07
8.31628e-07
5.85604e-10
-9.21831e-06
6.27495e-08
1.85857e-11
5.20781e-10
-6.74112e-07
9.46828e-06
1.31517e-10
2.84072e-11
-1.26396e-08
9.37277e-07
-2.43775e-08
-3.38721e-07
5.71008e-10
1.28402e-10
2.87969e-11
-3.82758e-08
6.12543e-06
-4.19229e-06
1.29663e-06
7.15886e-10
7.98739e-07
1.86195e-07
1.80374e-09
-4.40029e-08
-7.79301e-07
3.24919e-10
2.40392e-10
5.56226e-08
1.43777e-05
-0.000260673
1.03348e-06
3.19551e-07
-2.76122e-07
-3.47867e-09
6.07451e-06
-5.52991e-08
-1.15492e-08
-1.42761e-06
-1.04854e-06
1.05038e-10
-6.22641e-07
-2.47909e-07
8.54299e-09
-3.55967e-07
3.17921e-06
3.06399e-11
8.73159e-08
2.62388e-06
-7.85498e-09
-1.33869e-06
6.19018e-10
-1.0227e-07
-6.26397e-07
-2.79452e-07
-2.91193e-07
-1.00878e-06
-1.21153e-07
9.80542e-07
-4.55342e-07
-3.04874e-07
7.00464e-11
1.32058e-10
4.60835e-06
-9.26324e-07
1.10668e-10
-2.57009e-08
1.03519e-09
-2.64658e-07
-6.09592e-05
-2.5663e-09
2.48763e-08
1.33612e-05
-3.10696e-07
1.74833e-06
-7.33927e-08
1.34665e-10
-5.1473e-07
-6.96809e-07
-5.09846e-11
-9.55073e-07
-1.62936e-07
2.3882e-08
-4.66665e-07
-3.03354e-05
-4.52705e-07
2.59074e-07
9.70912e-10
5.58234e-10
1.12056e-10
-4.36315e-10
-2.10561e-07
3.95107e-06
2.77404e-10
-1.9749e-07
7.28837e-06
2.35528e-10
2.10317e-12
2.52744e-10
-2.82431e-07
4.30944e-07
-9.25678e-07
6.75787e-08
-1.75195e-06
-9.88119e-07
3.87585e-10
-7.71362e-07
-1.89868e-10
1.77746e-10
3.3743e-09
8.21589e-06
1.08981e-10
-4.61064e-07
6.68927e-11
1.19849e-09
9.71366e-11
-1.64245e-06
0.000193955
2.56462e-10
6.93384e-10
-8.84997e-09
-3.66529e-09
-7.24382e-08
-1.35457e-06
2.70279e-10
-1.26763e-07
4.5914e-10
-3.52386e-07
1.10824e-10
1.02372e-10
-2.9576e-07
5.84395e-09
1.82427e-08
3.71805e-06
1.57708e-11
2.11343e-09
-3.49339e-07
-7.18557e-07
-2.24576e-06
2.67799e-10
3.80029e-11
2.3146e-10
0.000640068
4.51505e-06
1.28588e-13
-8.79643e-07
4.55086e-06
-3.62679e-07
-8.44972e-07
4.25123e-10
7.29426e-06
7.81955e-07
-8.3477e-07
-3.50471e-07
3.78745e-10
1.96333e-06
3.46252e-07
-0.000139077
-1.34471e-07
-9.27105e-07
-4.05241e-06
-8.86734e-07
-4.91517e-07
-2.55818e-07
-5.6376e-09
3.13462e-10
5.02905e-10
-6.11958e-08
3.16577e-12
9.69263e-07
1.03263e-07
-7.21032e-06
3.48296e-08
-6.87002e-08
0.000193566
1.50098e-06
-3.285e-07
2.20268e-07
-5.15479e-07
-3.28744e-07
-1.27159e-11
3.70485e-10
7.21516e-11
2.30383e-08
1.75077e-06
2.12804e-10
3.54959e-10
-3.72001e-08
-4.43309e-08
1.73271e-05
-2.93587e-07
3.77267e-07
-1.02198e-07
1.02627e-10
-7.22174e-11
6.47433e-10
5.71483e-09
-6.81485e-07
-2.92173e-08
4.68375e-06
1.0047e-10
-5.75528e-10
-9.51899e-07
1.36629e-10
1.62408e-08
-7.39749e-07
-1.36024e-06
-3.50498e-07
-9.01892e-12
5.36184e-10
3.82997e-09
-1.82628e-07
-9.78283e-05
-1.49517e-08
6.67098e-11
1.24495e-11
7.45186e-10
3.64724e-06
1.10938e-08
1.32073e-08
-9.10673e-07
-3.99861e-10
1.50964e-06
5.64344e-10
-1.21247e-10
2.54666e-06
1.33161e-10
4.91999e-10
-7.42519e-07
9.48043e-11
4.92061e-06
4.48777e-06
7.07387e-08
-1.73933e-06
2.74376e-07
1.04732e-06
5.15033e-11
2.42284e-06
5.1947e-07
4.86955e-10
5.85579e-10
-2.94065e-08
-1.88025e-08
2.69417e-06
4.08394e-10
4.84527e-14
0.000216583
9.34799e-12
2.70554e-10
-9.11399e-07
1.11062e-08
-8.91306e-08
-8.4074e-07
6.23886e-10
1.32488e-11
3.36881e-10
-4.02559e-09
2.95901e-13
-9.99196e-07
-7.97877e-10
-3.23273e-08
-5.77979e-07
4.85714e-11
7.14818e-10
-5.43617e-07
3.54792e-09
6.5044e-07
-5.16929e-07
-1.47715e-09
-3.84038e-07
2.72781e-12
1.95677e-07
2.68036e-07
4.12439e-06
8.81123e-07
-7.39887e-07
-8.74983e-07
-4.27681e-07
4.18273e-05
1.1469e-10
-1.44305e-08
4.37683e-07
2.74942e-06
3.63572e-09
-1.23396e-06
3.00916e-11
2.00666e-05
1.16858e-10
1.8003e-06
1.02311e-10
2.07813e-10
-7.57287e-07
3.9844e-07
-7.83105e-11
6.02506e-10
2.04374e-10
1.75913e-06
-2.50729e-07
5.39255e-09
-3.37676e-07
-5.24222e-06
-4.67727e-07
3.37708e-12
-3.96158e-09
-3.4868e-10
3.98318e-11
-2.36297e-07
-1.28174e-10
1.56319e-11
-8.88733e-07
5.06073e-10
-2.81336e-09
-1.8106e-08
-1.81945e-10
5.04592e-11
1.20528e-07
-2.17948e-06
6.30006e-11
4.8735e-11
5.45343e-08
6.12931e-11
-1.14635e-07
2.29942e-07
-7.94362e-07
7.95334e-07
1.13066e-10
6.31475e-08
5.58691e-07
1.48833e-08
-6.89199e-10
-4.91011e-07
-2.8616e-11
3.00231e-10
-0.000948722
-8.89102e-07
-1.71757e-10
-5.53011e-07
6.75992e-07
-4.01581e-10
-2.88684e-10
3.66332e-06
-5.02765e-10
6.35586e-10
1.81767e-08
6.8346e-14
2.17746e-10
-2.01222e-07
6.3235e-05
-9.07409e-08
-8.87164e-07
3.29941e-06
1.65671e-10
-8.50155e-07
-2.77496e-06
7.62251e-10
-1.27689e-07
-6.0625e-07
1.1576e-07
3.88758e-08
3.78976e-09
-8.75032e-07
-4.47523e-07
2.17692e-06
8.39125e-08
4.52861e-10
-7.13827e-07
-7.69556e-07
-4.11184e-05
3.64716e-10
-1.71843e-07
-7.94549e-07
-1.56334e-08
1.86081e-10
2.10362e-07
-2.18871e-07
-1.15071e-07
-1.62098e-10
-2.70409e-05
-8.53422e-07
4.87026e-07
-3.65558e-07
1.87752e-10
6.96278e-10
2.46583e-06
-2.00847e-07
-1.20742e-07
4.36132e-10
-8.34002e-07
2.49709e-11
8.67497e-07
4.67824e-10
5.14213e-10
-1.39066e-06
9.0723e-11
-9.86914e-07
6.30401e-10
-1.82481e-07
2.59581e-09
4.28262e-09
-1.00151e-07
1.07717e-09
1.06964e-10
-8.08069e-08
-3.696e-07
3.67273e-10
3.69724e-11
3.81501e-10
-3.42508e-07
-1.44339e-09
-7.65842e-08
7.02731e-07
1.3711e-10
5.82264e-10
-8.95931e-07
-1.41379e-06
-9.11846e-07
5.17439e-10
-1.66057e-09
9.60575e-09
-1.1522e-11
9.13758e-11
3.85165e-10
5.03656e-06
1.12277e-06
3.61082e-08
4.57224e-11
-2.86077e-07
3.71766e-06
3.71847e-10
1.31903e-10
-6.6812e-09
3.71321e-11
6.49474e-06
2.39809e-07
-6.03271e-11
1.89946e-10
-3.17456e-10
1.34122e-10
-1.51845e-10
6.54922e-11
9.8852e-07
-1.17953e-08
9.62202e-09
-1.76017e-07
1.54846e-10
4.44049e-10
1.95592e-10
-8.78985e-07
-1.38214e-06
-9.76315e-07
3.96445e-10
6.3782e-10
-9.56249e-08
-7.41063e-11
1.19488e-07
7.44486e-11
-1.08838e-07
-8.92625e-05
-6.16378e-07
-6.94531e-10
2.56865e-10
5.74645e-06
6.50881e-07
4.9523e-10
3.46727e-08
1.14312e-10
-2.07079e-07
5.80673e-10
5.50023e-10
3.01753e-10
6.62211e-11
-5.79057e-07
7.92488e-10
4.45544e-11
-2.33074e-05
-1.6333e-07
2.27027e-06
-3.06118e-07
2.56865e-08
5.56358e-11
1.80119e-07
1.66317e-07
0.000314458
5.86262e-10
-9.00607e-09
-1.25633e-08
-1.9603e-08
-1.55359e-07
3.24195e-06
1.29442e-11
1.56949e-08
3.10894e-09
3.38775e-10
1.73532e-08
3.42499e-10
1.50299e-10
-1.42624e-06
1.11416e-06
2.43298e-10
4.10538e-08
5.57299e-07
2.14257e-11
2.02874e-10
-1.02179e-08
1.53324e-06
5.23036e-07
5.78632e-11
-9.72015e-09
3.89106e-10
1.74574e-06
-8.38794e-07
-3.6852e-07
-4.54818e-07
1.86272e-10
-7.85083e-07
2.83643e-10
-2.45809e-07
-2.02037e-10
1.52346e-06
-6.161e-06
-1.99502e-09
5.20918e-12
6.227e-10
-1.19516e-06
-6.74589e-06
2.20095e-11
2.35443e-10
-9.18778e-07
9.53426e-11
3.70503e-06
-3.2679e-06
5.49064e-11
8.69009e-11
-6.5243e-07
1.72821e-10
-1.30313e-06
-0.021965
3.8453e-10
2.48171e-10
2.96094e-08
6.99864e-11
5.43269e-09
2.92088e-08
-8.51495e-08
7.85141e-11
5.22612e-11
-5.60881e-07
5.02842e-10
-1.82511e-10
-7.52689e-07
-4.43535e-07
1.16672e-10
-1.0942e-05
9.82472e-11
5.56163e-10
-4.74021e-10
-3.21018e-07
-8.7118e-07
4.53124e-10
4.22531e-09
-1.25743e-06
2.61075e-10
1.60184e-08
3.31363e-10
-5.14208e-08
-2.30932e-10
-2.83173e-08
-2.54626e-10
-1.00787e-05
-8.63157e-07
3.80022e-10
3.06464e-11
-4.48195e-07
7.99997e-10
4.9432e-07
1.22847e-06
5.03845e-10
1.2041e-10
-1.24819e-06
6.97903e-06
6.15276e-11
9.24949e-09
-1.31103e-10
4.98149e-05
-4.34812e-07
3.50294e-13
1.02769e-06
5.26401e-11
-1.96524e-07
3.06405e-07
4.11061e-06
-1.69098e-10
-1.98693e-07
5.41868e-11
-1.39255e-06
-7.99963e-11
4.26663e-10
1.6404e-08
1.44681e-07
-2.38706e-07
6.45176e-07
-9.92974e-08
-5.85451e-06
-3.94948e-07
2.96658e-06
6.39892e-10
1.37153e-06
0.000156796
-3.12883e-09
4.22736e-06
3.85169e-07
5.55399e-11
-1.23674e-06
3.20531e-08
-2.46702e-08
-2.40596e-07
3.18097e-06
1.62561e-10
-8.88251e-06
-2.24304e-10
-7.67712e-07
7.32049e-12
4.58754e-07
4.4254e-11
-1.70001e-07
-8.94124e-07
2.21914e-07
-1.22822e-07
2.57552e-08
-1.87013e-07
6.91054e-11
2.08491e-07
-2.05415e-07
1.63949e-06
1.93453e-11
1.47749e-07
3.62153e-10
-1.54838e-08
-5.09626e-07
-1.04003e-06
-1.32262e-06
1.25653e-13
-9.18992e-07
-1.21556e-07
2.69385e-08
5.42862e-06
8.62505e-07
9.73045e-06
1.78501e-11
4.14845e-07
3.51552e-07
5.79328e-09
-1.40668e-07
1.13446e-11
3.38637e-10
-3.8295e-10
1.13597e-11
6.37937e-10
6.86089e-06
1.90912e-07
4.83431e-06
-1.33242e-07
8.10133e-11
1.25313e-10
-8.75355e-07
7.68783e-07
2.98415e-10
-2.43596e-08
-2.05347e-07
-2.05036e-05
1.29888e-06
-9.10453e-09
-2.93059e-08
4.4515e-06
8.20975e-11
-1.42694e-10
4.24144e-06
3.43812e-10
-2.64057e-07
2.71896e-11
4.50261e-12
-1.15633e-07
3.83732e-08
2.131e-06
-1.62534e-07
-4.05294e-09
5.19245e-11
2.26872e-10
-8.49886e-09
-6.49209e-07
1.00259e-06
-4.74738e-07
6.63112e-11
-3.54553e-10
2.27359e-10
-1.14432e-09
4.76726e-10
-3.71696e-10
3.79255e-11
-5.97451e-10
1.57513e-09
2.43397e-10
-8.25523e-11
-1.49473e-07
-7.38332e-07
-1.82866e-10
-8.84983e-07
6.61674e-10
1.43062e-10
-4.3889e-07
-2.48037e-06
4.85359e-10
-6.99707e-07
-3.58518e-07
1.51245e-06
5.22699e-11
2.76276e-06
-2.33174e-06
-5.41874e-07
9.84902e-08
-7.05846e-07
-9.15979e-07
-0.000151513
-8.17522e-11
5.0813e-10
4.82794e-07
-1.57438e-06
2.88078e-10
7.06464e-11
-6.6329e-07
2.99172e-08
-8.35804e-07
5.28752e-14
1.38529e-11
7.83025e-08
-1.92153e-08
-1.38391e-06
1.4585e-09
7.31712e-12
1.00475e-07
2.51865e-07
3.60383e-10
-5.87143e-05
-0.000320525
-1.05017e-06
8.43314e-07
-1.89874e-11
5.50771e-10
3.56249e-08
3.99706e-05
1.51523e-07
-4.85401e-07
1.37507e-09
1.06776e-07
9.67598e-08
-1.192e-07
1.39879e-10
2.54167e-11
5.47478e-07
1.22693e-08
1.08898e-13
-3.76042e-07
-2.09764e-09
1.55291e-10
6.87042e-11
-8.62107e-07
-2.05968e-07
-1.15041e-06
-4.86959e-12
6.68323e-11
-8.1599e-08
3.26641e-07
-7.71023e-08
7.35493e-07
3.12227e-09
8.86353e-10
1.34616e-10
-8.98228e-07
1.55106e-06
1.19249e-06
-4.50162e-07
1.74511e-08
-9.91022e-06
7.04526e-10
-1.41662e-06
3.47889e-08
-1.02458e-06
-4.30918e-07
-1.25594e-10
6.39508e-09
-8.60473e-08
-3.49688e-07
1.46595e-09
3.85379e-13
-2.13538e-07
3.91566e-10
1.08453e-06
-8.35657e-07
-3.57856e-07
8.54868e-11
3.33471e-06
1.72262e-06
5.15888e-10
1.51931e-07
-1.1629e-07
3.45764e-10
-3.77798e-07
-4.11901e-07
-9.98746e-06
4.40365e-06
-8.5575e-07
6.8059e-10
-4.1801e-07
-2.07383e-08
4.50998e-05
-4.10104e-08
-6.87558e-07
5.87314e-07
-2.6161e-06
6.52336e-10
5.24661e-10
1.01918e-10
4.9103e-14
-2.35838e-12
-1.40154e-06
-1.81488e-07
4.71773e-11
3.80152e-10
8.60217e-07
2.77758e-10
-1.17059e-07
-9.6158e-07
-1.34856e-07
-2.57048e-07
1.30578e-10
6.47308e-06
-1.28329e-10
-3.55443e-07
1.05997e-10
-9.38355e-07
-2.79375e-07
8.54412e-07
-1.579e-07
9.21637e-11
3.35187e-06
-1.10658e-06
-2.56738e-07
-8.30136e-07
-0.00155777
-8.70271e-07
-9.41413e-07
-3.66633e-07
1.54011e-10
-3.31987e-07
3.43991e-09
5.46428e-13
-6.24796e-09
3.78731e-06
-8.63723e-07
1.20468e-10
-5.57556e-10
4.89512e-11
2.46044e-07
-1.93043e-07
7.83882e-10
9.79857e-11
-1.69436e-06
-1.58411e-10
1.86587e-10
2.21188e-10
5.08202e-09
-9.00683e-05
-1.23988e-06
1.22299e-10
-9.97189e-10
1.18489e-10
-7.21628e-10
-1.79067e-07
8.77453e-11
3.88755e-07
-4.0672e-07
8.93985e-10
1.69192e-09
8.54234e-10
-3.00927e-11
-2.14753e-10
-1.62784e-07
-2.81276e-07
1.23888e-09
1.44775e-10
-1.76791e-10
-3.07802e-07
3.8322e-06
-1.17147e-07
2.99569e-10
2.27439e-10
9.95843e-08
-3.05451e-09
1.22142e-07
1.33533e-13
2.29809e-10
-1.02721e-09
-1.09417e-06
5.48973e-10
-7.06203e-07
3.88872e-08
2.47237e-10
3.16801e-10
3.1097e-11
9.69192e-08
2.29142e-10
1.8169e-10
1.95439e-06
1.53419e-10
-9.36311e-07
1.40207e-11
1.00068e-10
6.18463e-10
1.25297e-13
9.92008e-07
-3.67264e-05
-3.30777e-07
5.02136e-06
-3.57895e-07
4.37392e-08
1.01275e-07
1.47732e-11
-1.12388e-07
9.38887e-06
1.21944e-11
-3.73976e-07
9.84965e-05
-3.26333e-07
6.57457e-06
-5.42891e-07
-5.16971e-07
1.18625e-12
-3.73723e-07
9.79322e-07
-1.5358e-06
-2.85225e-09
-1.03926e-06
-9.21551e-08
3.37274e-10
-9.25046e-08
-3.53846e-08
-7.15193e-07
-5.27453e-07
-1.18771e-07
-1.14417e-06
3.54106e-08
-3.17915e-06
-2.9568e-07
-6.76866e-08
1.26487e-07
-1.60863e-11
-1.33215e-07
9.06716e-15
-8.71688e-07
-0.00783992
-2.5275e-07
3.2855e-06
-5.46677e-09
1.00731e-06
1.18914e-10
4.15337e-06
-8.78355e-08
5.12251e-10
-3.97246e-07
5.64881e-11
8.88611e-08
4.30277e-10
-2.92463e-07
-0.000150373
1.03086e-11
2.36591e-10
-1.96754e-07
2.85496e-10
5.54067e-06
7.5119e-10
6.06576e-08
1.18176e-10
-1.60438e-07
1.5127e-11
1.06576e-10
1.15772e-07
-1.00649e-06
-1.2454e-07
5.57829e-08
-3.6473e-07
1.71796e-10
-3.94775e-07
5.69299e-10
5.17537e-10
1.90548e-07
-8.9904e-07
-2.88117e-07
-4.76912e-08
1.23273e-11
-1.16894e-06
-7.24706e-09
1.49734e-11
1.4882e-11
3.89693e-06
-8.3924e-07
-1.09666e-05
-2.04966e-07
-3.06693e-07
-3.60915e-07
1.82894e-11
-2.56706e-07
1.34151e-06
9.50151e-11
-1.0885e-06
5.95804e-07
-4.27906e-07
-0.000741807
-3.46748e-07
2.97167e-10
1.82814e-10
1.60513e-10
1.03061e-10
-2.56346e-07
2.21737e-14
9.28608e-07
2.38424e-11
-5.68766e-07
3.74235e-08
-4.67528e-08
-1.3824e-06
-6.77037e-10
-9.03314e-07
7.46112e-13
-5.4904e-06
-3.58379e-07
-5.50281e-07
1.56803e-10
-1.15449e-10
-0.000215591
7.17322e-06
-5.85449e-07
5.24785e-08
4.39569e-10
-1.16859e-09
9.15195e-05
-0.000492256
1.85837e-09
1.50245e-08
-1.91405e-07
4.82513e-12
-1.5087e-07
7.94725e-09
-5.01017e-07
-6.35695e-08
-1.17702e-06
-6.06233e-07
8.61807e-10
-5.33197e-08
-1.32731e-06
9.13754e-11
-1.75672e-06
-3.57308e-09
-8.77754e-07
3.55583e-10
1.16958e-07
1.69523e-09
1.58809e-07
3.51645e-10
6.47101e-06
5.24361e-10
-3.45789e-06
-1.54504e-10
-4.44908e-07
4.86043e-10
-4.86913e-08
-8.49046e-08
-2.95289e-07
-5.49924e-06
0.00163975
-3.65106e-09
-9.76969e-07
-7.86228e-11
2.328e-10
1.2832e-10
-8.1898e-09
-1.48109e-11
-7.33356e-07
8.38667e-09
1.51465e-09
-6.0441e-07
9.54174e-11
8.55268e-11
7.70531e-13
-0.00318733
2.27116e-10
-1.04504e-06
-1.37264e-09
8.15885e-07
-9.15654e-07
-1.86919e-08
5.40689e-12
-1.43327e-06
6.0922e-10
3.9998e-10
2.115e-10
4.16059e-06
-2.48089e-10
-8.76972e-07
8.72583e-12
-2.5478e-07
-9.70382e-07
6.02648e-11
1.08039e-05
3.29337e-06
-9.52117e-07
9.79065e-11
-8.40926e-07
-1.43797e-08
7.88417e-05
1.52451e-10
4.21418e-11
1.09602e-06
-1.10971e-06
9.79879e-11
7.40175e-07
2.86505e-06
1.2734e-10
3.20923e-07
2.22725e-10
-3.22547e-08
5.20254e-10
4.55991e-11
-1.4138e-11
2.25069e-10
-1.26582e-07
3.96907e-10
-1.24961e-09
-9.97126e-07
-1.722e-07
1.20613e-06
-7.98107e-07
-4.00652e-09
3.17844e-12
1.12254e-06
-9.21847e-06
1.17717e-10
-3.07973e-08
-4.24815e-10
-1.10549e-06
-7.65767e-08
5.76052e-06
4.46609e-10
5.5698e-06
6.77406e-12
-2.45665e-08
9.67409e-07
-1.17494e-06
-3.79169e-07
-5.34913e-07
-3.94823e-08
-1.78012e-08
2.11966e-10
3.41605e-08
9.54852e-07
-1.72371e-07
-4.49037e-07
-2.11576e-07
1.67048e-11
-2.12119e-07
6.13259e-12
5.99168e-10
2.79159e-10
-1.70981e-07
2.84552e-10
-1.08258e-06
-1.34623e-07
-5.3611e-08
-2.97777e-07
-2.48228e-08
-7.97691e-07
-9.61689e-09
5.62024e-10
5.04e-13
2.74556e-10
5.51097e-10
5.03301e-10
-2.03712e-07
-1.04421e-08
2.22928e-10
-1.88725e-12
-3.96823e-07
-9.91223e-09
-8.91778e-07
-1.17377e-06
-1.45204e-07
0.00802664
2.59198e-07
4.81304e-07
-1.00747e-07
6.7911e-10
1.99776e-10
-1.47471e-07
-7.65205e-09
3.44266e-10
-6.4035e-05
1.70732e-09
-5.02468e-07
-1.10985e-09
-1.15052e-07
1.65732e-06
2.36442e-10
-1.56831e-08
3.89032e-10
4.90729e-10
6.76978e-06
-7.22661e-08
-7.12583e-07
-6.83332e-10
5.83608e-11
-1.3643e-06
3.70332e-10
-7.74875e-07
-1.03473e-06
6.44654e-10
3.75138e-06
2.40411e-10
-8.25212e-09
-7.07088e-12
2.99874e-10
1.14358e-10
-9.56169e-07
0.00039884
1.1607e-11
8.46285e-09
-1.30112e-05
1.6214e-10
6.85483e-11
1.28504e-09
-4.66652e-07
-3.82782e-07
3.52218e-06
-7.75085e-11
2.0346e-10
3.07915e-07
3.4236e-06
-1.10617e-06
5.79875e-07
1.68931e-10
-3.74662e-10
6.54678e-08
6.26387e-10
-9.84906e-07
1.89018e-06
8.66322e-13
-2.89786e-07
-5.64795e-11
-2.50192e-07
1.25297e-08
-3.88686e-10
-6.06312e-07
6.94125e-10
3.07225e-07
-4.32089e-08
6.14337e-07
3.24107e-07
-1.06951e-08
8.40305e-11
2.20968e-10
-1.44902e-06
1.27358e-05
-6.2136e-10
4.83683e-07
-3.68759e-11
6.77139e-10
4.2566e-10
-9.6691e-07
1.56628e-10
2.16503e-08
1.22545e-07
-9.25346e-07
1.68813e-06
-3.46333e-07
3.9516e-10
-5.99663e-08
-6.62327e-08
1.11988e-10
7.42035e-11
-3.3703e-08
1.4574e-10
2.56307e-07
5.22549e-09
6.90752e-12
-8.57459e-08
-6.75359e-05
4.83508e-11
-7.89742e-07
1.15837e-10
1.35896e-10
-2.58996e-09
-4.7231e-08
-2.06282e-06
2.08347e-06
6.23796e-10
5.07233e-10
7.93631e-09
7.37084e-14
-9.77474e-07
1.98237e-10
-3.38009e-07
-2.99187e-07
-0.00248159
2.83528e-09
-3.06926e-07
2.21238e-10
-2.18129e-07
3.27444e-08
-2.19263e-07
2.70846e-06
-2.42105e-08
-6.40457e-11
-6.1228e-07
-7.50732e-07
-1.17426e-06
-1.03079e-06
-3.66507e-07
3.05699e-06
-6.43515e-07
2.13563e-07
-7.97916e-07
5.32129e-10
-6.73189e-07
-9.88621e-07
7.86584e-07
3.58691e-10
1.16125e-06
3.45985e-06
4.23886e-10
3.05293e-10
-1.11071e-06
-2.75695e-10
2.1436e-06
6.29486e-08
5.95247e-08
6.27074e-06
1.55952e-07
3.02275e-11
-4.26764e-07
6.68269e-06
4.91661e-11
1.28768e-05
3.90314e-06
-0.0021977
3.93231e-11
-2.13007e-06
2.40453e-11
-1.31168e-06
2.11655e-10
-4.79292e-07
2.12628e-10
6.53755e-11
1.4054e-11
-5.43241e-07
5.04269e-06
7.51729e-07
-2.93793e-07
7.28224e-08
-1.00877e-09
-2.68682e-08
-2.69697e-07
-3.01845e-07
-3.46154e-07
-2.79848e-07
3.58545e-10
4.98717e-11
4.33492e-06
-8.64539e-11
-3.46933e-07
-3.63317e-07
-4.1765e-07
-7.78579e-07
1.533e-06
-3.79771e-09
5.14404e-06
3.59273e-10
5.46417e-08
-1.24591e-06
-1.53976e-08
6.72854e-10
-2.13284e-08
4.44666e-10
3.01657e-11
2.95349e-10
2.83176e-09
1.14478e-10
-1.69564e-10
1.87759e-06
2.80448e-10
1.65564e-10
2.11801e-09
7.71213e-12
1.60595e-08
-3.70379e-11
-3.5723e-07
-8.87625e-07
-2.0065e-07
4.66036e-11
7.25545e-06
-6.3121e-06
1.70165e-10
-2.72707e-07
-9.32214e-08
4.0459e-10
1.00269e-11
1.99143e-08
-1.0181e-06
-1.25805e-07
3.82015e-07
2.37711e-10
7.8832e-06
6.34208e-08
-9.48539e-07
4.48752e-10
1.40239e-07
-4.50037e-07
0.00979313
-2.88278e-07
2.1496e-10
3.10552e-06
-2.07423e-07
7.31146e-09
2.53288e-07
3.32521e-10
1.29144e-08
-6.54077e-06
-2.94878e-07
0.000453031
1.71157e-10
0.0650094
-8.27205e-10
-1.53388e-07
6.50797e-08
7.81927e-11
1.21505e-10
1.59143e-09
1.33885e-10
-1.30071e-06
2.09036e-11
-3.39073e-07
5.81925e-06
-4.70532e-10
-4.01886e-08
7.33231e-14
-2.11007e-07
5.48608e-08
2.68824e-06
2.58412e-05
6.35848e-11
1.47257e-10
-1.7286e-08
-8.50474e-07
3.02285e-06
-3.80859e-07
-1.85744e-07
-2.9272e-10
4.91368e-06
-6.90612e-09
2.11669e-10
8.46855e-11
4.8507e-10
6.99964e-13
-9.67429e-07
-3.30023e-08
1.03478e-10
-7.64336e-10
9.74357e-07
7.14076e-11
-6.49491e-07
3.81193e-07
-4.25179e-08
2.35596e-07
1.1997e-10
2.54499e-07
2.292e-10
-2.60811e-08
3.06163e-10
2.65702e-08
3.44283e-10
7.56402e-08
7.1744e-11
-1.3276e-06
-7.0712e-07
4.70278e-10
2.33115e-13
-3.08961e-07
1.42339e-05
1.86653e-06
-4.00614e-07
-1.41576e-07
1.83688e-10
6.00612e-11
1.3837e-07
9.1955e-08
-1.61662e-06
3.09158e-07
5.03186e-10
4.67895e-08
1.17101e-06
1.50108e-13
4.15085e-08
1.70138e-10
-3.89264e-08
9.395e-10
4.09449e-11
4.65853e-10
-5.8501e-10
2.41532e-08
4.55088e-09
0.0012775
-7.44148e-07
4.75083e-06
-9.10802e-07
5.3951e-10
5.39343e-10
1.082e-10
-0.000107148
2.20154e-10
7.31017e-08
2.34499e-11
7.39334e-10
2.35848e-08
3.14548e-06
-5.89508e-07
-7.15155e-07
-3.92076e-07
1.92047e-10
-2.18344e-08
4.2452e-06
-9.72756e-07
-9.17173e-09
-4.96361e-10
4.51522e-08
-1.9022e-07
3.71088e-10
-1.00738e-07
1.87262e-10
8.70379e-08
4.94159e-10
6.71148e-08
2.0955e-10
-2.17415e-12
-1.04395e-06
-5.57623e-07
1.10351e-07
3.51772e-10
-4.98944e-13
2.19887e-08
-9.61956e-07
-5.92064e-08
-1.41945e-06
5.04459e-10
4.46731e-09
-1.02026e-05
-1.03925e-09
3.98137e-10
2.02697e-06
-1.46341e-06
-7.20951e-07
-5.89688e-07
-1.00058e-07
3.5174e-06
-1.02432e-07
3.32016e-08
-7.8286e-07
2.44189e-06
7.55374e-10
1.7527e-06
2.01066e-11
2.31578e-10
-3.29351e-07
-1.4317e-08
-2.56619e-07
2.00624e-09
-1.99385e-07
-9.51806e-07
-9.21014e-07
-2.74431e-08
1.49014e-08
2.60578e-10
7.62789e-07
-1.00314e-06
1.91611e-08
1.51063e-06
3.48093e-10
-3.57627e-10
-2.48008e-07
1.65618e-07
-1.09777e-06
1.18629e-06
-7.94493e-07
-9.194e-07
-3.15095e-07
9.25477e-10
-3.29083e-07
2.72139e-10
-2.90529e-10
-6.35819e-09
4.51616e-10
1.33382e-09
1.49063e-08
9.12412e-10
1.27683e-07
5.36107e-08
-3.39446e-08
-2.97014e-07
-9.25089e-07
1.57911e-10
4.57948e-07
8.47623e-10
1.84478e-10
-1.04029e-06
-1.48307e-05
8.73409e-12
3.20669e-10
2.27009e-07
-7.35644e-07
5.94408e-10
-6.90803e-07
0.0330019
-1.01393e-06
4.99739e-10
6.13481e-06
3.57215e-10
5.27337e-10
-5.86387e-07
1.28371e-10
-1.41807e-07
6.05254e-09
1.19388e-10
1.31968e-06
-9.32445e-07
1.92192e-10
5.61598e-11
5.48201e-10
3.46372e-12
4.64413e-10
-4.22389e-07
1.84598e-10
-5.28106e-08
-5.45065e-07
2.45864e-11
-8.756e-07
3.02002e-10
3.26493e-06
-3.31512e-06
8.22538e-07
-3.50353e-07
2.07712e-06
9.88804e-09
-4.84387e-07
1.58412e-11
-2.50088e-07
4.52257e-11
1.0122e-07
-1.00802e-06
-3.61936e-07
1.31337e-06
-2.81708e-10
-0.00014262
-2.97423e-07
1.14155e-10
-2.42223e-07
-9.07448e-07
7.45721e-10
-6.56822e-07
4.84764e-10
-1.03226e-06
5.3732e-06
-8.56311e-07
6.0475e-09
-4.33139e-07
1.82247e-07
4.74547e-09
4.81795e-08
-1.81827e-10
6.25819e-08
-2.31732e-06
-1.0553e-06
-4.08408e-07
4.91648e-10
-2.46761e-07
-2.48818e-06
2.73708e-10
-2.19564e-07
1.133e-10
-5.09724e-08
-3.63841e-07
-9.19983e-07
1.08429e-10
-1.3075e-11
-2.69222e-08
-2.89639e-06
6.90096e-11
-6.67323e-10
1.7449e-06
3.07253e-11
-6.25509e-09
4.06242e-08
-1.70715e-07
-8.85055e-07
4.01123e-07
1.70847e-06
-9.5861e-07
6.46424e-08
-2.20676e-07
-1.40209e-06
1.82327e-10
4.60858e-10
-9.05694e-09
2.09537e-11
-2.86078e-07
0.000227339
-2.3838e-09
8.24029e-10
-9.56829e-07
-9.94056e-07
1.27717e-06
1.22217e-07
8.97817e-11
-1.15115e-06
-4.25939e-07
-1.28029e-10
-1.05021e-06
-1.40518e-06
-4.83657e-07
0.000329955
1.17876e-10
1.9362e-10
7.43868e-10
-2.83353e-10
4.51166e-10
2.71757e-14
7.17627e-08
-1.48719e-08
-8.70119e-07
-7.68961e-12
-2.95996e-07
7.49211e-11
-5.71514e-11
-1.08404e-06
3.94429e-07
-4.43727e-07
2.59989e-06
6.4437e-10
2.37847e-10
5.42556e-08
5.85189e-07
0.000479712
7.89122e-10
-2.34619e-05
2.31473e-08
4.36492e-06
1.89802e-10
-9.17478e-08
-1.12846e-06
7.51591e-12
-4.86108e-07
5.4691e-06
-3.31431e-07
-7.99913e-07
-4.33159e-07
2.00723e-10
-8.00423e-07
2.45279e-07
4.35948e-06
1.43846e-07
-1.0009e-06
-7.52044e-06
7.05804e-08
3.73024e-07
-9.3666e-07
4.22669e-13
-4.87684e-07
-2.04417e-07
-1.02496e-06
-4.46962e-07
-4.87034e-07
3.61238e-10
-6.24171e-07
2.24457e-10
-6.23656e-08
1.2402e-09
-6.57578e-07
6.14043e-12
7.55849e-07
-1.38578e-10
1.46212e-09
-2.33285e-05
1.67945e-10
-9.63861e-07
-4.43189e-07
2.72784e-10
7.734e-11
3.78082e-10
-5.10988e-07
1.62924e-06
6.60007e-10
6.17775e-08
5.03902e-10
3.91948e-06
-7.21806e-07
1.50779e-08
3.62092e-06
1.36122e-09
-3.68175e-07
-7.85982e-07
-5.16823e-07
1.28252e-08
6.69146e-07
3.54183e-07
3.04887e-06
6.13709e-11
-8.82502e-08
-6.42353e-08
-7.0627e-07
0.000119702
4.81463e-10
2.55555e-12
2.79006e-07
3.99475e-10
-6.92259e-07
1.05922e-10
-6.48226e-07
3.24754e-09
-4.81733e-07
-4.43812e-07
-2.71675e-07
-4.92201e-07
-0.000117838
4.76575e-10
3.74939e-10
-2.89752e-07
-4.74156e-07
3.02767e-11
-1.45772e-06
-4.44202e-07
-4.89765e-07
2.81586e-07
-1.03736e-07
1.77964e-10
1.53607e-07
4.91068e-06
-3.68287e-07
-1.04097e-07
-5.89932e-07
3.0273e-07
-9.34856e-07
-9.74205e-07
-6.16744e-07
8.85698e-10
6.44779e-10
4.13955e-11
1.50127e-06
-1.03258e-06
3.31373e-11
2.41872e-10
-4.94311e-07
-1.02417e-06
-1.33086e-07
2.12354e-06
3.1479e-08
-1.05444e-07
9.52447e-07
-8.85022e-07
-3.90859e-09
-4.68558e-07
-4.78362e-07
-7.89406e-07
3.37649e-10
-3.84364e-07
4.19108e-10
-4.50029e-07
-2.76521e-07
-5.32944e-06
-6.41225e-07
5.12435e-06
-4.49355e-07
-2.69007e-07
6.16126e-06
-5.56234e-07
-1.32847e-07
-4.14614e-10
-9.69834e-07
-7.62013e-07
-5.24248e-10
2.65201e-08
2.85593e-10
-1.23166e-10
2.95992e-09
-4.67949e-07
-1.75751e-07
-2.96759e-09
9.96726e-09
4.3266e-12
-3.90649e-06
3.53781e-05
-4.08541e-07
-4.81143e-07
-1.33316e-08
1.24304e-10
-3.29716e-08
-9.45278e-07
-4.82238e-10
3.4147e-11
-1.0209e-06
2.88434e-06
-8.19144e-08
4.59789e-05
3.44412e-10
-5.64583e-07
5.33724e-10
-8.11311e-08
3.78494e-10
5.79235e-08
5.63597e-08
-9.13482e-07
-4.95267e-08
6.89279e-08
-8.17066e-08
3.88673e-10
1.09739e-08
-4.2861e-07
-4.81202e-07
2.77374e-06
2.1384e-10
7.66035e-12
-4.49416e-09
-4.64127e-07
-6.50405e-08
-1.43121e-10
2.11029e-07
4.21625e-12
-1.1418e-06
1.05622e-10
5.39661e-11
1.04715e-10
5.38841e-10
-1.43537e-06
-2.52358e-08
1.47314e-10
3.59094e-10
1.35629e-07
-8.13252e-09
-5.36318e-08
-1.00851e-06
-1.56204e-07
-1.96219e-07
2.26876e-11
-7.89986e-07
7.0364e-10
-1.02056e-07
5.32967e-06
1.4222e-09
1.06081e-10
1.4314e-10
1.19477e-10
-1.10399e-06
5.32896e-10
2.0281e-10
0.00223205
3.06117e-08
-3.29168e-12
3.29783e-10
1.96096e-10
4.09513e-06
1.87637e-06
-1.02469e-06
2.17757e-06
-8.02247e-07
1.73576e-08
1.04059e-06
5.74683e-07
2.31052e-10