/*--------------------------------*- C++ -*----------------------------------*\
| =========                 |                                                 |
| \\      /  F ield         | OpenFOAM: The Open Source CFD Toolbox           |
|  \\    /   O peration     | Version:  v2012                                 |
|   \\  /    A nd           | Website:  www.openfoam.com                      |
|    \\/     M anipulation  |                                                 |
\*---------------------------------------------------------------------------*/
FoamFile
{
    version     2.0;
    format      ascii;
    class       volVectorField;
    location    "200";
    object      ddt0(U);
}
// * * * * * * * * * * * * * * * * * * * * * * * * * * * * * * * * * * * * * //

dimensions      [0 1 -2 0 0 0 0];


internalField   nonuniform List<vector> 
15335
(
(3.37701e-07 -1.0723e-07 0)
(1.62659e-05 -2.24293e-06 -2.93259e-22)
(2.95155e-06 1.18897e-07 7.66934e-22)
(-5.50167e-07 -1.59404e-06 -2.89095e-23)
(4.74581e-06 -1.44299e-06 1.2105e-21)
(-3.21733e-08 -5.71363e-07 -1.06953e-22)
(6.74385e-06 -2.18185e-06 0)
(-7.2766e-06 4.69213e-05 7.14168e-22)
(1.718e-06 -2.70354e-06 -1.09942e-22)
(-4.06489e-08 -2.55687e-07 0)
(2.67783e-06 1.32633e-07 -6.59033e-22)
(2.425e-06 -1.37721e-07 -4.87497e-22)
(4.10946e-06 -1.5881e-06 -8.22574e-22)
(-1.42161e-05 -7.24018e-07 4.86475e-22)
(-1.80812e-05 -8.98404e-07 0)
(-1.1819e-05 -7.65472e-06 1.26926e-21)
(3.94942e-07 4.12031e-10 1.94944e-22)
(-8.39287e-06 -1.01556e-06 2.55403e-23)
(7.54453e-07 -1.35272e-07 -3.30264e-22)
(0.000310826 7.24289e-05 8.53114e-22)
(-6.56549e-06 -1.26708e-06 0)
(-6.88533e-06 -1.34189e-06 0)
(6.72733e-06 -2.53034e-06 2.64684e-22)
(5.88034e-07 -1.7461e-07 6.89186e-23)
(4.4557e-06 -5.57327e-06 0)
(6.77997e-07 -7.2324e-06 1.37112e-21)
(3.73028e-06 -1.55927e-07 -8.48677e-22)
(-4.03603e-08 -8.06402e-06 -1.02203e-21)
(5.7794e-07 -4.90285e-06 -6.48418e-22)
(-1.34475e-07 -1.20984e-06 -3.40733e-22)
(2.90863e-06 1.81168e-08 -3.81027e-22)
(-2.72031e-05 -1.99366e-06 1.02734e-22)
(1.5391e-09 -1.30576e-08 5.8455e-23)
(2.55445e-07 -9.2356e-07 1.03e-22)
(4.98251e-07 -7.99457e-07 2.16321e-23)
(-4.58469e-06 -1.71763e-05 2.62494e-22)
(-2.60745e-06 -1.13157e-05 -3.55927e-22)
(0.000991472 0.00117723 1.7437e-21)
(-1.0215e-05 -5.795e-07 1.98343e-22)
(-4.9152e-06 -1.40818e-05 0)
(8.87121e-06 1.47384e-06 8.49913e-23)
(-7.44335e-06 1.26844e-05 -3.45696e-22)
(7.23206e-08 -6.52083e-07 0)
(3.28957e-06 -2.91535e-07 2.10879e-22)
(-2.44391e-06 -3.72098e-07 -2.46964e-22)
(2.89258e-07 -4.9155e-08 0)
(0.000378237 0.000140461 1.24801e-22)
(-2.84742e-05 -5.55756e-07 2.4881e-22)
(-1.37273e-05 -8.16153e-07 -9.48432e-23)
(1.56951e-07 -1.72803e-06 1.92595e-22)
(5.67151e-07 -1.70354e-07 0)
(-2.17211e-05 -4.03972e-06 2.50374e-22)
(1.15363e-05 9.34598e-06 -7.15394e-22)
(8.05277e-10 2.8055e-08 1.49071e-22)
(8.80242e-07 -7.92291e-07 -1.34373e-22)
(6.4148e-06 -2.24049e-06 0)
(8.69855e-07 4.51396e-06 0)
(-2.29485e-05 -4.27859e-06 1.21755e-26)
(8.99185e-06 -1.81851e-06 2.39895e-21)
(2.71198e-06 1.69169e-07 -1.42737e-21)
(-1.15694e-05 -1.23231e-06 -1.06506e-24)
(-2.69825e-05 -7.22105e-07 2.63931e-22)
(-5.53408e-07 -1.59048e-06 4.89279e-23)
(-2.42315e-07 -1.18994e-06 1.92288e-22)
(8.94135e-07 -4.55548e-07 0)
(2.34295e-06 -1.50047e-07 -2.16399e-22)
(-2.76273e-05 -7.04595e-06 0)
(-2.6425e-05 -2.08595e-06 -2.09483e-22)
(1.0118e-06 -3.42913e-07 -1.07915e-22)
(5.63972e-07 -3.08614e-08 2.4293e-22)
(3.09648e-06 -2.72673e-06 -8.01798e-22)
(5.7344e-07 -1.65384e-06 0)
(3.33661e-06 -3.94426e-06 0)
(-1.29705e-05 -1.0134e-06 0)
(-2.64684e-05 -6.55505e-06 -5.11193e-22)
(-6.90768e-06 -2.11673e-06 6.70391e-22)
(5.94519e-06 2.87434e-06 -1.75227e-22)
(2.54171e-06 -4.65818e-06 -1.89114e-22)
(-1.69616e-05 -7.99441e-07 -1.83471e-22)
(-3.12943e-09 -4.03441e-08 7.00905e-23)
(1.46635e-07 -6.49023e-07 5.84898e-22)
(5.25747e-06 2.57476e-07 0)
(-1.4777e-07 -5.33362e-07 -1.31763e-22)
(6.09999e-06 -1.00855e-05 0)
(4.01437e-06 1.9183e-07 0)
(2.84177e-07 -3.64501e-08 1.5544e-22)
(7.42178e-07 -1.24494e-07 1.52136e-22)
(3.26491e-06 -2.12923e-07 0)
(-9.81864e-08 -1.29525e-06 -9.8039e-23)
(1.02744e-05 -2.93719e-06 -3.80832e-22)
(8.33655e-07 -9.17639e-07 -1.1918e-21)
(6.18915e-06 -2.75416e-06 -5.01782e-23)
(2.33212e-06 -3.10022e-07 -5.33359e-22)
(4.40955e-06 3.0453e-06 2.66113e-21)
(7.14092e-06 -2.77024e-06 0)
(1.95537e-06 -1.34205e-06 -4.75376e-23)
(2.67856e-07 -6.20124e-08 0)
(5.40639e-07 -2.7606e-06 -3.74044e-22)
(4.45354e-07 -2.32886e-07 0)
(-1.29835e-09 -1.89209e-08 0)
(7.78986e-08 -6.26172e-07 9.16128e-24)
(-7.05185e-06 -2.25566e-06 -7.2919e-22)
(6.63044e-06 -1.12817e-05 -6.32114e-22)
(5.78008e-06 -6.0718e-07 1.43878e-22)
(1.87005e-06 -7.44499e-07 0)
(1.69018e-06 -2.65646e-06 0)
(8.54725e-07 -7.58285e-07 -1.18011e-22)
(-2.02434e-07 -1.30827e-06 0)
(-7.60143e-07 -1.22771e-05 0)
(-1.14266e-06 -2.66335e-06 -5.72605e-23)
(-1.23132e-05 -8.95338e-07 5.2776e-22)
(5.15757e-06 -4.10297e-06 -2.98573e-22)
(5.638e-08 -2.98272e-07 0)
(2.47898e-06 -1.7991e-07 -2.56961e-24)
(-1.49513e-05 -2.02483e-05 0)
(-6.524e-08 -1.3052e-06 6.77794e-23)
(3.18297e-06 -2.66831e-06 -7.23811e-25)
(-7.52149e-05 4.9532e-05 1.62156e-21)
(1.25434e-06 -2.64609e-07 1.27554e-21)
(-9.16075e-06 -3.34272e-06 3.93075e-22)
(4.79979e-07 -7.64724e-07 -6.12937e-22)
(-2.63247e-05 -1.2463e-05 7.72409e-23)
(-1.31243e-05 -1.03649e-06 0)
(-3.0615e-05 -3.65999e-06 0)
(-3.43079e-08 -4.93627e-07 1.82459e-22)
(2.56618e-08 -5.17854e-07 9.18889e-23)
(6.50978e-07 3.50481e-06 2.41607e-22)
(-1.75323e-09 -9.19225e-08 0)
(5.70887e-06 -5.5222e-07 0)
(7.54256e-07 -8.94818e-07 0)
(-1.34471e-06 -9.36743e-07 8.82992e-22)
(-2.84005e-06 -5.10399e-07 0)
(3.50482e-07 -2.64733e-08 0)
(-1.87459e-06 -1.38757e-06 0)
(2.43095e-06 -4.5684e-06 -5.39775e-22)
(1.7491e-07 -6.70486e-08 1.36903e-22)
(-4.37013e-07 -5.49896e-07 0)
(4.20202e-06 -1.45786e-06 0)
(-6.35244e-07 -1.36539e-06 1.16941e-22)
(-2.37835e-05 2.8967e-05 -1.22109e-21)
(6.06245e-06 -2.82406e-06 -4.96588e-23)
(9.15856e-06 -2.36495e-06 1.0279e-21)
(-9.85106e-08 -2.9412e-06 -1.26262e-22)
(5.85441e-07 4.61678e-09 -1.76021e-22)
(-1.04089e-05 -2.55772e-06 -3.92688e-22)
(-0.000836171 -0.00014456 -2.02896e-21)
(-1.25238e-05 -1.11365e-06 1.74825e-22)
(2.2116e-07 -9.4091e-06 -1.33523e-21)
(-1.23195e-06 -1.03583e-05 6.73185e-22)
(-7.98774e-07 -3.57104e-07 -6.15759e-23)
(1.90405e-06 -1.57712e-06 -4.31883e-22)
(-2.68522e-05 -2.98636e-06 5.33839e-23)
(3.72781e-08 -5.23676e-07 3.52349e-23)
(1.90946e-06 -1.27927e-06 0)
(-1.39549e-05 -1.17332e-06 1.8098e-22)
(-5.71131e-10 -1.5394e-08 -3.7038e-22)
(-2.03946e-05 -4.26362e-06 -5.45125e-23)
(-1.00857e-05 -5.46109e-07 0)
(-1.68368e-06 -1.28702e-05 -1.01872e-21)
(-1.84773e-05 -1.56397e-06 4.7975e-22)
(3.45326e-09 -4.0379e-08 5.22731e-22)
(-2.71042e-07 -1.23712e-06 2.10811e-22)
(-2.92455e-05 -2.63796e-06 7.10651e-23)
(2.79324e-06 -3.35201e-06 0)
(-1.01187e-05 -6.08264e-07 0)
(-4.96903e-06 -5.2337e-07 1.40483e-22)
(-5.10979e-06 -6.76477e-07 1.82726e-22)
(5.3394e-07 -1.69737e-07 2.70887e-22)
(2.73437e-05 3.405e-05 1.72386e-21)
(0.000262283 -9.96639e-05 -1.77277e-22)
(-0.000820078 -0.000197075 2.47224e-22)
(-8.29023e-06 -9.92196e-06 2.38723e-22)
(-1.62994e-05 -3.54873e-06 2.32702e-22)
(-1.7263e-06 3.71157e-07 -3.1211e-22)
(3.93323e-06 -2.45944e-06 4.07984e-22)
(-4.22063e-10 -3.25621e-08 -1.18868e-22)
(1.76758e-09 -6.89542e-08 0)
(-3.23842e-05 1.44256e-06 -7.05079e-22)
(0.000500042 -0.000522922 1.1802e-21)
(-1.99477e-05 -1.29621e-05 6.73178e-23)
(4.40538e-06 -2.04581e-06 -5.48415e-22)
(0.000126628 -0.000133443 -1.45433e-21)
(-1.22709e-05 -1.38549e-06 0)
(2.00305e-06 -2.88328e-06 0)
(2.07421e-06 -2.85124e-06 0)
(-7.36996e-06 -7.53784e-07 -5.31867e-22)
(2.17533e-06 -2.07055e-06 2.32467e-24)
(-5.07255e-07 -1.49508e-06 3.22233e-23)
(-1.26991e-05 -1.10236e-06 0)
(-2.19647e-06 -9.65115e-07 -6.66914e-22)
(2.97111e-06 -4.94347e-09 -4.81414e-22)
(1.147e-05 5.56794e-06 1.03257e-21)
(3.11718e-06 -6.85517e-07 -2.14298e-22)
(4.15329e-06 -2.32553e-06 5.42649e-22)
(-9.48819e-08 -2.45175e-06 6.86516e-22)
(-8.64614e-06 2.20403e-05 0)
(3.958e-08 -2.75079e-07 1.48369e-24)
(-3.127e-06 -5.33954e-07 0)
(4.12192e-08 -6.36255e-07 4.14267e-23)
(3.8718e-06 -1.48922e-06 -1.47651e-21)
(4.5938e-07 -2.74198e-06 -1.66569e-22)
(-2.01482e-06 -1.85079e-06 3.35418e-23)
(-4.62031e-07 -2.82826e-06 -2.98331e-22)
(3.18683e-06 -9.89371e-08 1.39586e-21)
(3.34451e-06 1.94853e-07 0)
(2.66121e-06 -6.83748e-06 0)
(1.21418e-09 -6.0944e-08 0)
(-9.43586e-07 -2.02959e-06 -2.39169e-23)
(-3.17967e-07 -1.37549e-06 -6.15271e-24)
(-1.43965e-07 -1.74118e-06 6.13284e-23)
(-1.25209e-07 -3.71059e-06 -5.29274e-22)
(8.5802e-08 -6.16565e-07 0)
(-1.41353e-05 -1.17894e-06 -5.78609e-23)
(-1.28995e-07 -1.18881e-06 2.14946e-22)
(-1.06774e-05 -7.67052e-06 0)
(-1.35729e-06 -3.58511e-06 4.30845e-22)
(3.00592e-06 1.24863e-07 7.64711e-22)
(-2.64678e-05 -2.78769e-06 0)
(6.31773e-06 -7.72457e-07 0)
(2.73736e-06 -3.42458e-06 6.371e-23)
(-3.09266e-08 -4.90218e-07 0)
(9.54804e-08 -3.71355e-07 1.98404e-23)
(2.18651e-06 -2.25364e-06 -3.39766e-22)
(3.04982e-06 -3.52767e-07 -2.8767e-22)
(3.43248e-06 4.57368e-06 0)
(-1.39096e-05 -1.57741e-05 0)
(5.58708e-07 -3.32778e-07 8.2399e-23)
(-6.04076e-06 -3.83016e-07 -3.39036e-23)
(2.56308e-06 -3.34214e-06 6.37722e-22)
(-2.66606e-05 -2.22715e-05 0)
(2.14174e-07 -2.11043e-07 -1.00681e-22)
(3.59056e-07 -7.45904e-08 -8.98891e-23)
(-1.37199e-05 -1.02564e-06 0)
(-3.92761e-06 -7.70504e-06 6.54448e-22)
(0.000274914 7.61744e-05 1.01609e-21)
(4.43998e-07 -3.64216e-06 5.74641e-23)
(3.72559e-06 -2.01067e-06 -6.39783e-22)
(6.16897e-06 -7.05192e-07 0)
(1.00963e-09 -7.03059e-08 2.6619e-24)
(-8.29217e-06 -7.24688e-06 -2.36438e-22)
(-1.8899e-05 -2.93673e-06 6.13473e-23)
(-1.17519e-06 -2.69894e-06 0)
(-1.30055e-05 -7.74364e-07 0)
(2.5274e-06 -2.73548e-06 0)
(2.76792e-06 -6.02675e-08 -1.16095e-21)
(2.9124e-07 -2.49338e-07 0)
(6.1199e-08 -1.22417e-06 -4.96487e-24)
(2.69551e-06 9.37425e-09 0)
(-2.5272e-05 -2.44469e-06 -5.72941e-22)
(-2.46177e-05 -2.46414e-06 5.88778e-22)
(3.67822e-06 1.04587e-07 0)
(-0.000172776 -7.92456e-05 -5.4251e-24)
(3.4077e-07 -3.60148e-08 1.87009e-22)
(5.56039e-07 -1.79193e-07 -2.76632e-22)
(2.75711e-06 -3.29908e-06 1.93936e-23)
(5.77056e-05 -0.000115095 0)
(6.07647e-06 -2.47485e-06 5.67648e-23)
(-9.57412e-07 -9.60789e-07 5.42327e-22)
(5.69909e-07 -3.96839e-08 -2.52602e-22)
(2.62868e-06 -7.81695e-06 4.74914e-22)
(-1.22773e-07 -1.50155e-07 9.12719e-22)
(-1.10171e-09 -9.96407e-09 0)
(5.66126e-07 -2.50404e-07 1.71932e-22)
(-6.34025e-09 -5.52293e-07 0)
(1.02824e-06 -3.56308e-07 3.94282e-25)
(5.92375e-07 -4.86429e-08 -2.15043e-22)
(-1.84753e-05 -1.03149e-06 1.32018e-22)
(-1.06231e-05 -5.46413e-07 5.28033e-23)
(-9.96597e-06 -5.54136e-07 -2.56804e-22)
(-7.01255e-08 -5.68664e-07 0)
(-1.9048e-05 -7.14995e-07 -5.29271e-22)
(-7.06052e-06 -5.71212e-07 0)
(-1.04306e-05 -5.04762e-07 3.01686e-23)
(2.14864e-07 -2.01173e-07 1.78773e-22)
(-1.12932e-05 -5.65323e-07 1.05176e-21)
(-7.01694e-08 -1.20678e-06 5.7241e-23)
(9.164e-08 -8.50236e-07 2.11986e-23)
(3.33151e-06 -4.13403e-06 3.05937e-22)
(-2.29866e-07 -1.19127e-06 -1.84214e-22)
(2.63726e-06 -3.29171e-06 -6.45762e-22)
(-9.42435e-06 -4.09679e-07 -2.28406e-22)
(-5.62561e-06 -1.74308e-06 0)
(7.16593e-07 -3.95154e-07 1.7993e-22)
(5.81817e-06 -1.91381e-06 -1.9814e-22)
(2.85143e-06 -9.73799e-07 5.0259e-22)
(-1.62952e-06 -4.85829e-07 9.41878e-22)
(-1.95159e-05 -4.23319e-06 0)
(2.46531e-06 -1.27541e-06 0)
(-1.10652e-07 -9.53432e-07 0)
(6.34923e-07 -1.14623e-06 0)
(-4.76062e-06 -5.14673e-07 -1.7055e-25)
(2.36885e-06 -3.57024e-07 4.40129e-22)
(-1.13972e-06 7.78709e-07 -1.28191e-22)
(5.45151e-06 -9.76897e-06 0)
(1.24465e-06 -1.98253e-06 2.86828e-22)
(-0.00257914 -0.000228008 2.96197e-23)
(5.53855e-07 -2.57445e-07 0)
(9.96836e-06 -5.19192e-06 -3.53409e-22)
(4.81593e-07 -8.19029e-07 0)
(-6.2892e-07 -1.04206e-06 -8.92128e-22)
(-3.34514e-08 -4.8887e-07 -2.86397e-24)
(-1.94699e-05 -3.2752e-06 0)
(-2.77959e-07 -4.18613e-06 -4.40226e-22)
(-2.10555e-05 -5.09003e-06 2.33154e-23)
(1.44768e-07 -4.9591e-08 9.86278e-23)
(-1.36823e-05 -9.68194e-07 6.96398e-22)
(-4.83215e-06 -6.62837e-07 -3.86725e-24)
(1.48226e-09 -7.13197e-08 0)
(-2.65016e-05 -2.71766e-06 4.95213e-22)
(-1.81196e-07 -1.17583e-06 -2.66617e-22)
(-2.35625e-07 -3.7552e-07 7.37123e-22)
(1.06269e-06 -4.10989e-07 -7.37546e-23)
(6.0626e-06 -9.91916e-06 -2.84932e-23)
(-2.41526e-05 -4.36156e-06 -3.14381e-22)
(-2.89382e-05 -2.85015e-06 -2.63343e-22)
(-3.47234e-09 -4.76934e-07 0)
(8.88099e-09 -7.48131e-07 -2.42993e-22)
(-9.06992e-06 -2.55653e-06 -2.92381e-22)
(7.30434e-05 -2.59426e-05 0)
(-2.60037e-06 -8.05815e-06 -1.06808e-21)
(-3.05537e-05 2.47704e-05 -1.09644e-21)
(8.67981e-07 -4.48952e-07 2.6335e-22)
(-1.2634e-05 -3.58575e-05 0)
(-3.48779e-06 -6.96688e-07 0)
(1.45705e-06 -2.7032e-06 -5.5446e-23)
(-1.38737e-05 -1.13776e-06 0)
(-3.4525e-07 -5.50186e-07 -6.79239e-22)
(-1.83723e-05 -2.86038e-05 0)
(2.63282e-06 -1.07568e-06 2.07817e-22)
(1.84087e-06 -1.58271e-06 0)
(-2.31424e-09 -4.17423e-08 1.56105e-22)
(-3.01949e-07 -4.67789e-06 -4.41243e-22)
(-6.98846e-08 -9.2566e-07 -4.26489e-23)
(1.80315e-05 1.59377e-05 5.66596e-23)
(-1.8047e-06 -1.60902e-06 0)
(1.38932e-06 -1.53021e-05 5.88537e-22)
(-5.17759e-07 -2.65278e-06 3.11171e-22)
(-1.13631e-05 -6.42419e-07 -9.16689e-22)
(5.2567e-06 8.23158e-08 0)
(-1.86187e-06 -4.30252e-07 0)
(6.33242e-06 -2.58203e-06 0)
(6.08051e-06 -1.28634e-06 -6.65309e-23)
(4.89058e-08 -2.33736e-07 0)
(6.23095e-06 -9.74675e-07 2.36653e-22)
(3.54199e-06 -2.77013e-07 0)
(-1.85135e-07 -1.17536e-06 0)
(2.45145e-07 -9.32167e-07 5.41986e-23)
(9.49585e-06 1.65908e-05 7.28831e-22)
(3.93727e-07 -1.61178e-07 -1.05243e-22)
(9.37743e-07 -6.79795e-07 -9.14966e-23)
(-9.6627e-06 -2.37599e-06 -4.84547e-22)
(-1.29075e-09 -2.36014e-07 -7.89536e-22)
(5.7452e-07 -1.68932e-06 0)
(0.000329083 0.00180062 0)
(3.3207e-06 3.22095e-08 2.90083e-22)
(1.0129e-07 -3.82646e-07 -5.64397e-23)
(-3.9254e-07 -1.11544e-06 0)
(2.79918e-07 -2.89042e-06 2.81931e-22)
(5.1333e-06 -7.75542e-07 2.50769e-22)
(3.3082e-06 -4.78212e-06 0)
(2.37132e-06 -1.26731e-06 2.36772e-22)
(4.87205e-06 -2.59001e-06 0)
(2.85865e-06 -9.33015e-07 -4.2342e-22)
(-2.55488e-05 -1.23469e-05 -8.82167e-22)
(-2.7456e-07 -1.26812e-06 -2.02591e-22)
(0.000167884 -0.000204533 -4.83586e-22)
(1.58657e-06 -1.30347e-05 4.95746e-22)
(4.81432e-06 -2.67785e-06 -1.68442e-22)
(1.50469e-06 -1.71237e-06 4.08577e-22)
(1.88614e-07 -5.20909e-08 0)
(-2.40846e-05 -8.55865e-06 0)
(1.49751e-07 -1.78175e-06 -2.87601e-22)
(5.7177e-07 -2.98652e-06 2.80619e-22)
(-2.65722e-05 -3.59962e-06 4.73787e-22)
(-2.60716e-09 -4.88298e-07 0)
(-7.96056e-06 -1.43407e-05 0)
(-2.32557e-05 -5.14353e-06 0)
(3.04623e-06 -4.19063e-07 -1.47355e-22)
(3.70274e-05 1.36679e-05 8.24641e-22)
(-1.40594e-05 -1.19476e-06 1.15852e-22)
(5.52326e-08 -2.40774e-07 0)
(1.21208e-06 -1.96921e-06 0)
(5.52847e-07 -3.71442e-07 -5.42245e-22)
(-3.1948e-05 -4.07781e-06 0)
(2.20088e-06 -2.16226e-06 -2.55495e-24)
(2.3017e-07 -2.06098e-07 -9.30278e-23)
(4.61709e-06 -4.8067e-06 0)
(-2.16593e-06 9.37391e-07 3.08641e-22)
(3.50849e-06 -2.25575e-06 4.09441e-22)
(-2.70501e-06 -4.02864e-07 0)
(5.33163e-09 -4.91798e-07 0)
(-7.17514e-08 -1.24281e-06 3.28109e-23)
(2.32754e-07 -1.95776e-07 0)
(5.24123e-06 -2.81832e-06 0)
(-2.54353e-05 -5.4658e-06 0)
(1.47403e-06 -4.0665e-06 -3.02744e-24)
(-1.61778e-05 5.381e-06 -6.87195e-22)
(3.47885e-06 -3.95689e-07 -4.65206e-22)
(-5.29025e-07 -1.23322e-06 1.6383e-22)
(-2.01342e-05 -1.09823e-06 -1.18149e-22)
(3.24333e-06 -4.03504e-06 -5.21946e-22)
(3.00917e-06 -3.82683e-06 7.18261e-22)
(4.79815e-07 -1.33632e-06 1.27777e-21)
(2.5836e-06 -1.02683e-06 -1.90928e-22)
(1.17039e-06 -1.30233e-06 -7.26102e-23)
(3.21955e-06 -5.2655e-06 0)
(-3.53492e-05 2.12679e-05 1.3531e-21)
(0.000155939 -0.000794807 2.44595e-21)
(-5.75055e-06 3.29445e-05 0)
(6.02576e-06 -9.11566e-06 -5.54898e-22)
(5.15952e-06 -9.19765e-06 4.52639e-22)
(-2.71003e-07 -1.20443e-06 4.68485e-23)
(-2.75845e-05 -5.81999e-06 0)
(-1.24649e-05 -9.10881e-07 1.58373e-22)
(5.20617e-06 -2.1767e-06 2.32749e-23)
(-1.03724e-05 -2.83171e-06 0)
(-3.02448e-06 -4.7603e-07 0)
(1.43125e-06 -1.60694e-06 0)
(-4.40677e-05 -1.69532e-06 0)
(-5.23389e-07 -3.19104e-06 0)
(-2.7201e-07 -1.27502e-06 2.45775e-22)
(3.3471e-06 1.47061e-07 -3.1225e-22)
(-3.21702e-05 -4.30343e-07 5.61504e-22)
(2.80691e-07 -6.07013e-08 1.02017e-22)
(8.25959e-06 -2.21895e-06 0)
(-5.95131e-05 1.24239e-05 3.55014e-22)
(6.23062e-06 -1.17566e-06 -5.35498e-22)
(-7.80668e-06 -7.91611e-07 -1.06338e-21)
(2.39962e-06 -1.47371e-06 0)
(2.79807e-06 1.29719e-07 5.29837e-23)
(-1.58469e-05 -3.50743e-06 1.26515e-22)
(-1.08438e-05 -1.19703e-05 0)
(1.5911e-06 -5.25309e-08 5.29812e-22)
(-1.54592e-05 -2.09961e-06 0)
(-1.40095e-05 -8.39658e-07 3.78938e-22)
(9.68751e-07 -6.00095e-06 1.0217e-23)
(-1.90773e-05 -2.57513e-06 -2.25769e-22)
(3.36189e-06 2.10265e-07 -3.35919e-22)
(5.75435e-07 -5.70447e-08 2.93437e-22)
(7.25611e-07 -8.57387e-07 0)
(-1.11558e-05 -6.2963e-06 -3.46399e-22)
(-6.83492e-07 -8.2679e-07 3.91884e-22)
(5.75326e-07 -7.46432e-07 -1.98735e-22)
(1.11174e-05 6.82877e-06 2.02414e-22)
(4.92099e-06 -1.24419e-06 2.92185e-22)
(3.5082e-07 -2.45535e-06 0)
(-0.000167061 0.000221908 -1.23669e-22)
(6.23205e-06 -1.1553e-06 5.01243e-22)
(6.14989e-06 -7.97404e-07 -8.29708e-22)
(-1.79822e-05 -3.19285e-05 2.90639e-23)
(3.604e-06 3.40201e-08 1.59733e-22)
(-2.03657e-05 -1.35977e-05 8.48288e-22)
(4.46242e-07 -3.44866e-06 0)
(1.99574e-07 -1.70411e-06 1.09004e-22)
(-1.71475e-05 -4.55106e-06 -6.11293e-23)
(-1.54274e-05 -4.30433e-06 6.60219e-23)
(7.25884e-08 -7.08472e-07 -5.47066e-24)
(-6.25664e-06 -1.33232e-06 0)
(-1.30486e-05 -2.76145e-07 3.53088e-22)
(6.09513e-06 -8.28618e-07 7.19588e-22)
(-1.98628e-05 -2.73404e-06 -5.4248e-23)
(1.39131e-05 -1.8914e-05 0)
(-5.53696e-06 -1.08817e-05 -8.74311e-22)
(-2.07945e-05 -1.08272e-06 2.04626e-22)
(5.07077e-06 -8.21208e-07 -5.44559e-22)
(1.47246e-06 -2.63843e-06 5.21813e-23)
(1.86128e-06 -2.07897e-06 -2.94663e-22)
(3.27607e-08 -6.35835e-07 -4.36944e-23)
(-3.32352e-06 -6.72294e-07 0)
(-2.89224e-05 -2.37669e-06 3.23502e-22)
(4.83461e-06 -1.60957e-07 1.64081e-22)
(1.23088e-05 -2.91817e-06 2.53561e-22)
(-3.11258e-05 -7.54949e-06 0)
(8.71543e-09 -4.96456e-07 1.47154e-23)
(1.10713e-09 -5.78736e-08 -1.05567e-23)
(1.05459e-06 -4.19215e-07 0)
(-2.25855e-06 -7.83797e-06 1.49198e-21)
(-2.31678e-05 -4.79384e-06 -1.72875e-22)
(-8.4579e-07 -9.10773e-07 0)
(7.27486e-07 -8.71884e-06 -1.57508e-21)
(2.87962e-06 -6.23757e-06 6.35858e-22)
(-1.29271e-06 -8.74292e-06 5.18259e-22)
(3.52672e-06 -1.15572e-06 1.46581e-22)
(7.19337e-07 -1.16296e-06 0)
(-8.45938e-08 -9.44379e-07 0)
(7.87697e-07 -4.17421e-07 0)
(-8.72333e-10 -3.66533e-08 1.91586e-22)
(-3.49401e-05 -3.28932e-06 -1.4816e-22)
(5.57922e-07 -6.9389e-07 0)
(-1.17293e-05 -1.72168e-06 5.86e-22)
(5.63463e-07 -7.39552e-08 0)
(-1.16203e-07 -6.82044e-07 5.36158e-22)
(5.5487e-07 -3.64076e-07 -2.11675e-22)
(-5.67367e-05 1.31766e-05 0)
(4.01558e-05 -0.000155583 1.6069e-21)
(-3.91819e-10 -1.86232e-08 1.36102e-23)
(3.46675e-06 -4.73973e-07 0)
(6.63032e-06 -2.29622e-06 4.75028e-22)
(-3.2617e-07 -1.31825e-06 0)
(-2.39047e-07 -1.06425e-06 -8.79115e-22)
(-8.70687e-06 -9.54473e-07 3.17532e-22)
(2.76318e-06 -1.02506e-06 8.19018e-23)
(1.28474e-05 -5.53671e-06 -4.05591e-22)
(2.29139e-06 -1.05342e-07 4.8506e-22)
(1.31332e-06 -6.24476e-08 -3.9436e-22)
(1.15176e-06 -1.39074e-06 4.60939e-23)
(3.66179e-07 -5.89352e-07 0)
(3.66765e-06 2.53514e-07 -4.3685e-23)
(9.05985e-07 -1.35016e-06 -1.52184e-22)
(-7.35846e-07 -1.32039e-06 -1.77473e-23)
(-1.60221e-05 2.24513e-05 -1.32763e-21)
(1.98264e-07 -5.09694e-08 0)
(-5.94722e-10 -3.65541e-08 0)
(3.23011e-06 2.14131e-07 -5.78968e-22)
(5.65479e-06 3.8371e-06 2.09615e-23)
(2.11168e-07 -1.29256e-06 4.90264e-22)
(1.79895e-06 -1.28887e-06 -1.90757e-22)
(1.71862e-06 -2.79162e-06 1.80517e-22)
(1.29364e-06 -7.48388e-07 -3.32991e-22)
(0.000125301 0.000146436 -1.98742e-21)
(-2.44429e-05 -4.65635e-07 -8.83226e-22)
(7.36296e-10 -1.29911e-08 7.48774e-23)
(-6.13418e-07 -9.41714e-07 2.09152e-22)
(-2.26285e-05 -3.98305e-07 0)
(-1.25039e-05 -1.43366e-06 1.89369e-23)
(-6.59136e-06 -2.01349e-06 0)
(-1.04165e-07 -6.68072e-07 1.94423e-22)
(-3.24545e-05 -3.39608e-06 -4.9119e-22)
(-3.04708e-05 -2.4077e-06 0)
(-6.40175e-07 -5.22922e-07 3.12865e-23)
(3.1461e-06 2.40222e-07 -1.51941e-22)
(3.5951e-06 -1.13731e-06 0)
(-2.7983e-05 -8.9518e-07 3.80212e-22)
(-3.36016e-07 -3.23099e-08 -4.2206e-22)
(0.000379152 0.000179901 -1.38686e-22)
(1.9323e-05 -3.28531e-06 6.72356e-22)
(-5.5013e-06 -1.23978e-06 2.46775e-22)
(0.000314015 2.53686e-05 -5.74146e-22)
(-5.45094e-06 -1.23095e-06 0)
(-1.14263e-05 -1.76499e-06 0)
(-1.13111e-05 -1.18672e-06 -3.52429e-22)
(-1.49419e-06 -1.94844e-06 0)
(1.12644e-06 -1.3438e-06 -3.39536e-23)
(2.57077e-06 -1.39318e-06 0)
(8.15826e-07 -3.00199e-06 3.08899e-22)
(5.85345e-08 -2.37575e-08 9.84842e-23)
(-3.75671e-06 -1.12236e-05 -1.24022e-21)
(1.30333e-06 -4.10322e-06 -7.36456e-22)
(0.00028012 -3.98758e-05 2.83429e-22)
(4.80141e-06 -4.83699e-06 9.07071e-23)
(5.69889e-06 -4.35463e-06 1.33246e-22)
(1.63118e-06 -8.63907e-06 9.08033e-22)
(-2.46311e-05 -2.31119e-06 0)
(-2.23516e-05 -4.54776e-06 0)
(-1.49581e-05 -1.41781e-06 7.25601e-22)
(4.20253e-06 -4.17823e-06 -1.04781e-21)
(-1.12528e-05 -7.43886e-06 0)
(-4.94754e-10 -3.7756e-08 2.15012e-23)
(2.01244e-06 -1.68148e-06 7.33997e-24)
(5.89715e-07 -5.67533e-08 -1.62155e-23)
(-2.70768e-07 -2.15096e-06 0)
(-2.53099e-05 -2.26078e-06 -4.4025e-24)
(1.20068e-06 -7.6873e-07 8.07456e-23)
(3.4451e-06 -1.25645e-06 0)
(1.81866e-06 -4.20765e-06 -1.75545e-22)
(-7.98968e-07 -5.18599e-06 -4.34274e-25)
(-2.13312e-05 1.19312e-05 3.83065e-22)
(5.38799e-06 -1.01198e-05 0)
(3.35946e-06 -4.21532e-06 5.82408e-22)
(-1.07234e-05 -5.39816e-07 1.06902e-22)
(5.17058e-07 -8.03994e-07 -2.48817e-23)
(-6.9883e-08 -8.93348e-07 9.44416e-23)
(-4.74849e-09 -3.89045e-08 -7.25524e-23)
(-4.76641e-07 -1.42653e-06 2.59822e-23)
(2.94354e-06 -1.67552e-06 1.82105e-21)
(8.25319e-07 -3.11094e-06 0)
(5.80255e-07 -4.93179e-06 4.97336e-23)
(3.52375e-07 -5.55128e-07 0)
(2.82043e-06 -2.71568e-06 0)
(-1.79649e-06 -7.25304e-07 -1.26883e-22)
(6.86736e-07 -3.79804e-07 0)
(-9.05168e-07 -2.81441e-06 0)
(-1.40202e-05 -3.34413e-06 3.96057e-22)
(-9.32669e-06 -1.07299e-06 -4.0225e-22)
(3.32266e-06 1.77423e-07 0)
(-2.68391e-08 -4.81965e-07 2.15031e-22)
(1.19346e-06 -1.89038e-06 -3.45612e-24)
(-1.78153e-07 -1.04016e-06 -2.57927e-22)
(-1.73911e-05 -5.80192e-07 0)
(-8.28605e-06 -1.19973e-06 -5.40867e-22)
(1.99753e-07 -2.36534e-06 -3.43379e-22)
(5.52141e-07 -2.98788e-08 2.2144e-22)
(1.65869e-07 -5.7013e-08 -1.24378e-22)
(-1.78655e-09 -6.51108e-08 -2.07235e-22)
(-2.97261e-05 1.28912e-06 4.94447e-22)
(6.67729e-06 -2.04858e-06 2.72771e-22)
(-5.7417e-07 -1.22681e-05 6.02686e-22)
(-5.92614e-06 -1.40968e-06 3.03768e-22)
(1.12781e-06 -1.52164e-06 -3.02801e-22)
(1.37494e-05 -2.28577e-06 0)
(3.19907e-06 -6.42833e-07 2.06144e-22)
(1.39545e-06 -1.59731e-06 2.13201e-22)
(-3.31088e-05 -8.15699e-06 1.30321e-21)
(2.11045e-07 -7.20547e-07 0)
(2.62335e-06 -1.83759e-06 3.0561e-22)
(-9.14575e-06 -2.20158e-06 1.61511e-22)
(5.39249e-07 -3.72664e-07 3.05244e-22)
(-0.000235018 1.26469e-05 0)
(-2.53504e-05 3.76845e-07 7.11987e-22)
(-6.89269e-07 -1.33262e-06 -8.47661e-23)
(8.05201e-06 -1.8192e-06 -1.60125e-22)
(-2.62693e-05 -3.14868e-06 6.09801e-23)
(-3.11403e-05 -2.19075e-06 0)
(1.66633e-06 -2.97004e-06 -1.26354e-22)
(-2.93762e-05 -6.53491e-07 -3.72812e-23)
(5.88018e-07 -6.85943e-06 -4.9824e-22)
(4.25536e-07 -1.84672e-06 0)
(-7.3241e-09 -1.04801e-07 0)
(6.44258e-07 -2.98117e-06 3.6143e-23)
(6.23288e-06 -8.07672e-07 0)
(-3.33541e-05 -6.6943e-06 -4.23998e-22)
(3.11061e-06 -2.80769e-06 0)
(2.51747e-09 -4.3135e-09 0)
(5.03366e-06 0.000249228 -3.25556e-21)
(3.89227e-08 -2.59106e-07 -3.57898e-24)
(2.81367e-06 -1.0048e-06 -2.97552e-23)
(-1.37004e-06 -7.24081e-07 -5.19881e-22)
(4.59279e-06 -4.82472e-06 0)
(1.30355e-06 -4.39498e-06 -3.4554e-25)
(4.04026e-06 -2.60149e-06 0)
(3.13632e-06 -1.72572e-06 3.22299e-22)
(5.93231e-08 -1.8643e-07 3.96657e-24)
(1.15283e-06 -2.87738e-07 2.44661e-22)
(-3.21086e-07 -1.83492e-06 0)
(2.42123e-09 -1.87939e-08 -7.81809e-23)
(-1.31621e-05 -1.99372e-06 0)
(9.13519e-07 -1.52015e-06 6.38085e-23)
(5.35623e-06 -3.58135e-06 0)
(1.6464e-06 3.29568e-07 5.15613e-22)
(4.42418e-07 -7.09684e-08 0)
(1.14597e-06 -1.79796e-06 0)
(1.93191e-06 2.62109e-07 0)
(-4.21152e-07 -1.71834e-06 2.32167e-23)
(4.40006e-06 -1.30022e-06 4.1173e-22)
(-2.34252e-05 -3.40187e-06 1.04408e-21)
(6.59732e-07 -1.1392e-06 1.74658e-22)
(4.7158e-06 -7.1109e-06 -5.09042e-22)
(6.68454e-09 -7.35871e-08 0)
(-2.08338e-05 -1.21266e-06 -2.52357e-22)
(4.66325e-06 -1.00828e-05 0)
(-2.45931e-05 -1.36031e-06 1.09733e-23)
(-5.19986e-07 -1.02484e-05 0)
(1.26095e-06 -4.21109e-07 -3.45127e-22)
(-6.07348e-08 -4.43341e-07 8.15759e-22)
(-1.33723e-06 1.587e-06 0)
(-2.14063e-05 1.17691e-05 -4.31586e-22)
(6.99514e-07 -1.12736e-07 0)
(6.37009e-06 -7.12313e-07 4.63628e-23)
(3.54062e-06 1.27409e-06 -1.04471e-21)
(-0.000245173 -0.00020963 -3.80177e-21)
(-7.14002e-08 -7.21061e-07 -3.75049e-22)
(-1.18357e-05 -1.0262e-06 1.06188e-21)
(4.57481e-08 -2.94615e-07 -1.56474e-24)
(-3.43638e-05 -7.5309e-06 -5.22366e-22)
(1.78189e-06 -2.10406e-06 3.03563e-22)
(-2.88742e-06 -1.27063e-05 -5.58467e-22)
(5.84939e-07 -3.47734e-07 0)
(1.15576e-06 -7.69201e-07 -2.77996e-22)
(2.89207e-07 -1.46406e-06 -6.52275e-22)
(1.23339e-06 -4.81723e-06 0)
(-6.63793e-08 -5.48845e-07 0)
(3.90502e-06 -6.15197e-07 5.59291e-22)
(1.11881e-06 -7.39124e-07 -8.44174e-23)
(5.74636e-06 -4.74155e-05 3.13504e-22)
(9.09021e-06 -1.0212e-05 0)
(1.21044e-07 -2.34778e-06 3.27162e-22)
(2.90315e-06 2.21625e-07 4.99049e-22)
(-0.000255442 0.000150872 0)
(-1.10291e-05 -1.60597e-06 -6.07407e-23)
(5.07879e-09 -7.16849e-08 -8.83252e-25)
(-2.35285e-05 -4.68736e-06 0)
(1.30823e-07 -1.26108e-06 -1.98016e-24)
(3.71952e-07 -8.27827e-08 -7.59685e-23)
(2.42642e-06 -3.42068e-06 0)
(-2.06104e-07 -1.7003e-06 0)
(-1.68139e-07 -1.26644e-06 -1.90886e-22)
(-2.23948e-06 -2.63708e-07 0)
(2.57858e-06 -1.77396e-06 -3.44495e-25)
(-3.99302e-07 -1.88942e-06 -7.89887e-23)
(-2.4951e-07 -1.20609e-06 2.98071e-22)
(5.10655e-08 -7.30426e-07 6.84997e-23)
(4.55761e-07 -7.2735e-08 -1.32402e-22)
(-1.99607e-05 -1.15828e-06 3.24977e-22)
(-1.40161e-05 -3.48988e-06 -7.33451e-22)
(4.60842e-07 -2.424e-07 7.05062e-23)
(4.09292e-07 -1.59117e-07 1.10058e-22)
(3.03279e-06 -5.21434e-06 -9.53333e-22)
(3.89262e-07 -3.45621e-07 1.80737e-22)
(-1.05423e-05 -5.34271e-07 0)
(-9.58932e-07 -2.75626e-06 -5.18812e-22)
(-3.12056e-07 -7.29017e-07 -3.35575e-22)
(-2.55405e-05 -4.25267e-06 0)
(5.8002e-07 -7.2152e-07 0)
(5.5952e-07 -3.23097e-06 -2.02853e-22)
(-1.94395e-05 -2.07331e-06 5.06892e-23)
(5.1168e-06 -2.47136e-06 0)
(-1.14678e-09 -1.43643e-08 -1.87046e-22)
(-1.64389e-06 -9.55856e-07 3.98704e-23)
(2.89791e-06 -2.7468e-06 2.06662e-23)
(8.30961e-08 -6.36734e-07 0)
(0.000209357 -2.9957e-06 2.01482e-23)
(-2.08103e-06 -3.53553e-07 0)
(2.46771e-06 -2.78373e-06 0)
(1.86898e-06 3.83153e-06 0)
(-3.04841e-06 -4.57338e-06 0)
(2.39203e-06 -2.74355e-06 4.88504e-22)
(1.31602e-08 -2.23821e-07 -6.62108e-24)
(-2.9348e-05 -4.41413e-06 0)
(1.33111e-08 -2.26422e-07 7.31206e-24)
(1.16587e-06 -1.86232e-06 -3.6791e-24)
(6.63767e-06 -2.18891e-07 0)
(7.5735e-09 -5.38406e-09 0)
(1.23679e-06 -7.99146e-07 -1.97304e-22)
(2.70639e-06 -4.0364e-06 3.59526e-22)
(-1.33878e-05 7.17873e-06 0)
(7.40654e-06 -5.27485e-07 1.52219e-21)
(-5.31679e-06 -1.32458e-06 -7.41792e-22)
(-2.84951e-05 -1.25708e-06 0)
(1.33862e-09 -7.94294e-08 0)
(-5.38064e-06 -1.75766e-06 -2.43244e-23)
(0.000204713 2.08859e-05 5.48359e-22)
(3.95218e-06 -2.30663e-06 2.83753e-22)
(2.40851e-05 -1.17223e-05 3.63461e-22)
(3.08749e-06 1.37284e-07 3.07882e-22)
(-9.5227e-06 1.4662e-05 0)
(8.74804e-06 2.67656e-05 -2.95286e-23)
(4.96233e-06 -2.47935e-06 3.36623e-22)
(-6.11614e-07 4.21233e-07 0)
(-3.80984e-07 -1.15149e-06 1.11403e-21)
(-1.07212e-06 0.000106792 0)
(-2.00826e-06 -1.00977e-06 -3.70002e-23)
(1.51161e-06 -2.76792e-06 0)
(-3.89283e-06 1.42516e-06 1.85283e-22)
(1.46801e-07 -2.37934e-06 7.18986e-22)
(-3.91125e-05 0.000590194 9.69879e-22)
(1.89662e-06 -3.07508e-07 -2.04162e-24)
(4.1436e-08 -3.71646e-06 0)
(-1.70697e-05 -3.82963e-06 0)
(-2.68489e-07 -1.06525e-06 1.15901e-21)
(2.11052e-06 -2.03652e-06 -1.96493e-23)
(-1.48347e-05 -1.39791e-06 -5.51277e-22)
(7.32218e-06 -1.92144e-07 -1.72425e-21)
(-1.42457e-05 -6.62155e-07 3.68092e-22)
(8.42938e-09 -7.46391e-07 7.6353e-23)
(1.42085e-05 4.06378e-05 0)
(-1.86586e-06 -8.58238e-07 0)
(-1.9868e-05 -1.35002e-06 -3.76366e-22)
(3.29481e-06 3.14929e-08 1.20242e-21)
(9.913e-07 -9.46217e-07 -1.82237e-22)
(3.55158e-06 -3.62596e-07 4.21668e-22)
(1.35726e-05 1.23213e-05 7.40758e-22)
(-1.40034e-05 -9.06873e-07 0)
(-1.35676e-05 -5.56732e-07 0)
(2.94013e-06 -2.156e-06 -1.31206e-23)
(-1.04625e-07 2.62722e-07 -1.15732e-22)
(2.27441e-07 -3.12636e-08 -1.54935e-22)
(-3.57648e-05 1.53037e-05 0)
(3.85319e-06 -7.58011e-07 0)
(3.91596e-07 -1.78549e-06 1.86591e-22)
(-9.39904e-06 -1.13635e-06 -5.21863e-22)
(5.43654e-07 -3.40673e-07 -8.09557e-23)
(-3.51428e-06 -1.32282e-06 0)
(3.02867e-06 -1.85331e-06 -1.94723e-22)
(-2.39931e-06 -6.96304e-07 0)
(-2.64878e-07 -1.22872e-06 2.82639e-23)
(-2.64454e-07 -1.20593e-06 -4.11387e-24)
(7.0338e-06 6.91098e-08 1.30927e-21)
(-2.99679e-09 -9.84328e-08 0)
(5.49399e-07 -7.54528e-07 0)
(2.83489e-05 1.94638e-07 -1.41148e-21)
(-1.73836e-06 -3.52796e-07 5.63205e-22)
(3.52076e-06 -1.2411e-06 -1.81874e-22)
(2.80136e-07 -2.28851e-07 0)
(-1.29158e-07 -1.69813e-06 -1.34479e-23)
(-4.42081e-06 -6.15063e-07 -6.20407e-22)
(5.64095e-06 -2.10444e-06 -2.21258e-22)
(-9.0396e-06 -2.81012e-07 -3.44979e-22)
(-2.50495e-05 -4.39806e-06 0)
(2.12938e-06 -2.28642e-06 6.12321e-22)
(-2.07395e-09 -7.5866e-08 -3.51863e-24)
(-1.3315e-06 -1.54593e-06 0)
(-4.43172e-06 1.44732e-06 4.77514e-23)
(-5.69066e-06 -1.24389e-06 6.05276e-22)
(3.06777e-06 -1.66388e-06 -6.15694e-25)
(-3.05084e-07 -1.26069e-06 0)
(6.05153e-06 -1.68509e-06 -2.09022e-22)
(7.45741e-08 -6.86251e-07 -1.79203e-23)
(5.48678e-07 -1.93679e-08 1.99669e-22)
(2.86686e-06 -2.14547e-06 -1.83916e-22)
(6.84204e-05 5.58821e-05 0)
(3.57746e-06 7.32062e-07 5.89061e-22)