/*--------------------------------*- C++ -*----------------------------------*\
| =========                 |                                                 |
| \\      /  F ield         | OpenFOAM: The Open Source CFD Toolbox           |
|  \\    /   O peration     | Version:  v2012                                 |
|   \\  /    A nd           | Website:  www.openfoam.com                      |
|    \\/     M anipulation  |                                                 |
\*---------------------------------------------------------------------------*/
FoamFile
{
    version     2.0;
    format      ascii;
    class       volScalarField;
    location    "200";
    object      ddt0(omega);
}
// * * * * * * * * * * * * * * * * * * * * * * * * * * * * * * * * * * * * * //

dimensions      [0 0 -2 0 0 0 0];


internalField   nonuniform List<scalar> 
15335
(
-4.98958e-05
-0.000103279
-7.46151e-05
-3.69419e-06
-5.39658e-05
-1.42858e-08
2.9832e-05
-3.64836e-05
2.00795e-07
-3.8981e-05
-5.91876e-05
1.28086e-07
-6.0914e-05
0.0004327
-7.79655e-05
-0.00837204
1.14038e-07
-0.000114414
1.0173e-08
-0.00255227
-7.62275e-05
-7.86584e-05
5.00102e-05
6.67179e-09
0.000675135
0.00143769
-0.000173056
0.00142708
-0.000125845
-4.89396e-08
-0.000171581
-6.62462e-05
9.71357e-09
-8.25033e-08
1.26429e-08
0.00339972
0.00299704
-5.20307
1.87992e-06
-0.000260811
0.000122665
0.0117333
-8.90723e-08
2.54951e-07
-3.0321e-05
2.52127e-09
0.00187615
-4.76522e-05
7.44704e-05
6.50337e-08
5.9207e-09
-0.000110187
-0.00528778
-3.72234e-08
2.20354e-08
-1.11565e-05
-0.00317667
-0.000101
-6.58083e-05
-5.84029e-05
-4.10437e-05
-5.82914e-05
-0.000853928
1.05168e-05
1.69866e-08
1.1799e-07
0.000336647
-7.70623e-05
1.96231e-08
5.50369e-09
2.15038e-06
2.1473e-08
0.000577749
-4.805e-05
7.26559e-05
-5.64792e-05
8.41626e-05
-7.1781e-05
-0.0003281
4.70556e-08
-5.87193e-05
-0.000187616
-5.24134e-05
0.000478432
-0.000145113
2.99613e-09
9.55886e-09
2.56447e-07
4.99671e-08
0.000248366
-6.49696e-05
-0.000636386
1.19053e-07
0.00384332
-5.37148e-05
1.02681e-07
2.15441e-09
-1.27207e-06
4.58565e-09
-2.94207e-09
-1.10629e-07
-6.03999e-05
0.00152515
-1.4917e-05
7.31027e-08
1.8881e-07
2.0301e-08
0.000164577
-9.14862e-05
-1.14282e-05
-2.51088e-05
-0.000100497
2.67896e-09
1.3247e-07
-0.00954305
4.76563e-08
1.17387e-06
0.000938756
-5.88794e-05
0.00410867
-6.31524e-05
0.000259632
-4.63592e-05
8.41547e-06
6.75332e-09
1.8471e-07
-0.000830037
1.59101e-08
1.43803e-07
2.13702e-08
-5.36459e-05
-2.32616e-05
4.63102e-09
0.00093089
-0.000140162
1.04891e-09
-5.43939e-05
-0.000104611
-0.00179806
-0.000482671
-0.000545874
-0.000250855
0.00213473
1.11299e-07
-6.80106e-05
-2.04859
-4.50326e-05
0.000102762
0.00668137
-5.4167e-05
1.34977e-07
-7.46096e-05
1.58011e-07
9.39797e-08
-3.16596e-05
3.4577e-08
-0.000117765
-1.49099e-06
0.00110982
-7.77499e-05
-1.40812e-09
2.80655e-05
-2.12149e-06
-1.62289e-05
-1.35237e-05
-7.90998e-06
-1.25073e-05
5.34826e-09
0.00556565
-6.63482e-06
-0.300927
-0.00723953
-0.000104883
0.00176592
-8.42022e-05
1.71924e-08
2.07089e-11
5.60479e-07
-0.0962751
-0.000201919
-0.000176382
1.71466
-4.6628e-05
1.12385e-06
1.84246e-06
-1.86433e-05
1.17583e-07
1.78407e-06
-4.39398e-05
-5.65344e-05
-5.72504e-05
-0.0877829
1.91576e-07
0.000187808
-0.00209128
-9.61313e-05
-8.72809e-10
-2.42472e-05
2.06079e-07
-7.49742e-05
5.23455e-07
0.00166142
-0.00226115
-6.9311e-05
-5.26102e-05
1.85658e-05
1.53746e-10
-0.00685378
-5.73801e-05
7.43868e-08
0.00030036
-5.89499e-08
-3.60402e-05
-9.39206e-08
-0.0123073
-0.00102971
-7.13345e-05
-8.09241e-05
4.83738e-05
0.00773922
-7.89325e-10
1.85024e-09
2.07894e-07
2.17482e-07
-0.000607584
0.000476434
7.22144e-09
1.73148e-05
1.46695e-05
6.57448e-06
1.97039e-09
2.78863e-09
6.77923e-05
0.00626586
0.00287229
-0.00091247
0.000189352
9.13847e-05
5.69295e-11
0.000137103
-9.04811e-05
-3.45347e-05
-4.24974e-05
5.88351e-07
-4.56429e-05
3.17695e-09
3.98001e-08
-5.06312e-05
-6.32412e-05
-6.89596e-05
-6.47262e-05
-0.00262229
3.76193e-09
5.90066e-09
-1.2188e-06
-0.00135767
-0.000471038
-5.59633e-05
4.95995e-09
0.00012293
-0.000185027
-2.6422e-08
7.04231e-09
-1.87953e-08
2.09331e-08
5.53829e-09
-7.86326e-05
1.90064e-06
-1.81142e-05
1.40124e-08
-6.56527e-05
-6.94426e-06
-1.09816e-05
1.8558e-09
6.81685e-05
6.48179e-09
-6.60677e-08
0.000187046
-6.90891e-06
1.46332e-05
-7.88008e-05
-6.07152e-05
1.10206e-08
0.000942173
1.64269e-07
-5.83317e-05
-0.000114387
1.4961e-07
2.16872e-08
2.29123e-08
-1.61041e-05
1.20491e-07
-0.00189109
0.00043995
2.32868e-07
1.31052
6.44726e-09
-0.000126611
1.23884e-08
-5.30833e-05
6.52485e-10
-9.46159e-05
-5.32514e-05
-0.000193972
7.92703e-10
-0.000195944
-1.79295e-05
1.14029e-10
1.94194e-05
-2.9908e-06
-5.58078e-05
2.1921e-08
-1.44491e-05
-1.99602e-05
-4.0387e-05
5.75764e-08
-1.55609e-09
-0.000117164
-0.00283143
0.0114653
-0.00878876
1.66693e-08
-0.00174797
-7.193e-05
1.94788e-07
-3.34685e-05
-5.61788e-05
2.61864e-05
1.51453e-07
1.31404e-07
-5.53735e-09
1.34878e-06
-1.82514e-08
-0.000139595
0.000301687
-0.000978779
0.00246506
-7.52589e-06
-0.000145429
-3.26059e-05
-0.00010149
-3.0529e-07
7.70767e-10
-5.56487e-05
2.56378e-07
-4.22739e-07
-1.67543e-08
0.00206245
3.54732e-09
-5.85977e-05
-6.17905e-05
-5.27335e-05
3.70546e-08
1.32084
-5.1829e-05
1.66977e-09
-0.000201595
7.06394e-06
7.98704e-07
0.000442426
1.47436e-07
-1.79644e-05
1.59758e-07
0.000390941
-0.000140868
0.00150013
0.000152409
-1.47473e-05
6.44406e-08
1.17795e-09
-0.000224534
4.10591e-08
1.45754e-05
-7.66008e-05
8.25449e-08
0.00164333
-9.08846e-05
2.13502e-07
-0.0491368
-3.7243e-05
2.594e-09
2.20317e-07
-4.80334e-05
0.000151572
1.34817e-07
2.18295e-09
-0.000202597
0.00320354
-2.94551e-05
-2.63953e-05
-2.27275e-09
7.25943e-10
2.23718e-09
-1.10327e-05
8.42948e-05
-0.0116256
0.00177461
2.52433e-07
0.0062516
-7.44862e-05
0.000624023
0.00039365
-7.72449e-05
1.48232e-07
5.30881e-08
7.69353e-07
6.88724e-05
-0.0660644
0.0219575
0.00038288
-0.000195263
1.64957e-05
5.11287e-05
-2.62646e-05
-2.82832e-05
-0.000126855
-6.69948e-05
6.15239e-08
0.00324393
0.000747752
5.15216e-05
-5.38285e-05
-2.74878e-06
2.3207e-09
0.000406272
0.000195637
3.00942e-05
-0.000121165
1.79211e-07
-0.00018831
-0.000113382
-0.00185207
-6.18429e-05
-0.000119456
6.21298e-05
-0.00142876
-8.8156e-05
-6.72457e-05
5.17532e-09
1.89435e-08
0.00192633
-5.65853e-05
1.23124e-08
-2.95412e-05
8.34529e-07
-0.000535545
-0.0072915
3.60411e-05
0.000481709
0.00141327
-6.87727e-05
0.00042853
-0.000627054
1.40693e-07
-0.000114255
-0.000112139
-5.00224e-08
-7.43349e-05
-4.36852e-05
0.000373044
-9.24953e-05
-0.0371533
0.00504372
-7.52905e-05
7.97998e-07
1.32479e-07
1.25843e-07
2.09642e-07
-0.00123704
-1.52587e-05
-1.44564e-05
-0.000454558
0.000227867
-9.24771e-08
-1.33595e-10
2.16775e-08
-0.000196931
-9.47875e-05
-5.65443e-05
0.000121988
0.00100712
-0.00909772
4.15727e-07
-5.43478e-05
1.72101e-07
1.33048e-08
1.41206e-07
8.73663e-05
1.10449e-08
-5.05859e-05
4.9709e-09
-3.3654e-06
7.15546e-09
-9.58711e-05
-2.0119
8.57581e-08
2.54649e-07
5.40228e-05
-0.00058778
-0.000113177
-0.000127817
1.59226e-07
-0.000369876
1.1466e-07
-5.12756e-05
5.93997e-08
8.40633e-09
-6.40892e-05
3.62672e-08
-0.000147396
-4.54027e-05
1.22152e-09
2.12559e-08
-5.77878e-05
0.00190821
0.000485186
8.64254e-08
7.1287e-07
3.72024e-08
0.0287115
5.07503e-06
1.14897e-11
-5.39098e-05
9.18285e-06
-4.9545e-05
-5.6822e-05
-8.60707e-09
1.93262e-05
-7.14831e-05
-5.43222e-05
-5.74849e-05
4.11746e-07
-3.82652e-05
0.00331061
0.00838954
-0.00010232
-7.08304e-05
0.000682564
-6.55327e-05
-5.21477e-05
-3.80019e-05
-2.51693e-05
5.69911e-08
1.833e-07
-6.43718e-06
2.18839e-10
0.00106853
0.000190043
0.00122218
1.44217e-05
-0.00131071
0.447682
-6.68638e-05
-0.000117959
-2.97053e-05
-0.000512507
-0.000843234
-1.975e-10
1.2745e-07
5.46759e-09
1.79112e-07
-6.2082e-05
3.3066e-08
4.03761e-07
-2.85119e-05
-0.00326284
-1.50919e-05
-5.43949e-05
0.00118967
-4.12549e-06
1.29208e-08
-4.81311e-08
-1.33212e-08
4.72025e-06
-9.43155e-05
-1.64164e-05
0.0312095
7.8198e-09
6.46803e-07
-6.19013e-05
9.89154e-09
-3.54265e-05
-0.000110018
-0.000114396
-5.52762e-05
9.01454e-09
2.42676e-07
1.34234e-07
-8.38532e-05
0.000982502
1.35576e-07
5.26501e-09
9.77895e-10
-5.69768e-08
2.0827e-05
8.9936e-06
-0.000384116
-6.96555e-05
4.38216e-08
0.00211311
2.07106e-07
5.87924e-08
-4.42466e-05
2.25377e-08
1.29662e-07
-5.65893e-05
7.0289e-09
-0.00167895
1.16426e-06
-0.00077271
0.000344092
-8.42205e-05
-6.36895e-05
-5.06026e-08
-2.26871e-05
0.00132902
9.4431e-08
3.16245e-08
-3.80859e-06
-0.000410994
-4.05904e-05
-4.33309e-07
2.78679e-12
-0.0163317
-1.14171e-10
1.59751e-07
-5.86837e-05
-0.000131729
-0.000116671
-0.000124217
2.74095e-07
1.05576e-09
2.59271e-08
5.88286e-08
1.84942e-11
-0.000111491
4.46557e-08
-0.000825244
-4.28708e-05
3.69251e-09
2.03466e-07
-4.24771e-05
1.1661e-07
0.00325298
-0.0001103
2.38214e-08
-0.000650839
3.00104e-10
-7.62158e-05
-0.0196932
2.78487e-06
0.00770862
-6.05958e-05
-5.35872e-05
-0.00059139
-0.000290031
8.27875e-09
-0.000254864
0.00199521
0.00324549
-2.30157e-05
-0.0001233
3.09227e-10
0.000259634
1.2208e-07
0.00305591
8.17373e-09
3.27702e-08
0.00452152
0.00118335
7.99184e-09
3.84557e-07
2.93628e-08
0.0218667
-5.6184e-05
1.33378e-07
-6.15306e-05
-0.0158174
-4.8832e-05
2.0019e-10
-0.000113519
-1.29682e-08
2.98852e-09
-0.000237291
9.55481e-08
9.8214e-08
-5.76712e-05
1.19063e-07
1.42722e-08
-1.53794e-06
4.12274e-08
3.76305e-09
-7.45935e-05
7.50578e-06
5.58996e-09
3.52428e-09
1.48822e-05
4.6419e-09
2.7196e-06
2.63851e-06
-6.93659e-05
-7.77494e-05
1.28339e-08
-0.00010722
-6.98491e-05
3.64528e-05
-3.1375e-08
-0.00227305
7.39046e-08
-9.33549e-08
-0.705573
-5.787e-05
4.74743e-07
-9.96336e-05
0.00138539
6.62847e-08
-9.30864e-09
-3.92773e-05
-6.26338e-09
2.38277e-07
-6.59712e-06
7.14141e-12
3.68664e-08
-0.000213247
0.327878
-0.000151429
-6.54699e-05
1.05768e-05
6.81426e-09
-5.71334e-05
-0.00374968
7.2196e-07
-1.26435e-05
0.000720174
0.000176753
5.29931e-05
5.02524e-06
-5.54179e-05
-0.00168565
-0.00011341
-0.00101479
1.99308e-07
-0.00346712
-0.0135272
-0.321025
7.54685e-08
5.90067e-05
-0.000108622
8.76698e-05
9.91681e-08
-2.51392e-05
-6.11688e-05
7.38065e-05
-3.82174e-08
0.0188289
-5.36773e-05
-7.3316e-05
-5.15535e-05
2.8543e-08
2.57229e-07
0.00189709
8.81439e-05
6.46152e-05
3.07096e-07
-5.22164e-05
2.01694e-09
0.0229912
3.95465e-07
1.15028e-07
-0.000126103
7.34123e-09
-6.48457e-05
2.54501e-07
-0.00133287
-8.39218e-05
5.75124e-06
-0.000161331
-5.51249e-09
1.23964e-08
-7.15417e-05
-4.00284e-05
4.07183e-07
2.76717e-09
7.70024e-08
-1.7548e-05
-1.64714e-06
0.000111458
-8.13312e-05
2.18055e-07
5.84347e-09
-9.44987e-05
-0.00946699
-6.94271e-05
2.60635e-07
-6.40009e-05
0.000551882
-3.58587e-08
1.0164e-08
2.91442e-07
0.00233914
0.00500883
6.52713e-05
3.82913e-09
-7.02246e-05
4.13981e-05
-7.42429e-09
1.60833e-08
5.72526e-05
4.81949e-10
6.34505e-05
0.000618207
-2.07163e-08
-7.01553e-08
-3.85862e-08
1.79584e-08
-1.03771e-08
4.96828e-09
-9.33651e-05
-0.000203691
2.39903e-06
-6.93571e-05
7.54084e-08
1.20444e-07
8.21322e-08
-0.000190983
-0.00794879
-7.78137e-05
9.11361e-08
1.59132e-08
-6.63146e-05
-8.45982e-08
-3.4562e-05
1.19929e-07
-0.000692526
-0.00556702
-3.55964e-05
1.16372e-08
1.98257e-08
2.51748e-05
-7.37189e-05
1.63364e-07
1.05124e-07
9.41817e-09
-0.00062838
3.89478e-07
1.88232e-07
5.8008e-08
4.87943e-09
-3.30253e-05
2.01932e-07
3.55741e-09
0.0951006
-5.29724e-05
0.00422669
-6.23836e-05
0.00058782
4.18395e-09
0.000294749
8.23304e-05
0.506792
1.47467e-07
9.7055e-06
-0.0004203
7.83188e-08
-5.04761e-05
-0.00105695
9.13642e-10
-0.000235676
0.000240376
2.9743e-08
0.000119538
8.68544e-08
-9.59168e-09
-0.000127058
-6.7106e-05
-3.0818e-08
-3.82447e-05
0.00420599
1.39666e-09
-9.46992e-08
-4.68335e-05
-0.0257808
0.00199804
4.40658e-09
-9.57763e-06
-8.25509e-07
-6.57454e-05
-5.81665e-05
-5.58733e-05
-0.00434378
2.79735e-08
-5.18953e-05
9.42049e-08
-0.00111191
4.73911e-08
-6.9654e-05
-0.00482422
3.9024e-08
4.01627e-10
2.51001e-07
-0.000117711
-0.00015694
-2.07423e-08
3.22454e-10
-5.95431e-05
8.14866e-09
0.0379094
0.000549011
4.04896e-09
8.19988e-09
-0.000116225
8.28501e-08
-0.000128441
-0.807527
-1.70004e-08
1.68992e-07
3.78483e-05
8.27934e-08
0.000297108
2.55316e-05
-0.000629839
9.38704e-09
4.06923e-09
-5.28594e-05
1.46148e-07
4.09472e-08
-5.681e-05
-5.03335e-05
1.59028e-08
-0.0563805
7.72718e-09
1.7433e-07
-4.38701e-08
-2.11857e-05
-5.57691e-05
-1.03765e-08
6.68398e-08
-0.000114036
1.57673e-07
0.000202033
7.50103e-08
-0.00385518
-2.66882e-09
-4.32396e-07
1.10276e-07
-0.00397668
-5.48922e-05
5.70322e-08
1.20243e-06
-4.7562e-05
1.96617e-07
-7.15098e-05
-0.000668375
1.90219e-07
-3.31531e-09
-0.000118007
0.0205127
-1.72116e-09
2.00475e-05
-5.30179e-08
0.0016566
-4.43316e-05
3.94972e-11
-7.04976e-05
3.11153e-09
-6.28364e-05
-0.000628766
7.92263e-05
4.10257e-07
9.0214e-05
4.01198e-09
-0.000117318
1.54447e-08
1.78777e-07
0.000137152
-3.34482e-05
-0.00399998
-9.64516e-05
-1.4517e-05
0.0141914
-3.9068e-05
-5.21856e-05
2.7585e-07
-7.8223e-05
-0.00310252
1.78641e-06
-0.00526578
0.000728592
5.11842e-09
-0.0016386
-5.96589e-06
-0.000417035
-5.2281e-05
0.0212146
2.6015e-08
-0.0846308
-1.19745e-07
0.000440701
3.02632e-09
-6.58552e-05
3.30847e-09
9.82862e-06
-5.52488e-05
0.000414274
-0.000134531
-7.86066e-05
-0.000894987
6.08177e-09
0.000219286
-9.63291e-05
0.00222729
1.47062e-09
0.00432506
7.61123e-08
-3.23957e-06
-0.00275988
-6.95787e-05
-0.000134146
1.48725e-11
-6.68802e-05
1.1461e-06
3.54136e-05
-3.2357e-05
-7.50578e-05
0.00167302
1.37251e-09
0.00280439
-8.66505e-05
2.5633e-06
-0.00013135
8.47331e-10
-3.28099e-08
-4.86834e-08
1.31724e-09
2.28706e-07
0.0488088
-4.43233e-05
0.000461407
7.43731e-06
-5.41694e-08
1.84964e-08
-5.56551e-05
0.00687187
6.86955e-08
-0.000566887
0.000115324
-0.00546039
-7.88392e-05
2.93765e-06
-0.000134583
-0.0014832
7.78763e-09
1.11606e-08
0.00217024
2.60729e-08
-1.32378e-05
2.08677e-09
3.3872e-10
-1.42468e-06
1.27613e-06
0.00392723
-5.20529e-05
6.31418e-05
3.84107e-09
3.86668e-08
1.62597e-07
-5.01911e-05
0.000181078
-4.54037e-05
4.97421e-09
-1.5013e-08
7.95432e-08
-1.52779e-08
3.85258e-08
2.7941e-08
2.88221e-09
1.62525e-07
0.000183058
1.84772e-08
-3.72837e-09
-0.000192489
-4.72458e-05
1.31047e-07
-5.41477e-05
2.4683e-08
7.36793e-08
-4.27487e-05
0.0838633
2.09843e-07
-4.95613e-05
-5.0593e-05
0.00138777
4.0296e-09
-0.0151812
0.00193862
-0.00198363
-7.76159e-05
-4.97192e-05
-6.75754e-05
-0.0400301
4.41302e-07
3.07421e-07
-6.10839e-05
-0.00765903
9.27167e-08
5.61131e-09
-5.0807e-05
0.000303329
-0.000109084
2.67405e-12
-2.88173e-08
-7.58225e-05
-5.55064e-05
-0.000128317
4.87397e-07
5.63345e-10
0.000131331
-8.99893e-05
1.25897e-08
-1.87878
-0.207774
-0.000707985
-0.00476325
-4.48167e-08
3.88633e-07
0.000901415
-0.00365258
0.000157788
-5.1623e-05
1.17465e-08
8.69113e-05
-3.09484e-05
-0.000111844
1.92815e-08
1.49917e-09
0.000707934
0.000436762
6.93186e-12
-4.32319e-05
-6.63051e-06
1.96434e-08
5.20461e-09
-5.49706e-05
-8.57023e-05
-7.66647e-05
-1.94563e-10
4.75599e-09
0.000182628
-0.000907944
-7.44773e-05
0.018518
0.000725833
3.09488e-07
1.84197e-08
-5.51865e-05
0.00239638
-5.90747e-05
-3.82685e-05
-9.98212e-06
-0.0586069
3.72255e-07
-0.000138797
-6.05576e-05
-6.58129e-05
-4.74526e-05
2.30041e-09
-1.11692e-06
0.000185507
-8.81264e-05
-9.68476e-07
3.15444e-11
-5.36904e-05
-4.13519e-07
-8.58551e-05
-5.36461e-05
-5.39707e-05
2.29231e-07
2.08192e-05
-6.12077e-05
1.62327e-06
-1.90824e-05
0.000962793
-6.3061e-08
-2.43382e-05
-3.62597e-05
-0.0661612
9.60019e-05
-5.24559e-05
2.30497e-08
-3.57004e-05
0.000432017
0.0177675
-0.000236431
-5.33108e-05
0.000859604
0.00107194
2.64229e-07
-2.90196e-09
9.23495e-09
2.94757e-10
1.93185e-10
0.000258875
-0.000278457
3.54559e-09
9.37436e-08
-7.25409e-05
2.0689e-08
6.6598e-05
-6.09507e-05
-0.00360449
-0.000321129
1.70351e-08
5.46772e-05
1.28141e-07
-5.11663e-05
7.76248e-09
-8.37325e-05
-7.29411e-05
0.000871933
-5.11628e-05
8.98821e-07
9.0054e-06
-7.27503e-05
-7.70986e-05
-5.24487e-05
0.19615
-5.87949e-05
-6.03799e-05
-2.20196e-05
2.61404e-07
-5.29865e-05
6.49244e-08
3.79458e-11
-4.62865e-05
-0.000679189
-6.08702e-05
2.1165e-08
1.3626e-07
3.60184e-09
0.000455502
-0.000153727
3.02941e-07
8.69171e-09
-0.000602829
4.73173e-07
1.40273e-08
1.78938e-08
-0.000742665
-0.52863
-0.000115606
1.89577e-08
0.0138485
8.42249e-09
1.36977e-07
-7.34318e-06
8.89368e-09
-6.79166e-05
-2.31648e-05
3.28676e-07
1.2833e-07
6.91368e-07
1.38222e-08
-6.77184e-10
-0.0019703
-0.000824864
8.5702e-07
1.11321e-08
4.63635e-07
-5.93057e-05
-0.00194278
-0.000162736
6.88793e-08
1.76465e-07
0.000136246
-2.34738e-05
-3.06598e-05
-7.12244e-12
1.7316e-08
3.07712e-06
-0.000115741
2.99103e-07
-4.86469e-05
2.85456e-05
2.77815e-07
-5.19141e-08
2.42997e-09
7.76848e-05
4.86022e-08
3.52842e-08
-0.0107377
1.79207e-08
-6.79346e-05
8.07109e-10
1.46768e-08
2.24637e-07
3.23626e-12
-6.68643e-05
0.003097
-2.69183e-05
-0.00236824
-5.0113e-05
0.00115299
-0.000427239
1.37416e-07
2.2666e-05
0.182068
9.52275e-10
-4.81333e-05
0.00937534
-0.00158922
2.83783e-05
-3.04884e-05
-5.00308e-05
5.66881e-11
-0.00134389
-6.44811e-05
-0.0101816
3.31367e-09
-6.80369e-05
2.57282e-05
1.70115e-07
-1.93436e-06
-2.3625e-06
-4.92113e-05
-5.22593e-05
-0.000154616
-0.000115967
-0.0011639
-0.00551193
-6.7714e-05
-7.01315e-05
0.000283629
2.6145e-09
-2.08185e-05
4.65509e-12
-7.14161e-05
-24.2162
-6.32858e-05
4.64046e-06
-0.000406715
0.00149629
1.49476e-08
-0.000346798
-0.00275791
1.02824e-07
-8.54531e-05
4.29127e-09
-1.73329e-05
-7.413e-09
-6.56544e-05
0.001889
8.07137e-10
1.49714e-07
-8.16044e-05
1.74843e-07
0.0128405
3.20867e-07
0.00207535
9.00187e-09
-0.00184273
1.56254e-09
1.80256e-07
5.06295e-05
-6.26683e-05
-0.000200257
0.000461061
-4.96544e-05
2.84699e-08
-4.97712e-05
-3.44603e-09
1.58351e-07
0.000496309
-6.72846e-05
-6.9873e-05
-5.25337e-05
9.67895e-10
-0.000208567
-0.000169209
1.30978e-09
1.19267e-09
1.33782e-05
1.75284e-07
-1.01902
-2.83103e-05
-5.81157e-05
-5.52291e-05
1.796e-09
-8.56318e-05
-5.46217e-05
1.61059e-07
-7.62398e-05
0.00425852
0.00111749
0.273435
-4.7189e-05
7.25338e-09
8.82741e-09
2.01656e-07
8.32506e-09
-5.74333e-05
3.475e-12
0.000874208
1.86929e-09
-0.000117093
-0.00181207
-4.98207e-05
-0.000122253
-1.32823e-05
-6.48724e-05
7.8015e-11
-0.00411354
-5.18886e-05
-4.32178e-05
1.31014e-07
1.46649e-08
0.00628257
-1.7542e-05
-0.000116987
8.92014e-05
-4.94761e-09
7.48657e-08
-0.00363022
-0.148193
4.86457e-08
-1.17783e-05
-1.34618e-05
2.91873e-10
-8.63149e-05
-0.000125906
-2.78321e-05
-7.17834e-05
-0.00104343
-6.91243e-05
3.06411e-07
-0.000109885
-0.000125658
6.94289e-09
-0.00556673
2.44605e-05
-5.48959e-05
-2.09251e-06
-8.04142e-05
5.08606e-07
3.87327e-05
1.67663e-07
0.000671256
1.97877e-07
0.00204817
1.52254e-07
-4.44747e-05
2.72189e-07
2.08041e-05
-0.00010527
-6.50545e-05
0.000289016
3.12803
-6.01899e-07
-8.29468e-05
4.41838e-07
2.76857e-07
1.00748e-08
-5.00898e-05
9.78914e-08
-6.68378e-05
8.4573e-08
1.24106e-07
-6.6406e-05
-3.20988e-09
6.65671e-09
3.80406e-11
-9.77222
2.17697e-08
-0.000108741
7.92181e-08
0.00513698
-7.95588e-05
-6.14686e-05
7.97339e-10
-0.000128222
1.31475e-07
1.4856e-07
3.03781e-08
-3.64817e-05
9.76706e-09
0.0163754
6.49905e-10
-6.3483e-05
-7.89826e-05
1.21717e-07
-1.56688e-05
9.72447e-06
-6.10135e-05
4.76056e-08
-9.17081e-05
0.000725793
-0.00195714
6.32635e-08
7.16209e-08
0.00273341
-7.30788e-05
1.84618e-07
-0.000865343
0.00267838
1.13347e-07
-0.0178931
7.28116e-08
-0.00060753
1.51388e-07
3.55029e-09
7.27845e-08
9.29557e-08
0.000848797
-4.35525e-10
1.64289e-06
-0.00143334
0.000167245
0.00538681
-0.000108541
-0.000206735
3.53518e-10
0.00635412
-0.0628755
1.45513e-08
-0.00103786
-2.88956e-09
-0.000107469
-6.09852e-05
-0.000819526
-8.02553e-09
0.0544109
4.69273e-10
-0.000218923
-7.17506e-05
-8.93419e-05
-4.86404e-05
-5.58213e-05
0.000354448
-1.13852e-05
4.07241e-08
0.000190491
-8.8775e-05
-8.6743e-05
-4.23191e-05
-7.68856e-05
1.31518e-09
-0.000540319
4.48894e-10
1.66047e-07
1.3909e-07
-0.000360384
4.883e-08
-6.89839e-05
0.000242661
-0.000160229
-6.2173e-05
-0.000628521
-0.00010845
-8.74879e-05
1.67129e-07
2.90337e-11
4.45019e-08
2.13634e-07
1.0573e-07
-0.000892596
3.57057e-06
3.35703e-08
1.61268e-10
-4.79753e-05
-5.294e-05
-7.95641e-05
-9.51562e-05
0.000387311
24.7328
0.00245409
0.00499453
-5.29342e-06
2.57296e-07
2.86609e-08
2.89021e-05
2.44137e-05
8.01813e-08
-0.00154068
-0.000474584
-9.70529e-05
-1.05856e-08
-8.69387e-05
-4.15841e-05
1.90172e-07
-1.89681e-05
5.37421e-09
1.63859e-07
-9.45619e-06
-1.99142e-05
-6.79453e-05
1.56265e-07
4.35162e-09
-0.000115813
1.11622e-07
-6.85209e-05
-6.56744e-05
3.09358e-07
3.10625e-05
6.67694e-08
-0.00027675
4.32382e-08
5.20479e-08
7.65439e-08
-2.03617e-05
0.0417498
8.69949e-10
0.000189161
0.00456597
1.22143e-08
5.37047e-09
9.02496e-07
-2.6899e-05
-6.2658e-05
9.63852e-08
1.43291e-07
3.95728e-08
-0.000579549
0.00982622
-7.38092e-05
-5.59407e-06
2.63892e-08
5.85381e-08
3.59801e-05
3.88244e-07
-7.43149e-05
0.00157841
8.12794e-11
-1.0363e-05
-1.54616e-09
-8.74859e-05
-0.000149827
3.3697e-06
-3.44265e-05
4.3716e-07
-8.32053e-05
5.56953e-06
0.00250293
0.00162049
9.12719e-05
6.29804e-09
-1.82411e-08
-0.00303938
0.000444563
-9.5322e-06
-7.51854e-05
-1.62616e-08
1.04355e-07
1.09394e-07
-7.95638e-05
-5.38724e-07
0.000516169
-1.98451e-05
-5.992e-05
-4.31368e-05
-5.44049e-05
-7.29195e-08
-4.41266e-05
4.9413e-05
8.9229e-09
7.63719e-09
-4.17651e-05
4.84572e-08
0.00321057
-0.000814135
5.56971e-10
-0.00021847
-0.00168292
-1.46559e-07
-5.08498e-05
1.39814e-08
1.9218e-08
-1.19628e-06
-0.000145785
-0.00588432
0.000146793
-6.17386e-07
1.08393e-07
8.22277e-05
-2.92335e-12
-7.61963e-05
2.15185e-07
-0.000662331
-0.000100547
1.72867
1.8011e-05
-0.000429944
4.00455e-08
-3.9016e-06
3.37302e-05
-6.42812e-05
-1.69792e-05
-5.43106e-05
4.32105e-08
-9.73855e-05
-0.000170915
-0.0461046
-0.000638796
-7.05824e-05
4.0164e-06
-6.70957e-05
2.12012e-05
-5.28956e-05
1.49441e-07
-0.00010016
-6.14145e-05
0.00392439
7.09837e-08
0.00234556
-1.83068e-06
1.28796e-07
5.17162e-08
0.000151333
1.57334e-07
0.0264735
-4.40744e-05
9.97234e-05
0.0560458
-1.58099e-05
3.48103e-08
0.000222624
-3.25444e-05
1.54653e-08
0.000437959
0.0222298
-2.83473
-3.58268e-08
0.0014155
1.87079e-09
-0.000102676
4.15171e-08
-4.86723e-05
4.17545e-08
3.25074e-07
1.10644e-09
-4.27592e-05
0.0144965
-7.34594e-05
-5.2613e-05
5.27692e-05
-5.52863e-09
-0.000324568
-0.000101152
-7.04436e-05
-5.76122e-05
-4.02265e-05
-2.13897e-08
4.48116e-09
0.0108229
4.62352e-08
-5.20636e-05
-5.72506e-05
-0.00409344
-5.42579e-05
-6.93671e-05
-5.7221e-05
6.31206e-05
1.4308e-07
3.00076e-05
-0.000157313
-4.62247e-07
3.1478e-07
-1.90167e-05
1.28567e-07
2.31743e-09
5.03149e-08
0.00019912
9.06622e-09
-8.74934e-08
0.00258557
4.34442e-08
2.12117e-08
2.01928e-07
5.93176e-10
2.00729e-07
1.24968e-09
-4.70231e-05
-6.91683e-05
-8.97705e-05
3.50324e-09
0.0707291
-0.000180316
2.33932e-08
-5.5555e-05
1.40921e-07
9.13738e-08
7.72509e-08
-0.000123394
-6.60845e-05
-0.000120893
0.00190361
5.17244e-08
0.000160314
0.000117708
-7.25268e-05
1.44784e-07
-1.43232e-05
-4.89683e-05
-1.60767
-6.83864e-05
3.03283e-08
0.00456987
-4.14258e-05
6.14654e-08
0.00102672
7.1221e-08
8.01252e-06
0.0967953
-6.63786e-05
0.110268
1.29063e-08
0.682463
-8.85281e-06
0.00192456
-9.75676e-05
6.02665e-09
2.0508e-08
-8.8165e-08
4.42601e-08
-0.000115782
1.04826e-06
-5.53738e-05
-8.03729e-05
1.28974e-08
2.26734e-05
-2.20667e-12
-8.2168e-07
-6.86966e-06
-0.00093535
0.16134
4.69081e-09
1.72647e-08
2.73392e-05
-7.22237e-05
-4.79769e-05
-0.00294031
8.87009e-06
-3.90093e-09
0.0412797
0.00052125
1.58031e-08
6.5817e-09
5.48091e-07
5.40402e-11
-6.12905e-05
-9.45004e-06
7.39258e-09
-3.75939e-06
-7.12983e-05
5.4213e-09
-0.000105073
-3.72269e-06
-1.54026e-05
-3.64754e-05
1.43608e-08
-0.000856812
1.69558e-08
-5.15498e-05
5.27031e-08
3.58867e-05
1.46581e-07
1.13444e-06
5.64085e-09
-0.000102959
-5.21034e-05
1.58307e-07
1.51359e-11
-5.73531e-05
-0.00749211
0.00285703
-5.52432e-05
-0.00123372
2.74912e-08
6.98398e-09
8.02087e-05
2.38992e-05
0.00247842
0.000154892
6.98939e-07
2.19211e-06
-6.26374e-05
1.34235e-11
-3.45166e-05
8.36257e-09
-0.000528609
2.11825e-08
2.93042e-09
1.44028e-07
5.52708e-08
0.000190911
-0.000243301
0.0138849
-0.00158761
-2.93818e-06
-5.81961e-05
4.72574e-08
1.92045e-07
1.13384e-08
0.00209707
3.76209e-08
2.98099e-05
1.73393e-09
-2.52016e-07
-1.75022e-05
6.14998e-06
-6.07976e-05
-6.21674e-05
-5.13875e-05
3.3142e-08
0.000893322
0.0855206
-0.000100841
-0.000495175
1.45823e-07
1.04787e-07
-4.90824e-05
9.96399e-08
4.82487e-05
2.05266e-08
0.000788588
8.91341e-08
9.31497e-05
3.18669e-08
-2.30327e-09
-6.61225e-05
-4.5804e-05
6.94271e-05
4.82133e-08
3.28384e-08
-4.35365e-05
-7.42023e-05
4.17094e-05
0.0018024
1.93459e-07
-1.75255e-06
-0.0612463
1.71656e-05
-2.64027e-06
-2.84007e-05
-0.000417684
-0.00276016
-3.3491e-05
-1.638e-05
0.0130022
-5.84126e-05
0.000601617
-5.13406e-05
0.000108165
5.82045e-07
0.00575945
1.82538e-09
1.7156e-07
-2.42839e-05
-0.000400001
-6.08204e-05
-3.04903e-08
-1.5829e-05
-0.00114299
-6.66201e-05
-0.000115945
0.000767686
5.41083e-08
-8.48281e-05
-0.000108034
0.000205042
-7.45356e-05
2.91633e-07
-9.45657e-08
-6.39054e-05
-0.00116264
-7.2682e-05
0.00723968
-0.00297118
-6.62758e-05
-4.8014e-05
7.61132e-07
-5.39986e-05
1.98591e-08
5.51722e-08
-8.95669e-05
1.31816e-07
2.04394e-08
9.13251e-08
5.46762e-07
-0.00131137
-0.000357761
-6.1455e-05
-6.42213e-05
-0.000248791
6.25799e-08
-7.38311e-05
3.25968e-07
-1.57088e-09
-6.56471e-05
0.00585718
6.75925e-10
2.35927e-08
0.00023874
-0.00706779
7.75201e-07
-8.82407e-05
0.0848205
-0.00173367
2.08338e-07
-0.000836485
8.26351e-08
3.39092e-07
-4.36348e-05
1.65278e-08
-0.00100653
0.000112908
1.40659e-08
0.00213868
-6.87099e-05
1.02049e-07
4.16746e-09
2.0177e-07
2.92559e-10
1.47528e-07
-3.16081e-05
1.83184e-08
6.05876e-06
-3.42967e-05
2.06118e-09
-6.11668e-05
6.70993e-08
-4.02577e-05
-0.00229024
-8.42396e-05
-5.19965e-05
-6.40893e-05
-1.38585e-05
-4.59049e-05
1.212e-09
-6.9924e-05
-2.91296e-08
0.00168368
0.0201637
0.000540681
-7.49363e-05
5.35544e-05
0.313979
-1.69268e-05
3.02793e-09
-0.00386935
-7.45911e-05
8.70484e-09
-9.51088e-05
9.71317e-08
-6.60551e-05
0.0212704
-0.000681379
-2.0708e-05
-4.86965e-05
-2.67704e-05
8.60922e-05
5.74327e-05
2.3743e-08
0.000156996
0.00396178
-0.000102406
-0.000376968
3.12823e-10
-0.0018109
-0.00230717
5.96626e-08
-2.03481e-05
1.46243e-08
-4.53722e-05
-0.00049323
-7.30015e-05
1.08329e-08
3.84764e-10
-3.82244e-05
0.00228169
5.15135e-09
-9.66806e-08
0.0182867
2.92735e-09
-0.000289327
-5.17484e-05
-6.37057e-05
-5.41281e-05
0.000676823
-4.63262e-05
-6.27466e-05
0.00108433
-0.000228581
-0.000123606
1.91934e-07
1.46045e-07
-0.000118087
1.77576e-09
-6.05685e-05
0.0585655
4.67611e-06
2.82816e-08
-6.07647e-05
-6.23334e-05
-7.80147e-05
0.000420121
6.66015e-09
-7.76974e-05
-5.00341e-05
3.1555e-08
-6.63883e-05
-0.000133206
-4.31082e-05
-0.00594387
1.3176e-08
1.3482e-07
-6.76152e-09
5.07057e-08
1.44644e-07
1.19216e-11
0.000181015
1.58742e-05
-5.36689e-05
5.29121e-08
-0.00213619
5.55462e-09
-8.13272e-10
-9.13808e-05
0.000136299
-0.000133598
-5.76046e-05
1.33895e-07
1.78384e-08
6.27344e-05
0.00526656
1.72212
3.21561e-07
-0.000511941
0.000140057
2.36873e-05
8.05578e-08
-0.00095431
-7.66501e-05
5.5587e-10
-4.23188e-05
0.00236114
-5.15784e-05
-5.46886e-05
-4.89682e-05
3.20506e-08
-5.45837e-05
0.000258288
0.000164579
0.000401218
-6.42973e-05
0.00291839
-0.00032532
-0.000426997
-7.13717e-05
1.02371e-11
-4.17465e-05
-1.36077e-05
-6.75839e-05
-5.00287e-05
-4.13551e-05
1.41082e-07
-3.79038e-05
7.71604e-07
-2.5134e-07
1.00299e-06
-6.16779e-05
4.01635e-10
0.0157765
-6.17872e-08
2.64511e-05
-0.0199163
-4.6877e-08
-6.02163e-05
-5.03179e-05
2.03834e-08
6.55118e-09
3.29706e-08
-5.66753e-05
-7.60802e-05
2.3817e-07
-8.32965e-05
1.73022e-07
5.0741e-05
-7.10832e-05
-5.54108e-05
-0.000757827
4.3844e-07
-2.06774e-05
-7.18833e-05
-0.000101855
0.000415149
-6.71173e-05
-8.35596e-05
-4.43453e-06
4.6204e-09
-4.58534e-05
-0.00108934
-0.000111628
0.0122249
-3.91116e-08
-2.19059e-10
0.00499465
3.31306e-08
-0.000112514
1.32769e-08
-6.99905e-05
4.39168e-07
-4.08128e-05
-4.85686e-05
-2.11979e-05
-9.51073e-06
0.0443548
1.02247e-07
7.58875e-08
-0.00230747
-4.14727e-05
8.24767e-10
-0.00215442
-4.53246e-05
-4.7633e-05
-6.92662e-06
-1.07773e-05
9.79158e-08
0.000983813
6.96985e-05
-6.49118e-05
-0.000196643
-0.000115635
-7.43567e-05
-7.34872e-05
-8.35033e-05
-8.34239e-05
2.19963e-08
9.96687e-08
2.92534e-09
-6.63249e-05
-6.81618e-05
2.87522e-09
7.30649e-08
-2.84486e-05
-7.78978e-05
-0.000162666
0.000103123
0.000350512
-0.000110911
0.0020372
0.000501005
1.82295e-08
-4.15905e-05
-5.88744e-05
-5.66517e-05
7.38524e-08
-2.24884e-05
1.22012e-07
-5.02994e-05
-5.49764e-05
-0.00063679
-3.72438e-05
0.00110075
-4.95341e-05
1.15196e-05
0.000211763
-4.41504e-05
-7.06293e-05
1.16124e-08
-6.78305e-05
-4.97316e-05
1.28881e-06
-0.000471342
6.10736e-08
7.87785e-06
1.03607e-07
-4.22178e-05
0.000772645
7.25985e-06
0.000513492
2.50331e-10
-0.0382253
-0.00337095
-4.80335e-05
-3.71494e-05
1.74418e-06
1.04983e-07
-0.00220959
-7.2182e-05
8.29733e-08
2.6985e-09
-6.71247e-05
0.000742083
0.000316418
0.00337573
1.42619e-07
-3.24276e-05
1.70153e-07
-0.001651
1.98181e-07
4.15824e-06
-3.93567e-05
-7.05352e-05
-2.41338e-06
-0.000162932
-4.463e-05
1.44809e-07
-0.000460898
-2.52611e-05
-3.65645e-05
-5.70716e-05
2.19756e-08
7.45336e-10
1.8401e-05
-2.70766e-05
0.000251388
1.66416e-07
0.00108305
1.72842e-10
-7.71274e-05
9.90835e-09
3.31978e-08
8.76032e-09
1.77441e-07
-0.000127221
-0.000902969
7.19041e-08
8.35725e-08
-9.29168e-07
-9.66702e-06
-0.000239864
-6.78387e-05
-0.000123328
-5.35578e-05
1.92315e-09
-8.27213e-05
7.95435e-07
-1.67205e-05
2.40155e-05
8.17806e-08
7.78256e-09
1.55414e-08
1.56995e-08
-0.000121646
2.04257e-07
4.07934e-08
-0.0376182
-0.00659643
4.37059e-11
8.43719e-08
2.60298e-08
0.0349014
0.0443688
-7.00119e-05
0.0111946
-5.34674e-05
-7.15259e-05
-8.64528e-05
0.0014289
-1.87346e-09
4.21306e-09
-8.36612e-05
-0.000276816
-7.90447e-05
6.59054e-08
0.00700176
-5.22188e-05
7.05046e-05
-7.27028e-05
-5.17283e-05
-4.82913e-05
4.56288e-08
-6.74138e-05
0.00171076
1.76697e-07
1.97624e-07
9.01878e-09
-0.000660537
-1.94773e-05
0.00966806
-4.10975e-05
0.000460614
2.10784e-07
-6.79707e-05
6.47615e-08
-5.34198e-05
-2.60477e-08
-2.51274e-05
0.0259689
0.000567598
-7.07496e-05
4.60869e-05