/*--------------------------------*- C++ -*----------------------------------*\
| =========                 |                                                 |
| \\      /  F ield         | OpenFOAM: The Open Source CFD Toolbox           |
|  \\    /   O peration     | Version:  v2012                                 |
|   \\  /    A nd           | Website:  www.openfoam.com                      |
|    \\/     M anipulation  |                                                 |
\*---------------------------------------------------------------------------*/
FoamFile
{
    version     2.0;
    format      ascii;
    class       surfaceScalarField;
    location    "200";
    object      ddtCorrDdt0(phi);
}
// * * * * * * * * * * * * * * * * * * * * * * * * * * * * * * * * * * * * * //

dimensions      [0 3 -2 0 0 0 0];
oriented        oriented;


internalField   nonuniform List<scalar> 
22717
(
1.239e-08
1.23232e-08
-2.48586e-08
5.03964e-07
1.16586e-06
-1.66999e-06
1.46261e-07
-1.66972e-07
2.04075e-08
2.51246e-07
-1.32635e-08
-2.37962e-07
-1.86702e-07
2.78351e-07
-9.46172e-08
1.47439e-07
-2.2546e-07
7.75906e-08
8.62366e-07
1.73213e-07
-1.03579e-06
-2.77037e-06
3.97577e-06
-1.20538e-06
-6.42926e-08
-4.97574e-07
5.6169e-07
-9.79146e-10
1.33726e-08
1.47242e-07
-1.14619e-09
-2.34921e-07
-5.43505e-07
1.1254e-07
-2.9686e-07
-3.63112e-08
6.38891e-07
-6.02883e-07
9.81044e-08
1.16136e-06
-1.25945e-06
-1.84031e-07
1.22518e-06
-1.04117e-06
-2.84496e-07
-6.12065e-07
6.77207e-07
-6.55451e-08
2.79723e-07
-3.40349e-07
6.05982e-08
1.58766e-05
-1.5594e-05
-2.90337e-07
5.1034e-07
-1.71167e-07
-3.39166e-07
3.85722e-07
1.24657e-07
8.30259e-07
3.21514e-08
-1.53304e-07
3.05161e-07
-1.51868e-07
-3.42096e-07
7.36907e-07
-3.95873e-07
-5.68205e-07
8.0402e-07
-2.37016e-07
-2.61309e-07
2.61869e-07
3.16606e-07
-8.87103e-07
2.86585e-07
-2.65555e-07
-2.28964e-08
1.73498e-07
-2.95331e-07
1.20915e-07
-1.98789e-07
1.98174e-07
1.77488e-06
-2.12378e-06
3.4868e-07
-1.21561e-09
1.38143e-08
-3.58431e-07
1.52566e-07
2.05922e-07
-4.13426e-07
2.56793e-07
1.56476e-07
1.5671e-07
1.31019e-06
-1.46576e-06
-4.20653e-07
5.80118e-07
3.31279e-06
-6.15266e-06
2.83271e-06
-5.8399e-07
5.46834e-07
3.68268e-08
1.08306e-06
-1.74194e-06
6.57871e-07
9.31893e-07
-1.05693e-07
-8.26356e-07
1.76484e-07
9.701e-07
-1.14695e-06
2.32489e-07
3.51169e-08
-2.67896e-07
8.75101e-07
-6.3562e-07
-2.39555e-07
-1.34726e-07
-8.57411e-09
1.43002e-07
-2.33319e-09
-1.08633e-07
1.10824e-07
5.49863e-06
-1.31435e-05
7.64878e-06
1.97649e-07
1.88657e-06
-2.08412e-06
-6.92147e-07
6.55637e-07
-2.74186e-07
4.47516e-07
-1.73573e-07
-3.2472e-07
1.71385e-07
-1.19607e-06
-4.68463e-07
1.66448e-06
2.35015e-07
-4.19038e-07
-1.2473e-08
2.03298e-07
2.21268e-07
-4.24782e-07
-1.09743e-06
7.82936e-07
3.14574e-07
-4.40911e-07
-3.49734e-08
4.74144e-07
4.6343e-07
-1.65977e-06
2.04167e-07
2.75492e-07
-4.82182e-07
-1.40892e-07
1.48031e-07
-7.17812e-09
1.28578e-08
-6.03957e-07
5.9097e-07
-1.55217e-06
1.74969e-06
-2.60871e-07
6.5468e-08
1.95591e-07
1.29789e-07
-2.37339e-07
1.09751e-07
6.11245e-08
3.07038e-07
-3.68247e-07
5.60622e-07
-7.95604e-07
-3.02304e-06
2.00498e-06
1.016e-06
2.17267e-06
-3.98032e-07
-2.74267e-07
-1.93108e-07
4.6731e-07
-1.36811e-08
-2.50594e-07
2.64181e-07
8.55726e-07
-6.36742e-07
-2.19325e-07
-2.16719e-07
5.01333e-07
-2.8633e-07
1.08639e-07
-4.50331e-07
8.01302e-07
-8.10127e-07
8.7165e-09
1.67513e-06
-2.69118e-06
1.01564e-06
4.63768e-07
-4.10874e-07
-5.32937e-08
5.10385e-07
4.21431e-07
6.56508e-07
-7.29897e-07
7.33096e-08
-9.92643e-07
-2.08517e-08
1.01319e-06
-1.69294e-08
2.08264e-08
-4.09954e-09
-1.4856e-08
5.13521e-08
-3.80757e-08
-3.41845e-07
3.40282e-07
1.54251e-08
-2.99374e-08
1.39037e-08
7.36824e-09
-1.12105e-06
1.11324e-06
-7.32712e-08
-1.28246e-07
1.53681e-07
-1.56098e-07
-1.0648e-07
3.86199e-07
4.08481e-07
-2.37769e-07
-1.70769e-07
-1.24924e-06
2.78625e-07
9.70461e-07
-1.15423e-07
4.22088e-08
7.43835e-08
-3.79723e-07
9.19983e-07
-5.40616e-07
-7.33192e-07
8.56648e-07
-1.23631e-07
-1.19964e-07
3.88067e-07
-2.64661e-07
4.01157e-07
-1.99686e-07
-7.33703e-08
-4.57905e-07
5.30986e-07
1.75513e-07
-9.63015e-08
-7.93647e-08
-4.12535e-07
-1.03383e-07
5.15782e-07
7.82278e-11
2.29679e-07
-2.29886e-07
-1.74545e-08
1.74523e-10
2.25564e-07
6.87465e-09
3.56987e-07
1.06046e-07
-1.32371e-06
3.49766e-07
9.73662e-07
1.07097e-06
-9.37774e-07
-1.33348e-07
-3.45199e-07
-3.26531e-07
6.71607e-07
-6.01658e-07
5.37187e-07
-2.62892e-07
4.66106e-07
6.21752e-08
-1.89191e-07
1.26737e-07
2.24533e-07
-6.35545e-07
4.0316e-07
-1.15801e-07
4.22714e-07
-3.06169e-07
-7.11953e-07
1.5307e-07
5.58523e-07
-1.02798e-06
6.00754e-07
4.27175e-07
-1.6643e-07
1.40554e-07
2.60276e-08
2.47883e-07
-7.91493e-07
1.83476e-06
-6.09575e-07
2.15845e-07
1.92616e-07
7.01369e-07
1.5425e-07
2.85535e-06
-2.97554e-06
-1.16575e-07
2.00882e-09
6.05572e-07
-4.29123e-07
-6.95003e-08
6.26258e-08
9.70982e-09
2.69271e-06
-2.18639e-06
-5.06573e-07
7.91286e-07
-8.3822e-07
4.6596e-08
2.0425e-06
-2.76232e-06
7.19097e-07
1.85928e-07
-4.97204e-08
-1.36749e-07
2.50178e-07
-1.2464e-07
-1.25596e-07
1.52561e-08
-4.51831e-07
-4.72076e-08
5.94855e-09
4.10294e-08
1.41984e-07
2.05606e-07
-4.67702e-07
2.61944e-07
1.18025e-07
-8.5133e-08
-3.30948e-08
-1.5187e-07
1.69016e-08
-1.9287e-07
1.72637e-07
2.01298e-08
-1.48548e-07
-1.55008e-07
3.01567e-07
5.95182e-07
6.12351e-08
-6.03601e-08
1.20715e-07
-6.04901e-08
-2.83693e-08
4.3534e-08
4.9086e-07
-2.05729e-07
-1.55369e-07
-1.04421e-07
-8.04566e-07
-1.96563e-06
-8.90645e-07
5.10732e-07
-9.01686e-07
-3.4769e-07
-2.66024e-07
-1.06486e-07
3.72161e-07
-1.32532e-08
-2.71111e-07
-2.72947e-07
7.48264e-07
-4.75851e-07
-1.48073e-05
1.81197e-05
-7.34918e-09
8.0877e-07
6.25428e-07
-6.20113e-07
-2.94311e-07
-7.63978e-07
1.06065e-06
2.75507e-08
-4.95525e-08
2.19587e-08
-3.63814e-07
-2.95705e-07
6.59235e-07
-2.04723e-06
1.86916e-06
1.77677e-07
1.68585e-07
8.12377e-08
-5.60121e-07
4.86624e-07
7.87013e-07
-8.86201e-07
9.84679e-08
-1.54954e-08
1.38985e-08
1.90208e-09
-1.53501e-06
1.2817e-06
2.52957e-07
-6.70966e-09
-5.77686e-07
7.10662e-07
-6.21681e-07
-8.74349e-08
-1.48027e-06
1.26708e-06
2.12807e-07
-2.09304e-08
5.78431e-09
1.02785e-07
-2.32348e-07
1.29002e-07
2.619e-06
-5.76715e-07
2.34331e-07
4.12186e-07
-6.46984e-07
-4.95405e-07
5.20734e-07
-2.53518e-08
2.3234e-07
-2.66313e-07
3.33909e-08
2.4253e-07
-1.02516e-08
1.54302e-07
-2.92326e-07
1.37939e-07
1.73968e-06
-1.01712e-06
-7.21052e-07
-1.38514e-06
6.861e-06
-2.0868e-05
-3.21311e-05
5.30014e-05
8.49627e-08
1.74972e-06
-1.04095e-06
1.28342e-06
-2.42612e-07
3.21657e-08
-1.94964e-07
1.61392e-07
-4.21569e-07
5.78838e-07
-1.56788e-07
1.32798e-08
7.49253e-09
-6.502e-09
-2.31879e-08
2.95831e-08
2.97056e-06
-2.42193e-07
-2.72815e-06
-1.46047e-05
-6.25997e-06
8.63704e-07
1.82878e-06
8.79768e-08
-5.09121e-07
1.74093e-06
7.03002e-07
-6.89837e-07
8.58992e-07
-4.17421e-07
-4.42361e-07
4.79687e-07
3.78836e-07
5.77316e-09
-3.37523e-07
3.31485e-07
-5.73406e-07
-1.52119e-07
7.25389e-07
-4.62014e-08
2.98935e-07
-1.88743e-08
3.84298e-08
7.95225e-08
-1.03386e-07
1.46769e-07
-4.36656e-08
1.07096e-06
-1.75241e-07
-8.74142e-07
6.89439e-07
9.08233e-08
-7.80408e-07
-4.81715e-07
5.90692e-07
-7.13857e-07
4.34184e-07
2.82662e-07
2.40334e-07
-1.37888e-06
1.14039e-06
8.14068e-08
5.41295e-08
-1.35466e-07
1.40808e-07
-1.64631e-07
2.35118e-08
-2.64403e-07
1.26752e-07
1.37317e-07
-1.56013e-07
2.68292e-07
-5.98343e-07
1.85589e-07
1.57036e-07
-3.06577e-07
-2.9156e-07
4.49069e-07
-1.57137e-07
1.29206e-07
-1.62926e-07
3.35526e-08
1.75831e-07
-1.84031e-07
6.84062e-09
-9.48533e-07
1.39689e-07
8.08514e-07
-2.93365e-08
2.28977e-08
4.3107e-08
-1.97257e-07
1.54653e-07
-6.6185e-08
2.07578e-07
-1.41692e-07
-4.38535e-07
2.37507e-07
2.01373e-07
-4.8988e-07
7.54899e-08
4.14437e-07
-2.02326e-07
-2.22598e-08
2.24512e-07
8.0541e-07
-1.88592e-08
2.75221e-07
-1.02314e-07
1.2186e-06
-7.25826e-07
-4.96812e-07
3.45672e-07
-3.01738e-07
6.32004e-09
6.66396e-08
-2.11445e-06
-6.90728e-07
9.79918e-07
-2.89289e-07
-5.43943e-08
-2.8578e-07
3.58018e-07
2.40028e-08
1.61945e-07
-1.27589e-07
1.70934e-07
-4.33702e-08
-7.73243e-07
5.94419e-07
1.79093e-07
-1.07164e-06
7.53622e-07
3.17666e-07
-2.02244e-07
4.35696e-08
1.55723e-07
4.22315e-07
1.38154e-06
-1.8038e-06
1.01216e-07
-2.98871e-07
1.97554e-07
4.14848e-07
-4.11802e-07
9.27401e-07
-4.68924e-07
-4.58879e-07
3.44958e-06
-2.16556e-06
-1.28412e-06
1.57616e-07
-1.44202e-07
-1.35917e-08
1.25036e-07
7.36642e-08
-1.98812e-07
-7.02164e-07
9.82921e-09
-5.4789e-08
6.12715e-07
-5.52345e-07
-8.43801e-07
-2.7244e-07
-3.05111e-07
5.77402e-07
-3.93428e-07
-8.75643e-07
1.84738e-07
-1.44514e-08
-1.78207e-08
3.21494e-08
-8.10088e-07
9.86463e-08
1.37465e-06
-1.2257e-06
-1.48929e-07
2.38182e-07
-3.54095e-07
-8.13911e-07
-2.43971e-08
-7.12178e-07
1.78087e-07
5.3394e-07
1.43232e-07
-1.41933e-08
4.06928e-08
1.42994e-07
-1.8378e-07
4.13026e-07
-3.11222e-07
-1.0281e-07
3.97534e-08
-1.80925e-06
1.86195e-06
-5.30541e-08
-1.98909e-06
1.79447e-07
2.04493e-07
-2.84845e-08
-1.07281e-05
8.8458e-06
1.88261e-06
-1.58014e-07
-3.49296e-08
-1.70434e-07
-4.4986e-07
6.84001e-07
7.01668e-07
-4.30387e-06
3.6019e-06
-5.66845e-07
-3.23655e-07
-8.64006e-08
3.32815e-08
5.26389e-08
-2.60046e-07
2.46278e-07
-8.97032e-07
-5.17582e-08
-1.56114e-08
1.53214e-08
-1.29107e-08
1.19502e-08
1.01021e-09
-3.06956e-07
1.7856e-07
1.28324e-07
1.82435e-07
-3.50676e-08
-3.88995e-07
1.14711e-07
-3.04335e-07
5.05528e-08
2.53635e-07
1.21211e-07
-1.60177e-06
5.52347e-07
-5.51451e-07
-1.14682e-09
5.11841e-08
-1.52792e-07
-2.03823e-08
1.73093e-07
-1.305e-06
1.40307e-06
-2.88345e-07
2.93881e-07
-3.0863e-09
5.55225e-07
1.37032e-07
2.0522e-08
-3.92063e-07
5.21739e-07
-1.2998e-07
-2.68642e-07
3.35925e-07
-6.76196e-08
1.36086e-07
1.43339e-07
-2.79417e-07
6.66281e-07
-1.10389e-07
-5.56325e-07
2.10554e-07
-8.00134e-08
4.77434e-07
6.38694e-07
-3.40037e-07
6.36877e-08
2.76282e-07
-1.40973e-07
-2.1648e-07
3.57338e-07
-8.57416e-07
2.90532e-07
9.09037e-07
-6.61673e-07
-2.47558e-07
-1.01752e-07
1.29359e-07
-1.41519e-06
-1.19993e-07
-5.13248e-07
-3.40684e-07
8.53693e-07
1.54944e-07
8.38058e-08
-2.38559e-07
2.82454e-07
1.45514e-07
-4.27867e-07
2.47229e-07
-4.94449e-09
-3.42849e-08
-6.98999e-07
1.12668e-07
6.85065e-08
-1.80783e-07
9.37866e-07
-1.20019e-06
2.61901e-07
-1.65504e-07
-2.73147e-07
4.38337e-07
-5.60534e-05
-1.24892e-07
-1.82127e-07
-6.0327e-07
-6.46635e-07
1.24965e-06
-1.46971e-07
-2.66529e-07
-5.06899e-08
-3.58127e-08
9.63302e-08
-1.45634e-07
1.13964e-06
2.34619e-07
2.10009e-07
2.36327e-07
-4.46362e-07
-1.3393e-06
1.73918e-06
-4.00853e-07
4.61015e-08
3.79489e-08
-8.41842e-08
2.08143e-08
-1.0136e-06
2.01949e-07
4.52722e-08
-3.76323e-08
1.92395e-06
-2.28537e-06
3.61126e-07
-2.59518e-07
1.09236e-07
1.48407e-07
-1.83767e-08
-1.412e-08
3.20943e-08
-4.69312e-07
1.39012e-07
3.3028e-07
1.01267e-06
-1.00512e-06
-2.39696e-07
-1.63797e-06
1.87704e-06
2.35826e-06
-4.34462e-07
-2.3169e-08
1.7172e-07
-1.48634e-07
2.93341e-07
-2.17461e-07
-7.57016e-08
-3.19428e-07
5.89757e-07
-2.70418e-07
1.13456e-05
-8.00744e-06
-3.33826e-06
4.46103e-07
-4.97926e-07
1.39361e-06
-3.2143e-07
-2.52092e-07
3.13141e-07
3.49764e-07
-3.4938e-07
-2.23716e-07
1.696e-07
5.41134e-08
5.69724e-07
-8.96566e-08
-4.79877e-07
8.38741e-07
-3.38476e-08
-1.24236e-08
3.77897e-08
-2.6177e-08
9.26506e-07
2.52297e-06
4.77353e-07
2.40437e-07
-7.17891e-07
1.48823e-07
-5.12763e-07
-1.5497e-08
-2.10851e-09
-3.73228e-07
5.83547e-07
-1.11051e-07
-1.47824e-07
2.58986e-07
2.14568e-08
-1.84401e-06
1.82234e-06
3.4648e-07
-2.31832e-07
-1.17947e-07
-1.53746e-06
2.14293e-07
1.21853e-07
-4.13147e-07
1.67858e-07
-5.60186e-07
-9.16424e-08
-1.69641e-07
-1.03733e-07
8.68717e-08
1.64347e-08
-5.97979e-07
-4.99777e-07
-6.24788e-07
7.75525e-07
-1.50846e-07
1.22498e-07
-9.80851e-08
-2.47457e-08
-7.91963e-07
1.67152e-07
-8.92745e-07
3.45179e-07
5.47605e-07
-1.92535e-07
-6.74973e-08
-2.69147e-07
-8.93345e-08
-1.68776e-06
-1.68322e-06
3.36826e-06
2.53084e-07
-1.68271e-07
-8.51211e-08
-2.68595e-08
2.77957e-07
-5.50988e-07
-5.71344e-09
-1.27422e-08
-3.88157e-07
1.69563e-07
3.25342e-05
-6.46586e-05
-1.74822e-07
1.78897e-07
-5.15949e-09
-1.75626e-07
4.80938e-08
2.12844e-07
-1.66522e-07
-4.63794e-08
1.39817e-07
3.23757e-07
-4.63747e-07
-4.21096e-07
8.42026e-07
-4.20609e-07
-3.37718e-07
9.24264e-07
-5.86758e-07
1.05457e-07
-6.18876e-07
1.04006e-06
-7.92594e-07
-2.47336e-07
6.3832e-07
2.70687e-07
2.37687e-06
-1.99003e-06
-3.8707e-07
1.48681e-07
-2.15375e-07
-3.44547e-07
1.16026e-05
7.01849e-07
8.93255e-09
7.23639e-07
3.16396e-07
6.00833e-07
-1.79839e-07
-4.21321e-07
1.29605e-07
-7.17942e-08
-5.7828e-08
-2.29165e-06
9.53041e-07
-3.7628e-07
1.01954e-07
4.52163e-07
3.8524e-08
-4.91053e-07
-1.9747e-06
1.84203e-06
1.3265e-07
1.48489e-07
-1.71759e-07
-1.11548e-06
-1.77625e-06
1.59979e-06
1.76704e-07
-5.26415e-07
-5.45365e-07
-2.65697e-06
7.5696e-07
1.90259e-06
7.73384e-07
6.48394e-08
1.06337e-07
1.59204e-08
3.26692e-07
-4.92289e-07
2.95752e-08
-1.33314e-08
-1.6303e-08
-1.51376e-06
-1.51074e-06
1.11969e-07
-6.85371e-07
1.76912e-07
-3.99856e-08
-4.95047e-07
-5.32847e-07
-2.05925e-07
2.3827e-07
5.95139e-07
-3.3649e-07
-2.58773e-07
-1.11018e-08
1.64524e-07
-1.75814e-07
1.15383e-08
-3.09629e-08
-2.37701e-07
1.47641e-07
2.92451e-08
3.70362e-07
2.24697e-07
-2.51135e-06
1.94881e-06
5.62117e-07
4.08071e-07
4.40926e-07
-8.51772e-07
-1.33084e-06
-3.58801e-07
-9.39744e-07
6.04996e-07
3.34643e-07
-2.8865e-08
1.6859e-07
-1.39343e-07
-1.27061e-06
1.30647e-06
-3.59886e-08
-8.43934e-07
5.05992e-07
-4.20497e-07
-4.2354e-07
1.17585e-07
-2.54672e-08
-9.8865e-08
-2.99781e-07
7.77e-07
-4.36259e-07
-3.59856e-08
4.7214e-07
1.26264e-07
7.97679e-07
1.26426e-07
3.29617e-06
-3.42266e-06
-2.34714e-05
3.70764e-05
-1.36331e-05
-2.35769e-06
-4.85054e-07
2.84444e-06
1.11925e-06
-1.81357e-07
-8.7269e-09
1.02169e-06
2.51043e-07
-8.36322e-07
-6.38798e-07
-7.32571e-08
-2.9867e-07
6.36713e-07
-3.38331e-07
-6.9615e-07
3.7673e-07
-1.89997e-07
-3.36497e-08
-2.53209e-07
-3.23804e-07
5.7672e-07
-4.07049e-06
2.56822e-06
1.50469e-06
-4.59919e-07
1.93867e-07
5.08384e-08
-2.33129e-07
1.82072e-07
1.82543e-07
-1.79914e-07
-3.41913e-09
2.08123e-07
6.68338e-08
1.03609e-06
-7.57561e-07
5.75559e-06
-3.6225e-06
-2.133e-06
5.20618e-07
2.54716e-07
-4.75557e-07
5.3202e-07
-5.64487e-08
-4.42218e-07
7.94759e-07
-3.52757e-07
1.651e-07
-1.65018e-07
-1.56572e-07
-8.68827e-07
1.02534e-06
-1.87799e-06
6.66785e-07
1.21236e-06
-3.90773e-08
-3.00284e-08
6.88864e-08
-2.23122e-07
1.0963e-06
-8.73399e-07
7.20087e-07
-7.02581e-07
-1.79329e-08
-3.99801e-07
1.04228e-07
1.25115e-06
-1.35164e-06
1.02408e-07
1.80411e-07
3.11979e-09
-1.83615e-07
2.58165e-07
3.89222e-09
-2.62165e-07
4.18021e-07
-2.12464e-07
-1.51695e-07
-8.55735e-07
1.00507e-06
-6.08794e-08
5.36648e-08
6.74983e-09
3.72696e-07
-3.23809e-07
-4.90179e-08
1.18168e-06
-1.16049e-06
3.3013e-07
5.60514e-07
-8.91088e-07
-3.52415e-07
9.54431e-08
2.57434e-07
-1.69697e-05
3.28558e-05
8.38123e-07
-3.17564e-07
-7.39349e-07
-1.36327e-07
-3.62493e-06
5.01207e-07
3.1237e-06
3.00508e-08
1.18547e-06
1.19588e-06
1.46012e-07
-4.18511e-07
1.80281e-07
2.6715e-07
-4.33216e-07
1.24146e-06
-8.08432e-07
5.03618e-07
-9.37107e-07
2.10351e-07
-2.6493e-07
5.43649e-08
4.28623e-07
-4.30355e-08
-2.72776e-07
-5.41115e-07
-8.86024e-07
1.4666e-07
2.56526e-08
-1.94225e-06
1.59863e-06
3.34669e-07
1.06027e-06
2.41735e-08
-1.20166e-06
-6.89715e-08
-8.35068e-07
4.13803e-07
4.74349e-08
5.22271e-07
-8.09132e-08
-5.41181e-07
6.21753e-07
-1.74329e-07
-9.01161e-08
1.73577e-07
2.46893e-07
-4.23147e-07
-2.22584e-06
1.98596e-06
2.11683e-07
-9.62757e-07
1.4665e-06
2.7065e-06
-7.02344e-07
-4.62555e-08
2.11104e-07
-2.28198e-10
3.189e-08
-3.16672e-08
-3.40868e-07
-1.28499e-07
-1.97245e-07
4.68971e-07
-2.8431e-07
-1.79747e-06
2.13124e-08
-7.55509e-08
1.68266e-08
5.79453e-08
-5.29939e-07
3.40609e-07
-6.23584e-07
4.22509e-07
-3.44783e-07
-1.02977e-07
4.60589e-07
4.27967e-07
-8.00549e-07
3.72045e-07
2.76826e-08
-4.37898e-08
-7.7259e-08
2.32983e-07
1.83423e-07
-4.10859e-07
2.27298e-07
-1.23764e-09
1.41728e-08
-1.30061e-08
1.0331e-07
-2.60953e-06
2.50554e-06
-1.25332e-07
3.52876e-07
-2.27677e-07
5.84539e-07
3.67118e-08
-6.21739e-07
-3.21592e-07
1.96431e-07
1.25116e-07
-2.75299e-07
1.90333e-07
8.69287e-08
-3.26916e-07
2.09408e-07
1.17413e-07
3.50418e-06
2.25139e-06
9.92235e-06
-1.63968e-05
6.45744e-06
1.25266e-10
-1.56174e-08
-6.02076e-07
-3.3776e-07
9.56113e-07
1.98528e-07
-1.47682e-07
2.07027e-07
-1.68389e-07
-3.83812e-08
3.34168e-08
-5.08244e-07
3.54402e-07
-8.36501e-07
4.81928e-07
-1.56606e-06
-1.92465e-07
-6.38828e-08
2.46525e-08
4.30222e-07
-4.94158e-07
6.38347e-08
1.45232e-07
1.6255e-07
-3.08057e-07
-1.28581e-09
-1.66866e-07
4.36888e-07
-2.70558e-07
-2.08786e-07
1.98792e-08
1.8774e-07
-8.16685e-07
9.42919e-07
8.84309e-08
4.11198e-08
1.09426e-09
-1.72931e-07
1.75446e-07
-2.51889e-09
2.9927e-07
8.41908e-07
-1.14087e-06
9.34146e-08
1.16831e-07
-2.09957e-07
1.05513e-07
4.45258e-07
-5.50952e-07
-5.09734e-07
1.18853e-08
-4.78611e-07
2.69596e-08
4.51558e-07
-8.99445e-06
-5.60816e-06
1.87922e-06
-2.06753e-06
1.8849e-07
6.16315e-10
5.30633e-09
-6.03582e-09
-4.2375e-08
1.65347e-06
3.96656e-07
-2.05003e-06
6.29914e-07
7.33546e-08
4.58196e-07
-1.01534e-07
1.69479e-07
4.83451e-08
-2.17499e-07
-2.02219e-06
2.1258e-06
-2.00315e-06
2.25873e-06
-2.55606e-07
4.37174e-08
3.0111e-09
-4.70124e-08
1.75969e-07
4.37849e-09
7.91082e-07
-3.63313e-07
1.59098e-07
1.69692e-06
-1.85609e-06
4.94948e-08
-7.80586e-08
-2.64908e-05
3.78364e-05
-6.7815e-07
7.06785e-08
-2.41746e-07
1.19664e-05
-1.28096e-05
-2.17005e-07
2.94101e-07
-7.71379e-08
4.97765e-07
-6.48143e-07
1.498e-07
-1.19486e-08
-5.92082e-07
1.91613e-07
4.72445e-07
-4.23339e-08
7.50653e-07
-4.01902e-07
-3.48831e-07
-5.36868e-07
4.26725e-07
1.1003e-07
2.4232e-08
1.36638e-08
-3.80058e-08
6.24588e-07
4.35252e-07
-4.20564e-09
4.65184e-07
-4.62428e-07
-1.56899e-05
2.60883e-06
1.04346e-06
-6.43422e-07
-4.00121e-07
1.042e-06
-3.08804e-07
-7.32937e-07
2.69333e-07
-2.20821e-06
1.95176e-06
-9.01006e-08
1.3029e-06
3.19871e-07
-1.62298e-06
-8.33972e-07
7.0269e-08
7.63035e-07
-6.43327e-07
1.2809e-07
5.15557e-07
6.00852e-07
6.14944e-07
-1.51167e-08
1.49126e-08
7.02366e-07
-2.94846e-07
-4.07888e-07
-4.61994e-08
-3.91486e-07
1.89624e-07
2.01485e-07
1.77023e-06
1.81232e-07
-3.46647e-07
-1.83303e-07
5.29846e-07
5.13708e-07
3.10382e-07
-8.24374e-07
-5.68015e-07
5.57273e-07
1.06609e-08
-4.5541e-07
1.13822e-07
1.31816e-06
-1.98394e-06
6.65952e-07
-6.19943e-07
4.66541e-07
1.3296e-07
6.1206e-07
-7.3176e-08
-5.40541e-07
5.46641e-07
-2.78374e-08
-5.19096e-07
-8.99107e-08
3.46617e-07
1.20375e-07
-2.31104e-07
-6.95075e-09
2.04548e-07
-2.50317e-07
9.91916e-08
-2.56531e-07
-4.3321e-07
-1.03956e-07
2.36327e-07
-2.85769e-07
2.89827e-07
-1.4474e-07
6.17414e-08
6.38565e-07
-7.00704e-07
-1.16911e-07
4.77229e-08
6.88877e-08
2.33685e-07
-3.74715e-07
4.92642e-07
-2.54052e-07
-8.44052e-07
6.8748e-07
-7.58183e-08
-5.36469e-07
-6.2275e-09
1.80183e-07
-1.74339e-07
-1.4477e-07
1.68559e-07
-1.43641e-07
4.70196e-07
2.42113e-07
-3.36578e-08
-2.08018e-07
-6.31935e-08
1.22456e-06
-1.89731e-06
6.24064e-07
1.27295e-06
-3.61006e-07
4.30692e-07
-7.03071e-08
9.03671e-09
-2.59671e-07
-9.70108e-08
3.66721e-08
-3.63521e-08
3.50611e-08
-2.73919e-06
2.53343e-06
2.0523e-07
-6.71517e-07
9.47241e-07
-2.75723e-07
-6.45934e-07
1.98124e-07
4.45871e-07
1.48153e-07
-3.65284e-07
4.87734e-07
-5.2604e-07
3.81707e-08
1.55493e-06
-9.90467e-07
-5.62552e-07
8.94072e-07
-2.04738e-07
2.10243e-07
-4.63604e-07
-3.03862e-06
2.16244e-06
8.76237e-07
7.75574e-08
-2.77211e-07
1.99545e-07
4.35442e-07
2.7284e-07
-7.08563e-07
6.50347e-07
-3.72358e-07
-4.95193e-08
-2.77438e-07
-1.13231e-05
1.28763e-05
-1.55245e-06
-6.2013e-08
1.94181e-06
-1.43189e-07
6.8755e-07
-5.94079e-07
-1.05583e-07
-2.10014e-06
9.67649e-08
4.52562e-07
2.2064e-07
-6.73169e-07
-2.15169e-06
2.31069e-06
5.02942e-07
3.01177e-07
1.61907e-07
-4.19391e-07
2.60214e-07
-4.78723e-08
7.39907e-10
-1.15776e-07
5.67722e-07
-9.9686e-07
8.18633e-07
1.78048e-07
-1.87075e-06
-1.16763e-06
-1.0388e-07
-5.33275e-07
-1.17194e-09
-2.25781e-09
3.30771e-09
1.76065e-05
-4.10861e-05
1.17895e-07
-3.65072e-08
-3.07329e-07
-7.32063e-08
5.4841e-07
-4.23271e-07
-1.45275e-07
-1.68925e-07
4.17663e-07
-8.68454e-07
4.50668e-07
-2.99788e-08
-6.71195e-08
9.7008e-08
4.98391e-07
-1.30645e-07
-3.67805e-07
8.35173e-08
-3.19835e-07
2.37854e-07
-1.00764e-08
1.06435e-08
5.47764e-07
-7.71141e-07
2.81756e-07
-4.48714e-07
4.84187e-07
5.57859e-07
1.17864e-07
-9.96373e-08
-1.83658e-08
2.24481e-07
1.61343e-08
-2.40679e-07
-3.03727e-07
-2.23144e-07
5.26764e-07
3.23235e-08
8.54582e-08
1.09985e-07
2.05991e-07
-3.14e-07
9.41819e-08
2.55512e-07
-3.45452e-07
-1.61201e-06
1.80144e-06
-1.89618e-07
4.03516e-07
-1.21076e-07
-6.51838e-07
4.46452e-08
-2.13897e-08
-2.33703e-08
1.13396e-06
1.72334e-07
-1.58725e-06
4.06105e-07
1.18156e-06
-4.14095e-07
8.29289e-07
-4.20408e-07
7.68087e-08
-1.93521e-07
-2.6683e-08
-8.95503e-08
2.02975e-07
2.28826e-06
-1.9727e-07
3.57748e-07
-1.60512e-07
-1.69729e-08
1.93078e-07
-3.49532e-07
1.54718e-07
1.46733e-05
-1.07294e-05
-3.97269e-06
-1.36581e-07
-9.11818e-07
8.35823e-07
-1.12256e-07
-3.28845e-07
4.98557e-07
-5.79593e-07
1.61024e-06
3.09762e-07
-2.08625e-07
9.9701e-08
-4.46433e-07
9.95176e-08
8.55665e-08
-1.8445e-07
1.66889e-08
5.94395e-07
3.32264e-08
-1.85806e-07
5.41401e-07
-8.4263e-07
3.01089e-07
-3.54574e-07
4.54209e-07
-1.93914e-07
-7.99423e-07
1.44811e-07
-4.662e-07
1.04954e-07
1.62141e-07
-1.62029e-07
-1.91016e-10
4.44833e-06
6.48366e-07
-1.50796e-07
2.67871e-08
1.7432e-06
-4.40391e-07
2.41534e-07
1.70833e-07
-9.49665e-08
2.1995e-07
-5.23651e-07
1.10454e-07
4.12969e-07
-1.77515e-07
-2.6044e-07
2.52715e-07
-3.04813e-07
5.23199e-08
1.43998e-07
-6.8511e-08
-7.60645e-08
-2.91806e-07
7.27104e-07
2.90783e-07
-2.07177e-07
-1.46008e-07
2.3344e-07
-8.80089e-08
2.84992e-07
-1.49093e-07
-1.36262e-07
5.16722e-08
1.72726e-07
1.38734e-06
-2.5363e-07
5.92684e-07
1.29332e-06
-1.88612e-06
1.86007e-07
-1.86007e-07
1.38286e-07
1.14723e-07
-1.84808e-08
6.84475e-07
-2.42003e-07
5.48267e-08
1.87227e-07
-4.87001e-09
3.39206e-07
1.53846e-07
-3.77809e-09
7.71543e-08
1.59667e-06
-1.96182e-06
3.65e-07
2.47324e-07
5.47843e-07
-3.64759e-07
-1.83477e-07
-3.18999e-08
-1.12081e-06
1.15249e-06
-7.6284e-08
7.10345e-07
-6.34202e-07
6.87326e-10
1.36104e-08
8.83026e-09
-1.56117e-07
1.46992e-07
5.60492e-07
-4.99026e-07
2.30132e-08
1.23736e-05
2.0157e-05
1.09277e-07
3.46629e-08
-2.2632e-07
-4.86058e-07
2.45759e-07
-6.96415e-09
-5.84199e-07
4.32595e-07
-7.61606e-07
5.34935e-07
9.57686e-08
-1.01554e-07
5.71094e-09
-6.46456e-07
2.28928e-06
-1.6426e-06
1.01214e-07
-5.51064e-09
-4.47456e-07
7.56756e-07
-8.46212e-07
8.94189e-08
-6.1238e-09
5.8244e-09
1.4638e-10
2.58745e-07
-4.42073e-07
-1.72481e-07
-3.51395e-07
1.1406e-06
-4.60867e-07
-6.69623e-07
-5.55746e-09
-3.34343e-07
3.23833e-07
-2.96712e-08
2.33453e-06
-2.48524e-06
1.50634e-07
-5.13283e-08
3.11826e-08
2.01585e-08
-3.13444e-07
-2.67068e-08
1.19666e-05
4.89377e-07
2.91008e-07
-7.80651e-07
1.18309e-06
-8.91455e-08
-1.01902e-06
-4.80295e-08
-1.1542e-08
6.06122e-08
1.94722e-06
-1.38103e-06
-5.6648e-07
3.12871e-06
6.47341e-07
1.38333e-08
3.84284e-08
-5.24707e-08
-5.68791e-08
-1.30384e-07
1.87122e-07
1.24586e-06
1.82441e-06
-3.06137e-06
1.98817e-07
-1.90817e-07
5.04437e-07
-5.938e-07
6.73849e-08
-3.39507e-07
2.70492e-07
-1.95388e-07
2.95954e-07
-2.7823e-05
1.31057e-05
1.47057e-05
-4.53517e-07
6.53975e-07
-2.0074e-07
-4.2871e-07
-6.14319e-08
1.80864e-07
-1.222e-06
1.18148e-07
9.33033e-08
4.93812e-07
-6.46507e-07
1.10328e-08
-3.88348e-07
6.55311e-08
3.23994e-07
7.49266e-07
7.54463e-09
1.83233e-07
1.10339e-07
1.73633e-06
-2.05552e-06
3.19242e-07
9.77442e-08
-5.9334e-08
-3.18635e-07
1.23078e-06
-9.11714e-07
-1.78726e-07
1.42046e-08
1.63439e-07
-3.06674e-07
-1.12684e-07
4.19167e-07
-2.87776e-07
-7.07979e-08
1.62569e-06
1.7829e-08
7.06813e-07
-7.31365e-07
2.40745e-08
-1.20196e-07
6.23621e-07
-5.03771e-07
-7.28221e-09
2.09848e-08
-2.10703e-08
1.24847e-07
-1.03855e-07
-1.22835e-06
-1.13338e-06
6.7672e-07
1.49176e-07
-8.26546e-07
3.8229e-07
-2.20142e-07
3.13123e-07
3.63764e-07
-8.9489e-08
-8.66018e-08
2.32411e-07
-1.45894e-07
8.06714e-07
-4.5087e-07
-3.55987e-07
-5.90961e-08
-1.4288e-07
-1.09811e-07
2.53423e-07
-1.4699e-07
-8.63654e-08
8.84946e-08
2.54382e-07
-4.83311e-08
3.37929e-10
-5.64052e-08
-2.67487e-07
-7.74561e-07
1.2156e-06
-3.59914e-07
-1.39578e-08
-9.02821e-08
-2.86894e-07
-1.41291e-07
1.81919e-07
-1.34039e-07
3.72824e-07
2.46171e-08
-2.17653e-07
1.92832e-07
5.98418e-07
-9.05323e-07
3.07247e-07
1.45863e-07
2.68826e-07
-1.96868e-06
1.37836e-06
5.90098e-07
-3.05728e-07
-4.67646e-07
-1.73661e-09
-3.4518e-08
-3.81478e-08
1.54492e-07
4.34436e-07
-3.68165e-07
1.81466e-08
3.05731e-07
8.24399e-07
-4.06872e-07
6.68e-08
-1.07971e-06
7.82821e-07
2.96037e-07
2.45381e-07
-2.74631e-07
2.83629e-07
-6.58983e-07
5.3863e-07
-3.36948e-07
-7.67047e-06
-1.82999e-07
2.8051e-07
7.47247e-07
-8.73464e-07
1.26192e-07
2.08835e-07
-3.62784e-08
3.06944e-09
-9.25581e-07
-1.81376e-06
2.45011e-07
-1.86703e-07
-5.68353e-08
2.13098e-07
-1.3558e-07
9.7593e-08
1.35526e-07
-2.33357e-07
7.06566e-09
1.33592e-07
-1.55911e-06
-1.13221e-06
7.56627e-07
-8.04559e-07
1.32894e-07
-1.62321e-07
2.94856e-08
1.78416e-07
-2.00572e-07
3.90659e-08
-3.35386e-08
2.3038e-07
1.15823e-07
-3.4632e-07
-4.52092e-09
-9.90809e-08
1.03497e-07
-2.06368e-07
-1.15272e-07
-1.78508e-06
3.90515e-07
1.39375e-06
5.59919e-07
-4.71286e-07
-8.87389e-08
-2.02827e-07
-1.88917e-07
-3.76691e-07
-1.26214e-08
-5.66298e-08
8.22399e-09
2.62541e-07
5.94013e-07
4.64352e-07
7.2437e-08
-5.36896e-07
6.70252e-07
-6.09681e-07
-6.09767e-08
7.15958e-07
-5.09732e-07
3.6541e-07
6.34534e-08
2.0172e-07
2.96857e-07
-4.99073e-07
3.02535e-09
3.5971e-08
3.85091e-07
-1.58853e-07
3.11238e-07
7.39316e-07
-8.13146e-07
7.31129e-08
-9.56458e-08
5.9404e-07
-1.02125e-07
5.82932e-07
-4.81001e-07
2.87619e-06
-2.27066e-06
-2.33991e-07
1.79927e-07
5.35999e-08
2.5657e-07
-1.85538e-07
-7.08494e-08
-9.58417e-08
3.95792e-07
-3.00111e-07
-3.36656e-07
1.0899e-06
-1.40876e-06
1.73782e-07
-7.04874e-07
5.3084e-07
2.283e-07
1.88904e-07
-4.17397e-07
-3.03768e-07
-2.22229e-07
3.50387e-07
8.684e-07
-3.268e-07
6.26805e-07
-4.53079e-07
-1.15376e-07
3.3113e-07
2.263e-07
-2.99041e-08
-7.339e-08
-1.60845e-07
-4.25035e-07
5.40712e-07
-1.16078e-07
2.53082e-07
-1.14799e-07
5.40844e-06
5.63475e-06
-1.10412e-05
7.09678e-07
5.10347e-07
-1.25288e-06
-4.71426e-06
4.71468e-06
-2.14386e-10
-9.35026e-07
1.21296e-07
-9.969e-08
2.23683e-07
-1.24147e-07
8.96884e-06
3.68668e-07
-4.79072e-07
-3.54599e-07
1.49627e-06
5.4343e-07
-4.96041e-07
8.60965e-08
-1.59665e-07
4.04498e-07
-1.76478e-07
-2.03016e-06
1.91257e-06
-2.00558e-06
1.28341e-06
7.22936e-07
-5.09465e-08
-9.53868e-07
7.60659e-07
1.92661e-07
2.64744e-07
-9.64773e-07
7.00027e-07
2.30675e-07
1.54692e-08
-2.46267e-07
2.04172e-07
4.30359e-07
-2.38587e-10
-6.09889e-07
6.10006e-07
-2.19119e-07
-9.04216e-08
3.10748e-07
-6.51318e-07
-4.48855e-08
2.21776e-06
-2.08767e-06
-1.30086e-07
1.72069e-07
1.12783e-07
3.00515e-08
-7.81186e-07
7.50681e-07
-2.63999e-06
1.73282e-05
1.12818e-07
-6.67704e-09
1.80549e-07
1.67825e-07
-3.48558e-07
9.50058e-07
-1.89253e-07
-7.61002e-07
2.05171e-06
3.35758e-06
4.4871e-07
-2.89555e-08
2.58549e-07
6.17843e-07
-8.15828e-07
1.97793e-07
7.73399e-07
-2.38577e-07
-5.35019e-07
1.6488e-06
-1.74392e-06
9.53149e-08
-1.14434e-07
-2.97186e-07
-4.95537e-07
4.37342e-07
5.10685e-08
-4.25015e-07
7.32954e-08
-4.52936e-07
1.46191e-07
-2.53258e-08
-4.54598e-07
1.63523e-07
1.37982e-08
-1.74552e-07
1.60278e-07
2.35996e-07
-3.96666e-07
-3.40474e-07
-8.43457e-08
-3.98529e-06
4.41957e-07
-5.00893e-08
4.62723e-08
3.7176e-09
5.06811e-07
2.99838e-07
-5.16156e-07
-3.95621e-07
7.36868e-07
-6.64076e-06
5.89899e-06
-9.28999e-08
-7.92355e-08
1.75953e-07
5.47415e-08
-1.21695e-07
6.66854e-08
-3.03922e-07
1.46823e-07
1.56818e-07
-7.87653e-07
1.0507e-07
6.83296e-07
-2.05012e-06
1.32124e-06
-1.94065e-07
-4.9315e-08
2.43183e-07
-1.37928e-07
-1.44837e-07
2.82787e-07
1.46257e-06
-1.61515e-07
6.54968e-07
-1.04249e-07
-9.16808e-07
1.02081e-06
-3.90628e-05
0.000194092
-0.000154998
3.12013e-07
-1.75962e-07
2.90213e-07
-4.34449e-07
1.45176e-07
8.50142e-07
-1.23115e-08
1.2507e-07
4.75589e-07
9.95059e-08
6.30034e-07
-7.29696e-07
7.19309e-08
7.78074e-07
3.94561e-08
-2.01797e-07
1.62755e-07
1.68481e-07
-3.55944e-08
-2.23062e-07
-6.16842e-07
1.25207e-07
4.91344e-07
2.90445e-08
5.14302e-07
1.0051e-07
-1.04938e-07
4.3275e-07
2.17623e-07
1.93603e-07
4.21806e-08
-2.52956e-07
5.93156e-08
-3.63338e-07
3.03964e-07
2.93664e-06
-1.30202e-06
-1.62919e-06
1.47515e-07
1.42157e-07
3.96441e-07
-1.06034e-07
-2.71039e-07
7.75524e-08
1.94166e-07
-2.77984e-08
-2.68894e-07
2.96479e-07
9.54816e-08
-4.60614e-08
-5.13511e-08
1.69703e-07
6.01344e-10
-3.75037e-07
3.96974e-07
-2.2218e-08
4.56242e-07
-4.87312e-07
2.98328e-08
-5.96129e-07
5.43346e-07
1.35784e-08
2.84655e-07
-6.29962e-07
3.1233e-07
-4.21669e-07
1.09367e-07
1.58291e-07
6.89641e-08
-2.27489e-07
-4.79274e-07
3.75688e-07
-1.29048e-07
2.55611e-07
4.64676e-07
-2.95204e-08
-5.5203e-09
-7.97034e-08
3.61475e-08
2.42909e-07
-7.40864e-07
4.97853e-07
-6.37823e-08
1.84999e-07
-4.08187e-07
-6.87317e-08
1.14653e-06
-1.07797e-06
-4.5504e-07
-1.4204e-06
-6.4259e-07
4.08555e-08
9.80373e-08
-9.80088e-08
-5.01196e-10
-3.32852e-08
4.89292e-07
-1.4138e-06
3.16577e-07
1.11289e-06
1.36955e-07
3.14479e-08
1.23696e-07
-6.28526e-07
5.04657e-07
-8.75431e-08
4.08922e-06
-5.01076e-06
9.22663e-07
-1.07027e-08
-2.22313e-08
3.27577e-08
-1.17875e-08
1.22793e-08
-5.73363e-10
-2.2979e-06
3.48812e-07
1.94914e-06
-1.88923e-08
1.55839e-07
-3.72183e-07
-6.30635e-09
5.21803e-07
-6.01868e-07
7.88635e-08
-2.48077e-06
1.55468e-06
-5.18766e-07
4.12506e-09
-2.13478e-07
1.13709e-07
-6.35551e-07
-1.5883e-08
9.71126e-08
-1.29521e-07
3.2232e-08
3.51459e-07
3.99163e-07
-4.42609e-07
-1.82855e-07
7.56114e-07
1.01408e-08
-7.66631e-07
-1.22993e-07
3.58627e-08
8.50299e-08
-1.85356e-07
6.40812e-08
-5.65116e-07
5.00745e-07
-1.74924e-06
1.61887e-06
1.28892e-07
-3.01665e-09
8.97565e-08
1.33618e-06
-1.98212e-06
-3.61772e-07
1.75447e-06
2.88238e-07
-2.04275e-06
1.59191e-06
1.18282e-06
-2.77516e-06
-1.95101e-07
2.40987e-07
-4.59217e-08
4.02245e-07
9.49373e-07
-1.34975e-06