/*--------------------------------*- C++ -*----------------------------------*\
| =========                 |                                                 |
| \\      /  F ield         | OpenFOAM: The Open Source CFD Toolbox           |
|  \\    /   O peration     | Version:  v2012                                 |
|   \\  /    A nd           | Website:  www.openfoam.com                      |
|    \\/     M anipulation  |                                                 |
\*---------------------------------------------------------------------------*/
FoamFile
{
    version     2.0;
    format      ascii;
    class       volScalarField;
    location    "200";
    object      k;
}
// * * * * * * * * * * * * * * * * * * * * * * * * * * * * * * * * * * * * * //

dimensions      [0 2 -2 0 0 0 0];


internalField   nonuniform List<scalar> 
15335
(
0.0191457
0.000237595
0.0140415
0.000161859
0.0178581
0.000149165
0.000203246
0.000244941
0.000163834
0.0249866
0.0172352
0.000156205
0.0189834
0.012378
0.0898856
0.0102
0.000172708
0.0617138
0.000146051
0.0115765
0.064321
0.0656705
0.000203206
0.000146156
0.000219609
0.00018424
0.00485029
0.000184102
0.0340496
0.000153443
0.00573093
0.0902795
0.000149754
0.000149847
0.000149293
0.000393522
0.000344916
0.00219146
0.0246065
0.000207185
0.000227019
0.00553479
0.000149076
0.000161406
0.0204183
0.000146708
0.00659658
0.0769866
0.0212841
0.000155073
0.000146157
0.0921451
0.00560362
0.000149848
0.000150228
0.000199936
0.000178162
0.0921544
0.00579406
0.0174756
0.0464261
0.0771611
0.000163619
0.000156469
0.000149095
0.000155744
0.0245145
0.0912204
0.000148882
0.000145231
0.000169511
0.00015388
0.00021971
0.0510258
0.0364677
0.0537917
0.000231705
0.000198364
0.073666
0.000149721
0.0321842
0.00310416
0.0326921
0.000220578
0.00521818
0.000147114
0.000145948
0.000161194
0.000153462
0.000245021
0.0297633
0.000193122
0.000155727
0.000495315
0.00815972
0.000155532
0.000146696
0.000164775
0.000146694
0.000149803
0.000149004
0.0560927
0.000625072
0.000188884
0.000153697
0.000163367
0.000149999
0.000161084
0.000477682
0.000167361
0.0386285
0.000197391
0.000148477
0.000156411
0.00493351
0.00015335
0.000169516
0.000437402
0.0275056
0.0027327
0.0308981
0.0158719
0.0506988
0.0511903
0.000148945
0.000148885
0.000175429
0.000149242
0.000188599
0.000150163
0.0486047
0.0239357
0.000147438
0.000168911
0.000195575
0.00014717
0.0345279
0.0456533
0.000163646
0.000242152
0.000192753
0.000246805
0.000170858
0.000173092
0.0604347
0.00809629
0.0490976
0.000460068
0.000195077
0.0362985
0.000156466
0.0911466
0.000148894
0.000155165
0.0455939
0.00014976
0.082239
0.0204811
0.000446491
0.0842478
0.000149683
0.000158456
0.056469
0.000174485
0.0252373
0.0185665
0.0234786
0.000146174
0.000628275
0.00884941
0.0145054
0.00261158
0.0762797
0.000168165
0.000206014
0.000149727
0.000149528
0.0508988
0.0366499
0.0111469
0.000207578
0.000638676
0.0501412
0.00016633
0.000166347
0.0277766
0.000160533
0.000161013
0.0486879
0.0507633
0.0151844
0.000225938
0.000160534
0.000212343
0.00150323
0.0282931
0.000148583
0.0236586
0.000149157
0.0222533
0.000164444
0.000168839
0.000166374
0.016346
0.0185317
0.000199634
0.00014959
0.00016857
0.000159758
0.000158029
0.000174766
0.000148969
0.0476786
0.000153072
0.000209863
0.00016888
0.0141865
0.0916305
0.000197894
0.00021906
0.000148916
0.000148301
0.000161641
0.000159873
0.000201705
0.0065223
0.000147204
0.00774483
0.00017379
0.0517295
0.000147274
0.000146312
0.0240558
0.000215195
0.0231608
0.000172491
0.000212472
0.000197524
0.000149415
0.00507061
0.0743319
0.00016751
0.0485184
0.000166984
0.0200764
0.000147083
0.000151418
0.0185671
0.0710945
0.0707496
0.0144722
0.018014
0.000147065
0.000146203
0.000174069
0.0195667
0.000192742
0.0495317
0.000145036
0.00020196
0.00811631
0.000149779
0.000146665
0.000149089
0.000149234
0.000144965
0.0861462
0.0244685
0.0210935
0.000149141
0.0878628
0.0219312
0.0209196
0.000147268
0.0189915
0.000152631
0.000149832
0.000210159
0.000156032
0.000173479
0.00680781
0.0560974
0.000147828
0.000192417
0.000159088
0.0395526
0.0805134
0.000157695
0.000151871
0.000150918
0.0201371
0.000155856
0.000168083
0.000232223
0.000156737
0.00237821
0.000146742
0.000223562
0.000149272
0.0473676
0.000148997
0.0758597
0.000187432
0.0512815
0.000147338
0.0727219
0.0236991
0.000149439
0.0356973
0.000154776
0.0483132
0.000149602
0.000221459
0.0472528
0.0445413
0.000148793
0.000149637
0.0766168
0.00866796
0.000203403
0.000234082
0.000148811
0.00347752
0.0474949
0.000163349
0.0462019
0.0486893
0.0478869
0.000158119
0.000156277
0.000149723
0.000187427
0.000151079
0.000239968
0.00017019
0.000651704
0.000167129
0.0235214
0.00438789
0.0237085
0.00019981
0.000208668
0.000148499
0.000208204
0.000163471
0.000154705
0.000149868
0.00023306
0.000146469
0.0286943
0.0571752
0.0460155
0.000154161
0.0100382
0.0187352
0.000148316
0.00015958
0.000166253
0.000179308
0.000189994
0.000157449
0.000183166
0.000159064
0.0288428
0.000159442
0.0145263
0.000410727
0.000182785
0.000155564
0.000147076
0.0461611
0.000155605
0.000167005
0.0911649
0.00014884
0.00517828
0.090669
0.000159902
0.00024275
0.0480065
0.000148452
0.000156569
0.0299492
0.0286979
0.00016102
0.000147186
0.000198133
0.000168443
0.000248987
0.0192966
0.000148831
0.000152872
0.000147174
0.000244499
0.0373455
0.000199618
0.000233978
0.000162883
0.000167363
0.0708949
0.000188977
0.000189536
0.0281694
0.00015771
0.000152682
0.000189664
0.0409466
0.0273588
0.000213781
0.00022605
0.00022162
0.000158826
0.0443648
0.0398596
0.000232771
0.0795266
0.0457603
0.000154834
0.00022136
0.000170404
0.000158374
0.0183317
0.0544472
0.000146631
0.000231808
0.0467088
0.000208295
0.074713
0.000158106
0.00516141
0.0842496
0.00537231
0.0155913
0.0845351
0.02362
0.000195555
0.0737163
0.015367
0.000145115
0.000150002
0.00436697
0.0494943
0.000149297
0.000237161
0.000177718
0.000167636
0.0160562
0.000208957
0.000197635
0.0301379
0.0160177
0.0230414
0.000173217
0.000155111
0.0838492
0.0812321
0.000149251
0.0634093
0.049867
0.000197288
0.075481
0.000270043
0.000199798
0.0719238
0.000178725
0.000162566
0.000159129
0.000149172
0.000171765
0.0541387
0.000227521
0.000231256
0.0318048
0.000148861
0.000149644
0.000149722
0.000402385
0.0915949
0.0497268
0.000505651
0.000198304
0.000274453
0.000164147
0.0304399
0.000151636
0.000148189
0.000149713
0.0241808
0.000149062
0.0525605
0.000145394
0.000151527
0.000147399
0.046576
0.000229019
0.000149771
0.000162839
0.000199994
0.000158612
0.00015656
0.0772384
0.000158756
0.000229563
0.000155563
0.0194585
0.00015297
0.000148453
0.0149745
0.00015239
0.000163715
0.0462294
0.000147012
0.0001497
0.017816
0.000364818
0.00259131
0.000154741
0.000164709
0.0001514
0.0345637
0.0519904
0.000149699
0.0478022
0.0472173
0.0520832
0.0541253
0.000149444
0.0329071
0.0814239
0.0353573
0.0178752
0.000164395
0.0748156
0.000167757
0.00619177
0.00024385
0.0612158
0.00921646
0.0589657
0.0525995
0.0443811
0.000169998
0.000152806
0.000158663
0.000167364
0.000148137
0.000195902
0.000183297
0.0208845
0.000198132
0.000190508
0.000314921
0.0713163
0.0834429
0.0459081
0.000221981
0.000199716
0.000149744
0.000157299
0.000145093
0.000161647
0.0717167
0.000151098
0.000163775
0.000185336
0.000243797
0.0301628
0.0102827
0.000205861
0.0240992
0.000149324
0.000150959
0.000149678
0.000160774
0.0240408
0.000168086
0.000212167
0.000148344
0.000168339
0.0400453
0.000147658
0.00016753
0.0814706
0.0647595
0.0179886
0.000148852
0.000155966
0.000153102
0.0898455
0.0186502
0.000162292
0.000145465
0.000147211
0.000149619
0.0501432
0.000212224
0.000404363
0.0611502
0.000153577
0.000230442
0.000160789
0.000154624
0.0843034
0.000149145
0.000161008
0.0543662
0.000147435
0.0162696
0.0482849
0.000163792
0.000242949
0.091784
0.0808122
0.000166673
0.0731244
0.000184488
0.000155653
0.00014919
0.000166962
0.000197739
0.0838796
0.000170768
0.000149591
0.0257144
0.000148613
0.000158821
0.0386157
0.000197202
0.000185885
0.0292626
0.000163277
0.000148362
0.000149683
0.000160003
0.000149589
0.0814
0.000152662
0.000190036
0.030016
0.000145905
0.000155257
0.0283468
0.000159999
0.000176263
0.0920816
0.000150965
0.000222181
0.000149217
0.0722892
0.000216467
0.0547379
0.000195285
0.0269225
0.0466811
0.000167965
0.017583
0.000145706
0.000198257
0.00017725
0.00284244
0.000151669
0.071795
0.000148544
0.0409705
0.000158647
0.000303396
0.000147322
0.000150958
0.00019278
0.000201315
0.000149091
0.000166472
0.000150767
0.000221639
0.00830105
0.000161971
0.0169966
0.00897718
0.0504712
0.000149278
0.0848757
0.000151654
0.000146261
0.000202514
0.000158112
0.000154388
0.0426004
0.000160431
0.000160172
0.000159133
0.000149398
0.000145859
0.0708861
0.045465
0.000146719
0.000146406
0.000206816
0.000147214
0.0202873
0.000167348
0.0286675
0.0910797
0.000149201
0.000169055
0.0642523
0.000183745
0.00014978
0.00016881
0.000168881
0.000149011
0.0276955
0.0420817
0.000167095
0.0226186
0.00342548
0.000166476
0.000148877
0.081132
0.000148835
0.00015579
0.000208145
0.000149342
0.000151366
0.000203216
0.000422096
0.00313054
0.0588159
0.0484707
0.000149256
0.053898
0.00803992
0.000172286
0.00369841
0.00143378
0.000234613
0.000237563
0.000183143
0.0457579
0.000161517
0.00951035
0.000169035
0.000164139
0.000177488
0.000192576
0.000323341
0.000153565
0.000175666
0.077937
0.000157214
0.000159998
0.0441719
0.00713396
0.0232555
0.000149657
0.00128037
0.0485996
0.0688047
0.019092
0.000150775
0.000163351
0.000229745
0.0206329
0.0234601
0.000164502
0.043645
0.000147161
0.00021172
0.000166153
0.000155204
0.0646873
0.000147266
0.0566594
0.000163275
0.000171527
0.000156837
0.000158399
0.0036187
0.000149233
0.000149235
0.00343974
0.019746
0.000164086
0.000147063
0.000157217
0.0232736
0.000192041
0.00843528
0.0912128
0.000161745
0.000149553
0.032286
0.00017829
0.060912
0.000162584
0.000159727
0.000192998
0.000149152
0.000147508
0.000164213
0.00867111
0.000176515
0.000207587
0.000146889
0.0143366
0.0478279
0.00014948
0.000149043
0.000158086
0.000148473
0.0385862
0.000145537
0.000148574
0.000148894
0.000149298
0.000149859
0.00014862
0.000145441
0.0898945
0.000171105
0.000161828
0.00573145
0.000149176
0.000155842
0.000154534
0.066003
0.000371272
0.0654211
0.000159131
0.000149352
0.00464491
0.000149702
0.0472451
0.000158155
0.000181457
0.0043734
0.0385969
0.000149249
0.000146909
0.0446765
0.0706233
0.000161532
0.000160726
0.000145797
0.000223868
0.000166739
0.000161843
0.000152805
0.000145256
0.0364531
0.000160593
0.000146351
0.000361934
0.0050054
0.00551704
0.0156577
0.000197886
0.000145747
0.0235129
0.000212057
0.00112623
0.000161756
0.00015912
0.000193592
0.000159993
0.00430326
0.000584076
0.000147294
0.000184004
0.000193178
0.000149418
0.000476161
0.000154463
0.000153302
0.0797426
0.0815262
0.000149373
0.0482677
0.00312498
0.00014847
0.00015095
0.000221226
0.000309855
0.000177218
0.000146631
0.000175271
0.000169421
0.0701822
0.0547388
0.0151114
0.000168894
0.000150707
0.0331564
0.000155102
0.00016414
0.000153006
0.0702829
0.000248738
0.000152806
0.000147961
0.000163025
0.0721997
0.0491299
0.000149239
0.000149018
0.0476203
0.000148432
0.000204189
0.000216759
0.000146552
0.000148577
0.0810662
0.000159463
0.0841633
0.00927541
0.00014992
0.000155254
0.00020918
0.00015559
0.000185601
0.000208529
0.000161724
0.000148565
0.000146604
0.0530365
0.0001613
0.000148646
0.0545239
0.0156143
0.000149804
0.000222746
0.000148261
0.000155301
0.000149528
0.0285878
0.043093
0.000149487
0.000151059
0.0732444
0.000158582
0.000184297
0.000153863
0.000168296
0.00014929
0.00016543
0.00014921
0.00138062
0.0496983
0.000152793
0.000165859
0.0508438
0.000155055
0.0656919
0.0123521
0.00016331
0.000148928
0.0754202
0.000234965
0.000148535
0.000242891
0.000149503
0.000338486
0.024881
0.000149596
0.0820668
0.000148524
0.00640516
0.000181978
0.039465
0.000166557
0.0202652
0.000145779
0.0771244
0.000148691
0.000158587
0.00052774
0.0470582
0.000163558
0.0909992
0.0280979
0.000229171
0.0208435
0.0843961
0.000163509
0.0844906
0.0126887
0.000152942
0.000192364
0.000220566
0.000147431
0.000163065
0.000165132
0.000161943
0.00839401
0.000195661
0.000150551
0.000209418
0.000148944
0.000288265
0.000148512
0.0621227
0.000147086
0.0217983
0.0473982
0.000230119
0.000222284
0.073199
0.00016147
0.000146674
0.000173823
0.0096023
0.000179359
0.000147164
0.000167461
0.000153723
0.000162054
0.000171406
0.0440772
0.0817853
0.000149763
0.035788
0.000165643
0.000229695
0.0428986
0.0820999
0.000261185
0.000147205
0.000169681
0.0917758
0.000153276
0.00746248
0.00014733
0.00014888
0.000148607
0.000148423
0.000160309
0.000197975
0.000158421
0.0169476
0.000156412
0.000148707
0.000149352
0.0456097
0.000346787
0.000153488
0.000196989
0.0200573
0.0177024
0.0850089
0.00016004
0.000175008
0.0217274
0.000148529
0.000153637
0.000431529
0.000149681
0.0229612
0.000146733
0.000147937
0.0226842
0.000165135
0.000207961
0.0543501
0.000157501
0.000145871
0.000151536
0.000160163
0.0507292
0.0424383
0.0242103
0.000145128
0.000148594
0.000154325
0.000149423
0.000153118
0.000149428
0.000146308
0.000149241
0.000186814
0.00014861
0.000149339
0.000454423
0.0448028
0.000153946
0.047752
0.000150137
0.000153867
0.0249507
0.000231754
0.000157436
0.0501011
0.02009
0.000195989
0.00014672
0.00244816
0.0138745
0.000164764
0.0727223
0.0501334
0.0598823
0.000302039
0.000167247
0.000164791
0.059822
0.000178589
0.000151914
0.000146746
0.025724
0.000190099
0.0775156
0.000149387
0.00014923
0.0710986
0.000168447
0.0773763
0.000174077
0.000148446
0.000234561
0.0919946
0.000153717
0.000252396
0.00151011
0.000283151
0.00380788
0.000151076
0.000166405
0.000190573
0.0268145
0.000205893
0.0173601
0.000149177
0.000203154
0.0453701
0.00521405
0.000149257
0.000148414
0.000235741
0.000187331
0.000149579
0.0189158
0.000153038
0.000149875
0.000144186
0.0444533
0.00976865
0.0616611
0.000149796
0.000149592
7.02509e-05
0.000196719
0.000192365
0.000207649
0.000183447
0.000165932
0.000148695
0.0475873
0.000244244
0.080153
0.0244928
0.000170815
0.000266489
0.000166711
0.0825436
0.000163958
0.0467181
0.0219525
0.000149943
0.000177428
0.000183303
0.0748907
0.000151899
0.000148949
0.0068927
0.000166125
0.0849084
0.0412266
0.0182478
0.000162215
0.0523768
0.0723798
0.000166769
0.0416001
0.00341152
0.00015126
0.0239067
0.0216749
0.000212993
0.0540076
0.0456133
0.000150064
0.0220365
0.00016303
0.0140123
0.000188321
0.0525789
0.000234174
0.000277819
0.000162651
0.00014882
0.000148658
0.000149651
0.000149892
0.0204299
0.000224101
0.000146532
0.000148709
0.0816186
0.000147209
0.0109859
0.0508319
0.00424066
0.000222263
0.000149797
0.0500747
0.000150215
0.0196379
0.000147503
0.0675804
0.0139702
0.000192803
0.0544367
0.000152693
0.0604819
0.0599717
0.0119601
0.043264
0.0258476
0.0555139
0.0498507
0.0235704
0.000163169
0.0119106
0.000151037
0.000149608
0.000208716
0.021008
0.0562987
0.000150193
0.000150652
0.00014628
0.000177666
0.000221677
0.000165307
0.000148489
0.000271879
0.000166493
0.000148369
0.000149181
0.000182053
0.00036644
0.0806562
0.000149901
0.000221677
0.000147672
0.00015749
0.0269174
0.000149057
0.0634609
0.0291906
0.000166211
0.000174466
0.000176319
0.000149222
0.000149461
0.000200056
0.000201773
0.000178557
0.000145092
0.000166645
0.0147949
0.0199146
0.00604409
0.000153468
0.000159658
0.000237749
0.000177745
0.0455398
0.000149535
0.000148296
0.000182403
0.0818318
0.000164677
0.0316106
0.000208631
0.00016366
0.000151292
0.000147111
0.000197862
0.000152305
0.000159942
0.000195051
0.000149702
0.0597714
0.00014838
0.000148894
0.00016038
0.000149544
0.0807353
0.0353751
0.0194188
0.0198288
0.0191775
0.000192525
0.00017273
0.000154542
0.0214926
0.000242391
0.000147388
0.0207476
0.00351398
0.000332296
0.045515
0.0324555
0.0512177
0.000149622
0.000333173
0.0868934
0.000181427
0.000153761
0.0447955
0.000171775
0.00015932
0.000165966
0.000155899
0.031147
0.0527456
0.006126
0.0816298
0.000187265
0.000352949
0.014634
0.000217106
0.000182448
0.000149488
0.0220746
0.000149505
0.0620332
0.0011669
0.00825776
0.0517383
0.000182653
0.000228043
0.000147738
0.0502748
0.000163357
0.000171719
0.0734045
0.000146756
0.000205369
0.000149758
0.0133564
0.00751759
0.000147449
0.000159507
0.0069633
0.000160065
0.000219384
0.000165669
0.000174428
0.000147321
0.000167163
0.000148475
0.000161668
0.000458674
0.0531714
0.00709879
0.000476543
0.0193647
0.000158241
0.0521449
0.000149264
0.000161433
0.000180911
0.059872
0.0144788
0.0556064
0.000147233
0.044674
0.000182942
0.000147382
0.00014836
0.0530684
0.054924
0.000398125
0.000168718
0.0167762
0.0196708
0.0001484
0.0746597
0.0794676
0.00016109
0.0461204
0.000228695
0.000192965
0.00407716
0.0123737
0.000148828
0.000149575
0.000161208
0.000148543
0.00909093
0.000149715
0.0119891
0.000146879
0.0819336
0.000161435
0.0540482
0.0801785
0.00017281
0.0580681
0.000149806
0.000309666
0.0188901
0.0281716
0.000159482
0.000148779
0.0202365
0.0454419
0.08177
0.000171726
0.000149698
0.000157118
0.0106447
0.00548422
0.000153219
0.000172701
0.0223903
0.000148513
0.00504311
0.00018412
0.0295785
0.000216832
0.000269446
0.0626292
0.000165622
0.00017502
0.0765746
0.000148156
0.000428117
0.000174666
0.0465052
0.000155029
0.0753897
0.000152847
0.000177716
0.000159314
0.047636
0.000157783
0.014805
0.000159559
0.0233552
0.000162485
0.000172007
0.00019405
0.0148942
0.0193668
0.000348501
0.000171803
0.0671878
0.000167296
0.000163625
0.000147485
0.0542793
0.000150199
0.0266457
0.000159635
0.000157245
0.0610696
0.000148901
0.000145037
0.000149751
7.84153e-05
0.000150029
0.0795391
0.000158827
0.00608669
0.0658063
0.000198728
0.00014854
0.0783479
0.000159506
0.000157307
0.000150822
0.0288144
0.000148848
0.00020493
0.000147838
0.0108696
0.0653667
0.000157662
0.0342378
0.0578761
0.0433611
0.000157917
0.0857295
0.000179142
0.0279822
0.000158946
0.000155266
0.000192682
0.0579082
0.000148829
0.0216435
0.000235058
0.0001554
0.000245991
0.00015395
0.000188072
0.000156887
0.000146229
0.000156292
0.000154953
0.000174903
0.000149223
0.000169328
0.000176414
0.017305
0.000162581
0.0782587
0.000191471
0.000148605
0.000168964
0.000232861
0.000147341
0.000191567
0.00014921
0.0790767
0.000156995
0.000608333
0.000149381
0.000201095
0.000148315
0.000160137
0.087671
0.0694046
0.0189759
0.0189221
0.000198055
0.000176976
0.000151758
0.000165976
0.0854796
0.00835705
0.0242912
0.0103317
0.000148107
0.000374334
0.000148328
0.000157812
0.000156986
0.00017237
0.000152203
0.0482747
0.000301242
0.000190791
0.0134817
0.000189483
0.0782099
0.000204806
0.000158038
0.00014956
0.000151941
0.00015717
0.000159878
0.00017737
0.000184129
0.000151162
0.000149746
0.0141486
0.00020191
0.0659396
0.0727791
0.00793922
0.00306022
0.000161058
0.000162059
0.0237235
0.000163689
0.000150631
0.00015597
0.000196226
0.000154161
0.0166992
0.000186178
0.0181418
0.00014881
0.00016787
0.0769137
0.000160771
0.000211542
0.000148838
0.000157862
0.0452279
0.0352339
0.061263
0.000159912
0.000147243
0.0780972
0.000148683
0.0611075
0.0543003
0.000164997
0.0482618
0.000158385
0.000198401
0.000155133
0.000152373
0.000155511
0.0495826
0.00819558
0.000148417
0.000197987
0.000601076
0.000148015
0.000146248
0.000178985
0.0298269
0.060346
0.0534152
0.000154467
0.000151676
0.000167106
0.000208248
0.0609092
0.000167785
0.000150609
0.000153473
0.000222161
0.000167062
0.0633457
0.000781336
0.000149613
0.0226926
0.000149711
0.0117086
0.000167411
0.000171278
0.0371405
0.000168618
0.0913502
0.000168096
0.000191106
0.000199525
0.000156774
0.000147967
0.000150095
0.000163233
0.031438
0.000172584
0.0910892
0.000152687
0.000149882
0.000158834
0.0657152
0.000150689
0.000191143
0.000485901
0.053588
0.0777696
0.0553227
0.000150708
0.00017289
0.000173364
0.000145577
0.000150451
0.000167437
0.00015235
0.000172868
0.00018613
0.000148226
0.00017593
0.0128774
0.000149876
0.0478464
0.000149433
0.000149959
0.000152424
0.00018882
0.000488135
0.0251967
0.000165559
0.000172791
0.000157413
0.000149547
0.0378209
0.000161435
0.0118389
0.0922967
0.00200314
0.000171591
0.000178762
0.000151649
0.0190502
0.000211683
0.00720258
0.0712771
0.000223457
0.000152225
0.07612
0.0686642
0.000190288
0.000304192
0.0881115
0.061737
0.0611617
0.000169506
0.0502501
0.000159856
0.0764508
0.0535566
0.000168845
0.000148724
0.000195651
0.0557576
0.000156424
0.000152294
0.0645778
0.000149319
0.000215757
0.0514072
0.000188267
0.00020247
0.000174526
0.000149353
0.000166455
0.0498222
0.000148861
0.0273646
0.000203976
0.000376091
0.000153052
0.0186618
0.000148208
0.0650315
0.000151872
0.0504497
0.000151874
0.000167626
0.000147111
0.0280715
0.000193967
0.0720273
0.00989132
0.000204322
0.000149213
0.000189485
0.0923097
0.0167892
0.0174069
0.0535739
0.000149209
0.000147609
0.000190743
0.000148865
0.0189008
0.0570482
0.000178638
0.0310149
0.0696628
0.000155619
0.0548967
0.000157245
0.000193262
0.0469748
0.000153589
0.000165266
0.000208097
0.000156235
0.000147075
0.000152277
0.000165052
0.000147386
0.000151194
0.000411036
0.000148662
0.000149948
0.000160609
0.000148203
0.000163336
0.000149733
0.050326
0.0607759
0.0770303
0.000146153
0.00020074
0.000538449
0.000150284
0.0093467
0.000161646
0.000159248
0.000169303
0.000159672
0.0568662
0.00619529
0.000161135
0.000152462
0.0317395
0.00019203
0.0622794
0.000157095
0.0398215
0.0219735
0.000755414
0.0143386
0.000150724
0.000442076
0.0143261
0.000151012
0.000162304
0.000153507
0.00015497
0.00223554
0.0160782
0.0278857
0.000148227
0.00397791
0.000174207
0.000207819
0.000174999
0.000146727
0.000149684
0.000165567
0.00015485
0.0733628
0.000166003
0.0143899
0.0512428
0.000148943
0.000166271
0.000149699
0.0211671
0.000165127
0.0091928
0.000243817
0.000147249
0.000149584
0.000175592
0.0625411
0.0844254
0.000168733
0.0167561
0.000149236
0.000241491
0.000183708
0.000148006
0.00014496
0.000169166
0.000148856
0.053463
0.00019591
0.000145733
0.0001513
0.0734127
0.000146426
0.00962395
0.000167481
0.000166351
0.0491156
0.000149439
0.00016225
0.000148832
0.0551632
0.000152451
0.000156099
0.000157663
0.000170961
0.000144403
0.0649656
0.0275083
0.000160685
0.000149764
0.0161521
0.0019861
0.000209179
0.055587
0.000167257
0.000150696
0.00014899
0.000205977
0.000204994
0.000230017
0.000189334
0.000169533
0.000167402
0.0763858
0.000149198
0.0464339
0.000153383
0.000192236
0.000148782
0.000147954
0.000156912
0.000151557
0.000196838
0.000156489
0.000102205
0.000208272
0.0280829
0.0409183
0.000153225
0.000159352
0.000148981
0.0216751
0.000151425
0.000171674
0.000147057
0.000169118
0.000181835
0.0586276
0.0577139
0.0577875
0.0134751
0.000159475
0.00016791
0.0002158
0.0350536
0.00019051
0.000149352
0.000160893
0.0526204
0.000151596
0.000157562
0.000149764
0.000172831
0.000159511
0.00366547
0.000153704
0.000148728
0.0547772
0.0269448
0.00022329
0.00015182
0.000149284
0.000179221
0.0634685
0.000171071
0.000215307
0.000159954
0.00015658
0.000209277
0.000173258
0.000155761
0.0751517
0.0119759
0.000177382
0.0365575
0.0292791
0.000293015
0.0590345
0.000194054
0.0348016
0.0571528
0.00017472
0.00022305
0.000148158
0.000159591
0.0198846
0.000197538
0.0594463
0.00014957
0.0229271
0.000219538
0.0592107
0.000184878
0.000193838
0.000152609
0.0900511
0.0765568
0.0001648
0.0877613
0.000164113
0.000150778
0.00947316
0.000172965
0.0574426
0.000166525
0.000337858
0.0591739
0.0866568
0.000179437
0.011655
0.000149216
0.000151131
0.000204457
0.000156309
0.000150914
0.000160849
0.000171607
0.000190176
0.000232904
0.0581592
0.0149102
0.000166872
0.000148777
0.0909544
0.000165945
0.00014887
0.055548
0.00117115
0.000147879
0.000149225
0.000156331
0.000178024
0.000178258
0.0869905
0.000357229
0.000209471
0.000154797
0.015645
0.00015407
0.000169435
0.0298857
0.00014969
0.000195255
0.000196011
0.000149511
0.000317177
0.0603685
0.000155334
0.000145587
0.000161901
0.0001481
0.000157128
0.0238627
0.000149574
0.000203482
0.0320024
0.000148162
0.056416
0.000153344
0.0359866
0.00029493
0.0898414
0.0196746
0.082446
0.000180178
0.0242531
0.000147314
0.00984292
0.000150711
0.00016997
0.000214566
0.000160449
0.0827384
0.000157636
0.000336049
0.0194887
0.000149862
0.00020936
0.0345138
0.000149162
0.0749075
0.00017101
0.0562357
0.00027949
0.000162529
0.000175119
0.0169364
0.0447745
0.000186737
0.00019399
0.000150539
0.000187561
0.0505318
0.0412095
0.000171979
0.000149196
0.000167613
0.000488814
0.000152921
0.0277358
0.000149373
0.000164844
0.000173587
0.0625828
0.000148969
0.000148784
0.000158426
0.0123289
0.00014523
0.000149713
0.000212653
0.000148217
0.000195111
0.000189622
0.00016527
0.0474955
0.000232605
0.0755155
0.0505248
0.000191431
0.000220637
0.079723
0.000153758
0.000157026
0.000183104
0.000148102
0.014976
0.00063141
0.000151396
0.000150701
0.0418572
0.0523833
0.0838918
0.000236063
0.00014807
0.0625459
0.0522045
0.000150823
0.055575
0.0838015
0.0253473
0.0485911
0.000149295
0.000155408
0.000148737
0.000156219
0.000157079
0.000149526
0.000183348
0.00017737
0.0482897
0.000151876
0.000168006
0.000146358
0.00014968
0.0423111
0.000156467
0.0786889
0.0859131
0.000159534
0.000149166
0.000190247
0.000321201
0.000838502
0.0001666
0.0139719
0.000196942
0.0442447
0.000155983
0.000165816
0.0590244
0.000147962
0.0257542
0.000198969
0.0112837
0.0518231
0.0172413
0.000151033
0.0517259
0.000168638
0.0369575
0.01208
0.0527866
0.0212673
0.000196739
0.000186031
0.0617938
0.000149895
0.0260733
0.0220532
0.0580263
0.0188539
0.0263272
0.000157274
0.0380977
0.000169964
0.000166432
0.000165554
0.0579553
0.000148799
0.000291172
0.000148929
0.000182377
0.000644374
0.00014874
0.0530862
0.0201637
0.000148854
0.00014666
0.000150364
0.0559868
0.0824967
0.00016078
0.000195198
0.000158292
0.0385524
0.0629197
0.0572927
0.0238937
0.000172789
0.0291274
0.0628767
0.0806996
0.000159233
0.0902828
0.0917319
0.0432556
0.00014549
0.0516856
0.000180369
0.0820082
0.0110744
0.00015097
0.000148879
0.000170238
0.000150412
0.0819403
0.000149228
0.0627857
0.000151576
0.0266595
0.0220771
0.0299787
0.000227039
0.00713204
0.000171946
0.000153669
0.000171902
0.026768
0.00014856
0.000169561
0.0230786
0.0237095
0.0811236
0.0301325
0.000155375
0.00017809
0.0394484
0.0618415
0.0052186
0.0812875
0.0713198
0.0627202
0.067511
0.0214303
0.000150671
0.000154162
0.000147975
0.0719307
0.0486534
0.000147602
0.000159838
0.0322324
0.0651126
0.000229443
0.0103698
0.000515705
0.000211704
0.000198853
0.00022686
0.000150691
0.027307
0.0574005
0.0305592
0.000153712
0.0311211
0.00015615
0.0196987
0.0565094
0.000256025
0.0394005
0.0210548
0.0207566
0.000213626
0.0281226
0.0278914
0.00446458
0.000150856
0.0593863
0.0480012
0.00015555
0.000190828
0.000153015
0.000159713
0.000151855
0.0272496
0.000181776
0.000156429
0.000190061
0.000148562
0.000208251
0.011568
0.0152192
0.0271898
0.000212349
0.000155672
0.0001762
0.062057
0.0001592
0.000147956
0.050554
0.00292756
0.000206879
0.00296071
0.000156442
0.0334377
0.000161163
0.000175605
0.00015724
0.000156696
0.0827748
0.0616422
0.000189467
0.000343371
0.000202745
0.000156869
0.0718126
0.0316236
0.027015
0.0829514
0.000149892
0.000149065
0.000186589
0.0319375
0.00017372
0.00016037
0.000188372
0.0001496
0.0595268
0.000148915
0.000149835
0.000145847
0.000153626
0.07856
0.000191877
0.000149212
0.000154092
0.000166478
0.000188452
0.000184122
0.0525167
0.000158863
0.0874932
0.000149335
0.0835701
0.000178228
0.0296839
0.0503556
0.000149474
0.000145441
0.00014943
0.000149644
0.0408122
0.000155146
0.000161188
0.00389977
0.000228857
0.00014995
0.000154446
0.000150452
0.000189452
0.00020614
0.0542611
0.000330904
0.0502813
0.000178468
0.0893961
0.00193779
0.000148878
0.000147213
0.0676246
0.000204318
0.0334958
0.000149538
0.00213269
0.0171755
0.000227757
0.0595994
0.019692
0.0720798
0.000152067
0.0391249
0.000192596
0.000163866
0.000159766
0.000148782
0.000251463
0.000215698
0.000241056
0.0297309
0.000279764
0.000156817
0.0585765
0.000155468
0.0551668
0.000153067
0.0364531
0.000217525
0.0565136
0.0553706
0.000164943
0.000164337
0.000160512
0.0195124
0.000152023
0.0260384
0.029321
0.0286911
0.0193306
0.000162068
0.000170106
0.000201161
0.0358884
0.000155958
0.000203076
0.000170168
0.000156228
0.000185884
0.0304809
0.000167455
0.0203196
0.0136008
0.000210498
0.000148852
0.000215432
0.000153061
0.0290192
0.000151235
0.000144968
0.000160399
0.0564069
0.000159982
0.0801997
0.0370781
0.000223526
0.000179153
0.000265968
0.0478871
0.000147751
0.000187491
0.0705076
0.000145615
0.000148645
0.0298928
0.0164639
0.000151369
0.000161226
0.000173585
0.0301548
0.0575248
0.000162406
0.0503815
0.0241284
0.000151834
0.000317524
0.00015722
0.00968446
0.00022309
0.000217452
0.000166627
0.000300908
0.0464737
0.000149413
0.000153233
0.000156789
0.000200408
0.000159943
0.000158465
0.0211135
0.000234382
0.0658351
0.000160231
0.053502
0.0303382
0.000196509
0.0309548
0.0310429
0.000152164
0.0307573
0.0757211
0.000199141
0.000205304
0.0313681
0.087691
0.0584006
0.0311497
0.000184998
0.000163155
0.000198346
0.0266569
0.0295009
0.0315914
0.0703712
0.0187414
0.000149819
0.0247578
0.000184482
0.0720094
0.000160439
0.000147099
0.000223342
0.000261015
0.085235
0.000230907
0.0133477
0.000174481
0.000241457
0.000162895
0.000159783
0.000153531
0.000151631
0.000170996
0.000223422
0.000225158
0.0593484
0.0318676
0.0375034
0.000148127
0.000158986
0.000163149
0.000166092
0.000150595
0.0251059
0.000167138
0.00381958
0.0272875
0.000147915
0.0764304
0.0312488
0.0345768
0.000147045
0.0002
0.0311099
0.081064
0.000179626
0.000163774
0.000196674
0.000170622
0.000203779
0.00020235
0.000164469
0.000188866
0.0321421
0.0317965
0.0333898
0.000171884
0.000149609
0.000148993
0.0544747
0.0307426
0.0316653
0.000156108
0.0319564
0.0599156
0.0615208
0.000153208
0.0376686
0.0350143
0.0353532
0.000196458
0.081532
0.0339016
0.000147881
0.0364315
0.0341256
0.000147952
0.0628641
0.03422
0.0357688
0.0607883
0.0367554
0.000147714
0.000195571
0.000209329
0.000208345
0.00019984
0.000217601
0.000160049
0.0849476
0.000205453
0.0419219
0.000208329
0.0319077
0.0781606
0.000207345
0.0180473
0.0917423
0.0327703
0.000149254
0.034511
0.0877575
0.000208344
0.0321199
0.000156403
0.0573501
0.0855493
0.000181955
0.00667552
0.00017527
0.000148536
0.000159891
0.0795998
0.0873731
0.0662171
0.065193
0.000195275
0.000163848
0.0661786
0.000151048
0.000155143
0.0567216
0.000159034
0.000182875
0.0862511
0.0865699
0.000152228