/*--------------------------------*- C++ -*----------------------------------*\
| =========                 |                                                 |
| \\      /  F ield         | OpenFOAM: The Open Source CFD Toolbox           |
|  \\    /   O peration     | Version:  v2012                                 |
|   \\  /    A nd           | Website:  www.openfoam.com                      |
|    \\/     M anipulation  |                                                 |
\*---------------------------------------------------------------------------*/
FoamFile
{
    version     2.0;
    format      ascii;
    class       volScalarField;
    location    "200";
    object      nut;
}
// * * * * * * * * * * * * * * * * * * * * * * * * * * * * * * * * * * * * * //

dimensions      [0 2 -1 0 0 0 0];


internalField   nonuniform List<scalar> 
15335
(
0.00294403
0.00102177
0.00216094
0.000290703
0.0058366
0.00320619
0.000876169
0.000607686
0.00073868
0.00550801
0.0035452
0.00281472
0.00588141
0.0010642
0.0130301
0.0015787
0.00269556
0.0110538
0.00587104
0.00130856
0.022783
0.0229253
0.000932501
0.005859
0.000661699
0.000168454
0.000181518
0.000143975
0.00424547
0.000746175
0.000188755
0.0156724
0.005836
0.00245197
0.00347451
0.000597238
0.000588972
0.000259472
0.00483201
0.000133978
0.00124863
0.0014706
0.00349648
0.00204599
0.00313388
0.00584273
0.00103929
0.0196858
0.00391076
0.000797894
0.00585695
0.0150786
0.00103846
0.00583608
0.00316278
0.000903323
6.03582e-05
0.0161741
0.0013026
0.00359927
0.0177224
0.0200073
0.000215588
0.000455168
0.00577585
0.00290784
0.00464416
0.0174611
0.00592962
0.00585031
0.000897067
0.00116016
0.000724777
0.0201592
0.00715595
0.0206446
0.00122382
0.000416306
0.00705473
0.00583679
0.0105545
0.000122779
0.0114656
0.000736183
0.00035682
0.00585065
0.00586996
0.00203677
0.000787179
0.00102716
0.00909501
0.00088198
0.00285066
3.04015e-05
0.00233732
0.00178756
0.00583943
0.000448647
0.00585301
0.00583655
0.00345037
0.0214351
0.000589382
0.00117807
0.00271399
0.000715863
0.00361301
0.000220257
6.25732e-05
0.000201445
0.0140675
0.000746305
0.0058423
0.0027906
0.00100395
0.000833757
0.000900091
2.81182e-05
0.00883133
0.0010609
0.00959182
0.00449626
0.0200834
0.0135201
0.00355549
0.00414526
6.55424e-05
0.0058376
0.00133665
0.00295487
0.0182851
0.00441326
0.0058667
0.000129292
0.000406058
0.00583562
0.0119378
0.00469
0.000191781
0.000617659
0.000987023
0.00102151
0.000255835
0.00602015
0.0228721
0.000496198
0.0192391
4.92173e-05
0.000210346
0.0127307
0.00141339
0.0151827
0.00453464
0.00162055
0.0188722
0.00583614
0.0217346
0.00315086
3.98646e-05
0.0124293
0.00583601
0.000326372
0.0142562
0.000702677
0.00517412
0.00258758
0.00436642
0.0058543
3.09861e-05
0.00104693
0.00107283
0.000666783
0.0244572
8.55337e-05
0.000542418
0.00583695
0.00583633
0.0140136
0.0018725
0.00322386
0.000512574
6.85848e-06
0.0195961
0.000724603
0.000789118
0.0064608
0.00107202
0.00029721
0.0191135
0.0190441
0.00214148
0.000266897
0.00195425
0.000569905
0.000780586
0.00272913
0.00584116
0.00423677
0.00324997
0.00569386
0.000458511
0.000131175
0.000276202
0.00209087
0.00348613
0.000488197
0.00583629
8.56068e-05
0.000268054
0.000517812
0.000232264
0.00382009
0.0198642
0.00083245
7.53425e-05
7.9676e-05
0.00227507
0.0175185
0.00109404
3.90961e-05
0.00373026
0.00584586
0.000926782
0.00218656
0.00024849
0.00159941
0.00586863
0.000349152
0.000635164
0.0115671
0.00584179
0.00584249
0.0053752
4.16714e-05
0.00276137
0.00029187
0.000681085
0.00132066
0.00583641
0.00140426
0.0247012
0.000205198
0.0191015
0.000778647
0.0038874
0.00584648
0.0012588
0.00306416
0.0203127
0.022129
0.00210094
0.00222039
0.00585614
0.00585593
0.000621253
0.00236769
0.000905565
0.0185113
0.00584658
0.000490371
0.00025473
0.00583622
0.00586258
0.00319586
0.00593781
0.00584794
0.0131628
0.00484497
0.00346253
0.00268514
0.0137305
0.00366063
0.00333847
0.00584058
0.00259226
0.000899284
0.00215287
0.000668862
0.000460141
0.000684117
0.0003282
0.0212498
0.00589023
0.000938605
0.00158237
0.0132498
0.0241453
0.00167004
0.00104939
0.0018395
0.00304834
0.00248743
0.000130465
0.000942909
0.000946385
0.000133228
0.00586292
0.00109991
0.00396563
0.0177448
0.00373294
0.0244373
0.000200371
0.0123341
0.0058339
0.00767046
0.00440763
0.00583635
0.00673017
0.000586501
0.0179184
0.00594199
0.000733903
0.0130041
0.00819688
0.00482325
0.00217984
0.0209243
0.00239118
3.64448e-05
0.000314793
0.00591812
0.000111363
0.0130785
0.000690158
0.0191073
0.0180813
0.0106771
0.00172387
0.00134861
0.00583637
0.00021072
0.00125406
0.00103279
0.000128651
0.000593384
0.000244268
0.00468467
0.000331272
0.00429411
0.00080108
0.00116326
0.00583953
0.00125856
0.0019873
0.000570077
0.002365
0.000487994
0.00584639
0.00930224
0.0219528
0.0171374
0.000927842
0.000723269
0.00349961
0.00584709
0.000264868
0.000374867
0.00140783
0.000542523
0.00157499
0.000786105
0.00186234
0.00507918
0.000289588
0.00225875
4.14276e-05
0.000862843
0.00131905
0.00583691
0.0112257
0.000681248
0.000448881
0.0148589
0.00444199
0.00177714
0.0137227
0.00194181
3.18137e-05
0.0199414
0.00583955
0.00101892
0.0106466
0.00526474
0.000990345
0.00584184
0.000734601
9.33456e-05
0.00115348
0.00272666
0.00437394
0.000941076
0.00584126
0.00114916
0.00714726
0.0002067
0.000560258
0.00186757
0.000115382
0.0245805
0.000547812
0.000484238
0.00768356
0.00182371
0.00176972
0.000541029
0.0048935
0.000902862
3.44282e-05
0.000844665
0.000751395
0.000300739
0.00845103
0.0149109
0.00122085
0.0189846
0.0135418
0.00138771
2.4809e-05
0.000259072
0.000381613
0.00345127
0.0153378
0.00584017
0.00109917
0.0108681
0.00138762
0.0188147
0.00149088
0.000137404
0.0225587
0.00138385
0.00204076
0.0220344
0.00521097
0.000207101
0.0247113
0.00247524
0.00584791
0.00296531
0.00127582
0.0184268
0.00393924
0.00106872
0.00128052
9.86984e-05
0.00113616
0.00113426
0.0011321
0.00365432
0.00224736
0.00415634
0.000261448
0.000781644
0.0233671
0.0218983
0.00307527
0.0225773
0.0197586
0.00121482
0.0243189
0.000401929
0.000115641
0.0237329
0.00146753
0.000720923
0.00102848
0.0031051
0.000122104
0.0141433
0.00124723
0.000973918
0.00564935
0.00457236
0.00583653
0.00594468
5.44582e-05
0.0147748
0.0185415
7.19279e-05
0.000231286
4.77245e-05
0.00143594
0.010427
0.00102849
0.00590077
0.0058363
0.00668563
0.00433051
0.0205205
0.00584864
0.00112726
0.00587078
0.0107837
0.000189317
0.00583655
0.00183121
0.000886743
0.000338655
0.000459407
0.0159986
0.00182319
0.00110657
0.00304295
0.00308588
0.00160341
0.00527833
0.00225142
0.00150764
0.000216143
0.00551336
0.00583593
0.00583598
0.00331831
0.000565066
0.00126855
0.00173163
0.000663631
0.00333389
0.00175864
0.0108472
0.00583566
0.0178941
0.0100403
0.0204304
0.0207336
0.00264315
0.00889073
0.0205644
0.0123038
0.00342895
0.00153398
0.0174433
0.000100025
0.0021561
0.00104974
0.0178982
0.000500025
0.0218753
0.0205119
0.0165994
0.000167148
0.00180084
0.00150303
0.000458663
0.00583246
0.000111724
0.000308749
0.00245165
0.000612974
0.000766035
0.000323821
0.0227206
0.0201263
0.0193849
0.000728804
6.32076e-05
0.00583657
0.00133097
0.00584816
0.000388238
0.0199654
0.00333041
0.00144107
0.000343831
4.05282e-05
0.00482853
0.00285653
0.000309562
0.00465265
0.00362746
0.00130419
0.00583577
0.000300999
0.00495309
0.000442984
3.94917e-05
0.00577686
0.000776637
0.0125486
0.00588482
0.000230816
0.0220713
0.00909688
0.00334661
0.00408725
0.00106831
0.000758234
0.0129881
0.00238044
0.000442789
0.00585307
0.00583466
0.0058362
0.0147323
0.00106711
4.77429e-05
0.0224005
0.00138012
0.000746658
0.00185475
0.00125676
0.0193116
0.00334292
0.00117655
0.0210236
0.00587031
0.00202034
0.0100432
0.000203123
0.000271927
0.0165334
0.0178761
0.000670352
0.0173993
0.000148144
0.000846912
0.00583734
0.000430999
0.00121307
0.019337
0.000730705
0.00583529
0.000809849
0.0058405
0.00180514
0.0127448
0.000674123
0.000327021
0.00462218
0.00122529
0.00583682
0.00595539
0.000398363
0.00583543
0.0208748
0.00152502
0.000793797
0.00995116
0.00584581
0.00111044
0.00897246
0.000363328
5.31594e-05
0.0167255
0.00195428
0.000738151
0.00583656
0.0239259
0.000216949
0.0115026
0.000198026
0.00860516
0.0174022
0.000107719
0.00290052
0.00586324
0.00103943
5.45528e-05
0.000499632
0.00105218
0.00969575
0.00584229
0.00490074
0.00103208
0.000606287
0.00587238
0.00330852
0.000167482
0.00030372
0.00314279
0.00163137
0.00355079
0.000232343
0.00243569
0.000483624
0.00320146
0.000243857
0.0195833
0.00583667
0.0200981
0.00128914
0.00584346
0.000426352
0.000455034
0.000690487
0.0146824
0.00120033
0.000366393
0.000283382
0.00274698
0.00584544
0.0246247
0.00557328
0.00585588
0.00584757
0.000605289
0.0058556
0.00305526
0.000256765
0.00839935
0.01438
0.00413696
0.00037664
0.023978
0.0010117
0.00583641
0.000112974
0.000871555
0.00356815
0.00172826
0.0144613
0.000766764
0.00338269
0.00145398
0.000775371
0.00583901
0.0157754
0.00583881
0.00111133
0.00118255
0.00583469
0.00295424
0.000428237
0.000210111
0.000260927
0.0218146
0.0140049
0.00583742
0.0205034
0.000231662
0.000964023
0.000810795
0.000837464
0.00106175
0.00106141
0.000971359
0.0166861
0.000194138
0.00134759
0.000123248
0.000662671
7.76411e-05
0.000188628
7.28671e-05
0.00338493
0.000225513
0.0237657
0.000414144
0.00107973
0.0185404
0.00163419
0.00516132
0.00236614
0.00048971
0.0182677
0.0233059
0.00354251
0.00273687
0.00177315
0.000689927
0.00365511
0.00518446
0.00103301
0.0161045
0.00584429
3.55209e-05
0.00161727
0.000844351
0.00878322
0.00586848
0.0208089
0.00116839
0.000108741
0.000432988
0.000325889
0.000321826
0.00583702
0.00364204
0.000674053
0.00288103
0.00145261
0.00584423
0.000550182
0.00414343
0.000897103
0.000487506
0.014059
0.000954365
0.00583613
0.00722189
7.00079e-05
0.0222588
0.00127434
0.000263345
0.000957428
0.00316764
0.00588321
0.0010197
0.0026548
5.34886e-05
0.00113355
0.00585618
0.00213062
0.0140834
0.00244131
0.00354396
0.000367665
0.00584122
0.00757336
0.000246832
0.0058512
0.00396845
0.00583713
0.00257006
0.00584276
0.00584853
0.0137722
0.000385529
0.000365928
0.00109712
0.00583696
0.0028542
0.0016833
0.00739356
4.71626e-05
0.0228071
0.00065772
0.00583738
0.00109856
0.00258195
0.0197281
0.00107071
0.000341759
0.00125805
0.012789
0.00295095
0.0059069
0.00836919
0.0241314
0.0011538
0.000414988
0.0058649
0.000825808
0.00160188
0.00122532
0.000920636
0.00584791
0.0114712
0.000581525
0.00584606
1.69157e-05
0.00120212
0.000165772
0.00229604
0.00121176
0.00584685
0.00332181
0.000734515
0.000341702
0.00072475
0.000299601
0.000797018
0.000451618
0.00104725
0.000544951
0.00583478
0.000660459
0.000989766
0.00269012
9.12153e-05
0.00262678
0.000752139
0.0195175
0.0178562
0.00275656
0.0199896
0.00037878
0.00583894
0.00148293
0.00101091
1.72855e-05
5.46273e-05
0.0058523
0.000696219
0.000783534
0.0199231
0.0210012
0.00288818
9.46312e-05
0.00280813
0.0116995
0.00164814
0.000152842
0.00135056
0.0227678
2.10657e-05
0.00166186
0.00583352
0.00119438
0.0108737
0.00302293
0.00290727
0.00333435
0.0168415
0.00557452
3.41475e-05
8.27625e-05
0.00584932
0.0049622
0.0236888
0.00111224
0.0209287
0.000200657
0.00205878
0.000936601
0.00112079
0.00130463
0.000704614
0.00126171
0.000207313
0.00585006
0.00585046
0.0206296
0.000756924
0.00584192
0.0210694
0.0050877
0.00301916
3.33888e-05
0.00587146
0.00107904
0.00248475
0.00679064
0.0154325
0.00216232
0.00179522
0.0179496
0.0017027
0.000377056
0.00268051
0.000252125
0.00269126
0.000488824
0.00313794
0.000872911
0.0186957
0.00170377
0.000769163
0.0197812
0.00101049
0.0241343
0.00261883
0.000723039
0.00583915
0.014987
0.000325368
0.00584995
0.00115069
0.00244895
0.000521391
0.0054782
0.00583548
0.0177578
0.00585044
0.00146469
9.19268e-05
0.0118185
0.000778808
0.00353339
0.00584632
0.0212363
0.00584453
0.00155615
0.000108936
0.0196941
0.00012849
0.0147792
0.00708441
0.000153378
0.00342582
0.0157296
0.001165
0.0176452
0.00176667
0.000817501
3.96286e-05
0.000670702
0.00586939
0.000160668
0.000239942
0.000188061
0.00180205
3.84571e-05
0.00276847
3.03893e-05
0.00398
0.000639908
0.00583987
0.0238954
0.00584707
0.00361742
0.0174854
0.00113088
0.00105988
0.024512
0.000199613
0.00585752
0.000203409
0.000613312
0.000106494
0.00583812
0.000263516
0.00317472
0.000249498
7.00925e-05
0.0123254
0.0168326
0.0058359
0.0106954
0.000358759
0.00126161
0.0119302
0.021091
0.000610885
0.00583791
8.50047e-05
0.0166277
0.000693352
0.000390351
0.00583486
0.00583932
0.00585211
0.00583808
0.00217098
3.68159e-05
0.000335376
0.0035008
0.000469019
0.00584384
0.00285544
0.0165844
2.94878e-05
0.00227629
0.00113349
0.00345454
0.00193216
0.0177358
0.000328315
0.000184056
0.00311816
0.00516382
0.00111995
0.00041155
0.00595589
0.00399572
0.00583969
0.00583286
0.00415315
0.000453994
0.000342359
0.0216715
0.000337638
0.00584597
0.00308834
0.000355289
0.0195601
0.00336803
0.00681375
0.00584698
0.00585061
0.00173918
0.00583698
0.000817934
0.00293465
0.00584348
0.00290246
0.000743277
0.00592237
0.00583747
5.02711e-05
0.0166062
0.000880983
0.0178524
0.00172139
0.000695451
0.00583396
0.000180451
0.000959557
0.0192215
0.00349239
3.77871e-05
0.00585046
0.00102688
0.00188655
0.000141435
0.0243826
0.0192343
0.022346
0.000112519
0.000830776
0.000976062
0.0236427
4.46169e-05
0.00121856
0.00585708
0.00893299
0.000723775
0.0243519
0.0058347
0.00583668
0.0246137
0.000161712
0.0171985
0.00109278
0.00583614
0.00106278
0.0173764
0.000794791
0.00025201
0.00046254
0.000651976
0.000261897
0.00154647
0.00157201
0.00082043
0.00640873
0.000577249
0.0057618
0.00583685
0.000551954
0.0187784
0.00048142
0.00591211
0.00583886
0.000932022
0.000771697
0.0058353
0.00281706
0.000800318
0.00364414
0.00584716
0.0161448
0.00123535
0.0213216
0.00583659
0.00583701
0.000293051
3.64557e-05
0.000410921
3.12863e-05
0.000654857
0.00113758
0.00590722
0.0176108
0.000653425
0.0179114
0.00499676
0.000402284
0.00046239
0.00161269
0.018038
0.000213513
0.0140425
0.00559064
0.00583662
0.000760349
0.000332159
0.0240286
0.000980471
0.00583364
0.00196762
0.000724077
0.0210657
0.014912
0.00355287
0.000945364
0.0149486
0.0201096
0.000619889
0.0169157
0.00112587
0.00159589
0.00444274
0.00357906
2.95133e-05
0.012725
0.0169833
0.0018539
0.00380863
0.000167502
0.00111576
0.000491849
0.0203358
0.000953414
0.000558532
0.00178203
0.00359315
0.00495161
0.00583645
0.00583651
0.00343676
0.000772089
0.00584795
0.00584366
0.0201696
0.00591314
0.000749188
0.0183519
0.000290112
0.000796879
0.00337204
0.0123725
0.00204809
0.00338668
0.00587453
0.0241035
0.00211918
9.97006e-05
0.0217346
0.000773883
0.0153383
0.0211849
0.00174979
0.0158924
0.00158335
0.0212138
0.0179086
0.00426668
0.00099672
0.00311747
0.00162689
0.00583555
0.00113841
0.00672281
0.0212227
0.00291343
0.00132582
0.00584677
0.000290075
0.000950669
0.00107838
0.0057316
0.000361124
0.000831963
0.00590575
0.00592745
0.000595993
0.000265893
0.0210442
0.0024679
0.00015142
0.00587889
0.000515148
0.00593235
0.00378429
0.0240619
0.00713483
0.00113407
0.00110311
0.00117692
0.00244558
0.00583704
6.35959e-05
0.000251876
0.00121182
0.00586809
0.000831619
0.00180222
0.00290792
0.000375038
0.0022915
0.00159964
0.00107244
0.000756443
0.0189293
0.00583528
0.00591538
0.000958386
0.0211297
0.00109689
0.0113056
0.0011267
0.000998415
0.00150117
0.00584247
0.000493404
0.00232622
0.0027258
3.23687e-05
0.00392085
0.0218023
0.00583725
0.00583912
0.00198073
0.00583537
0.0205937
0.00428715
0.00267809
0.00268486
0.00343037
0.000881552
0.000251659
0.000816314
0.00392673
0.000359854
0.00583516
0.00378536
0.000876803
3.9774e-05
0.0112251
0.00907
0.0198895
0.00583583
0.00065796
0.0130564
4.13353e-05
0.000682643
0.012974
0.000479262
0.00177956
0.000226314
0.000500827
0.0111205
0.0205358
0.000396557
0.020491
0.000485971
4.74155e-05
0.00246581
0.000949493
0.000323352
0.00583693
0.00375242
0.00583505
0.0232296
0.000215699
0.00174213
0.0144719
0.000614969
0.000625927
0.00589241
0.0118165
0.000140527
0.00601344
0.0247433
0.00585254
0.000574555
0.00228765
0.00241797
0.00122209
0.00583448
0.000610114
0.00123226
0.000922755
3.39787e-05
0.00101741
6.47332e-05
0.00587659
0.000307471
0.00584016
0.000977773
5.65988e-05
0.0194284
0.000203026
5.15153e-05
0.00354545
0.00600727
0.02042
0.00261991
0.00115445
0.000305109
0.0221994
0.00213304
0.0223912
0.00583505
0.00308651
0.000587136
0.00583855
0.00583779
0.0116878
0.00658282
0.000250501
0.000401709
0.00236568
0.00318866
0.0058387
0.0242007
0.017815
0.000965644
0.0117162
3.64931e-05
0.000190973
0.00169926
0.00358268
0.00433994
0.00583711
0.000982597
0.00523302
0.00192903
0.00583574
0.00170938
0.00583964
0.0238931
0.000194142
0.0219022
0.0195925
0.000626839
0.0214465
0.00583628
4.15775e-05
0.00334313
0.00905078
0.000971663
0.00460858
0.00510881
0.0114803
0.0239163
0.000164519
0.00248612
0.000522955
0.00120132
0.00173289
0.00148113
0.000503222
0.00378434
0.00583605
0.000860024
0.000637878
0.00746348
0.000843718
0.000641911
0.0236113
0.00115334
0.000138027
0.015496
0.00586874
3.11038e-05
0.000704539
0.0171028
0.000569553
0.0244014
0.000765221
0.000285272
0.00179527
0.0114207
0.000847866
0.00194625
0.000567043
0.00584162
0.00129336
0.000503081
0.000422291
0.00225339
0.00267015
0.000166681
0.00062619
0.0238473
0.000886484
0.00100332
0.00588124
0.0220703
0.00191345
0.00807868
0.000481976
0.000554832
0.0232547
0.00401641
0.00585132
0.00583614
2.22481e-05
0.00173641
0.0225186
0.000497793
0.000390012
0.0238934
0.000392949
0.00583563
0.0182099
0.00065568
0.00130407
0.00364751
0.00896941
0.00583876
0.000164565
0.00583544
0.00193651
0.0235707
0.00109728
0.0096285
0.0157146
0.0140712
0.000770389
0.0123434
0.000541408
0.00355575
0.00112234
0.00137596
0.000135113
0.0200238
0.00443622
0.00289538
0.000650549
0.00103787
0.000356964
0.00177843
0.000496332
0.00143836
0.00584564
0.000562553
0.00163382
6.49961e-05
0.00316561
0.000777985
8.10678e-05
0.00224541
0.000161492
0.0242943
0.000952296
0.00583553
7.44923e-05
2.57204e-05
0.00589005
0.000855471
0.00258964
0.0222034
0.000387908
0.000386272
0.00270352
3.64795e-05
0.00583478
0.000248208
0.0135608
0.0152872
0.00281321
0.00615216
0.000292854
0.000763497
0.00217426
0.000310754
0.0201159
0.000478821
0.00587341
0.00213327
0.0058428
4.87877e-05
0.00583452
0.0014629
0.00141539
7.00181e-05
0.00325448
0.0136344
4.2381e-05
0.000406416
0.0025601
0.000753672
0.0243022
0.00102949
0.00152814
0.00583559
0.00339937
0.000964293
0.00123573
0.000296934
0.000985724
0.00344643
0.00583669
0.00442008
0.00088141
0.0239368
0.0122045
0.0011899
0.000319522
0.000207642
0.000180061
0.00451603
0.00194427
0.0035489
0.000438666
0.000666893
0.00258342
0.00510363
0.000719093
0.00235531
0.00583912
9.84783e-05
0.0181825
0.000899295
0.00108647
0.00583582
0.00268987
0.0112914
0.0117744
0.0231941
0.000576532
0.00585439
0.0215443
0.00584305
0.0231004
0.0194977
0.00100077
0.0105988
0.00071992
0.00130712
0.000949262
0.00360154
0.000624531
0.00420948
0.00112542
0.00583662
0.00072049
0.000608509
0.00589445
0.00585401
0.00114547
0.0074429
0.0232498
0.0142164
0.000825633
0.00209794
0.000133948
2.66755e-05
0.021414
0.000354708
0.00258503
0.00161331
0.00101836
0.00143506
0.022429
0.00042805
0.00583569
0.00390255
0.00583675
0.00149731
0.000167829
0.00082272
0.0119126
0.00159465
0.0170761
0.000412197
6.102e-05
3.31017e-05
0.000386888
0.00586481
0.00196
0.000155512
0.0091002
0.000617365
0.016558
0.000850199
0.00583642
0.000638526
0.0235582
0.00133423
0.000835485
6.75471e-05
0.0200038
0.017604
0.0217614
0.0015704
0.000495568
0.000162936
0.00586213
0.00589122
0.000191348
0.00190618
7.15759e-05
0.000722885
0.00583428
0.000163662
0.00195001
0.00583641
0.0179821
0.00360842
0.00325408
0.000860392
0.000511301
2.36066e-05
0.00449136
0.000674707
0.00243636
0.000393616
0.00583552
0.010185
0.000957105
0.00181325
0.0163798
0.000399221
0.000146186
0.000287543
0.00285672
0.0024508
0.00112785
0.0015271
0.016799
0.00105083
0.00101556
0.0244993
0.0066401
3.91999e-05
0.000699163
0.0121543
0.0154599
0.0232401
0.000340891
0.0189168
0.000596189
0.0242363
0.019766
8.40044e-05
0.00584285
0.000132614
0.0154608
0.00253952
0.00341842
0.00579233
0.0028356
0.000244033
0.0213067
0.000322289
3.44715e-05
0.000182553
0.0028541
0.00010982
0.0124585
0.00583919
0.0079738
3.74623e-05
0.000170709
0.000770675
0.00300289
0.00584647
0.0123084
0.00234756
0.01957
0.0023918
0.000772457
0.00583551
0.00891961
4.00561e-05
0.0226856
0.00271464
0.000610775
0.00583639
0.000342986
0.0164645
0.00200492
0.00344652
0.00421708
0.00583622
0.0058667
3.9808e-05
0.00440404
0.00317853
0.0223216
6.01673e-05
0.0106346
0.0226726
0.000510181
0.0130081
0.00185019
0.000409053
0.00452559
0.000695388
0.0011259
0.0010823
0.00258981
0.00584164
0.00327957
0.000197355
0.00587644
0.00128834
0.000447409
0.00584339
0.00390039
0.000637581
0.00583455
0.000473273
0.00583668
0.0196416
0.0228882
0.0244583
0.00584578
3.26145e-05
0.000629203
0.0032612
0.0027214
0.000401841
0.000670395
0.000832783
0.000320348
0.0207463
0.000508298
0.000208164
0.00241716
0.00528016
0.000383298
0.022948
0.00220787
0.0158507
0.00596499
0.000249491
0.0023567
0.00387287
3.10038e-05
0.00186293
0.00188543
0.000182895
0.0023138
0.000555295
0.000956549
0.00201627
0.000783387
0.00590019
0.000182112
0.000711566
4.83919e-05
0.000178002
0.00585963
0.00295061
0.000656954
0.000888374
0.0185619
0.000686092
0.00329502
0.0124825
0.00583908
0.00023222
0.00583564
0.00331996
0.000254803
0.00215492
0.000463532
0.00585714
0.0040032
0.000686244
0.0233519
0.0156624
0.000267489
0.00202587
0.00307367
4.9672e-05
0.000575982
0.00590737
0.00585117
0.000872453
0.00583344
0.0198189
0.000699757
0.00586033
0.0011447
0.0234114
0.00585616
0.00142106
0.000355212
0.000208809
0.0207682
0.00357514
0.000184008
0.00592165
0.022295
0.0031517
0.000474548
0.00182804
0.000508994
0.0058486
0.0120835
0.00953387
0.000761635
0.00583592
0.00240099
0.000916575
0.000340116
0.0217835
0.000297999
0.00292861
0.00368804
0.000629251
0.000620185
2.55087e-05
0.000232519
0.000846225
0.000465449
0.0207423
0.00583416
0.0191481
0.00112871
0.00085958
0.0051218
0.00585025
0.00274922
0.00136216
0.000655565
0.000414215
8.54277e-05
0.000372016
0.00896441
0.0137439
0.00151706
0.00207687
0.00446438
0.00326246
0.0031366
0.000176285
0.00583915
0.00081311
0.000853243
0.0155357
0.0223264
0.0222189
0.00431858
0.00601551
9.4877e-05
2.67613e-05
0.00736033
0.000557064
0.0028271
0.000431853
0.0209322
0.00117108
0.000402783
0.00472702
0.000247287
0.00121912
0.000829427
0.00105413
0.00583865
0.0197102
0.0087852
0.00131003
0.00492914
0.00301165
0.000546923
0.0225206
0.000455348
0.000186345
0.00176006
0.000458508
3.14357e-05
0.000628646
0.000515169
0.0174859
0.00169574
7.52051e-05
0.0115759
0.00752737
3.23469e-05
0.0232091
0.000715239
0.0124327
0.0039413
0.00123235
0.00040815
0.00584515
0.00168719
0.00288341
0.00111944
0.0231913
0.00583685
0.0040075
0.000493962
0.0223036
0.000310931
0.000995593
0.00263154
0.0214763
0.0095715
0.000197912
0.013873
0.000988765
0.00133424
0.00162156
0.000252897
0.0197903
0.00012705
3.77902e-05
0.0223041
0.0118187
0.00139843
0.00352061
0.00593526
0.00149174
0.00109025
0.00260882
0.00174038
0.000394391
0.000953579
0.000224577
0.00112885
0.00526239
0.00232162
0.000110422
0.00507684
0.0195493
0.00112738
0.00352648
0.0201919
0.000770362
0.00583551
0.00594385
0.000439516
6.27081e-05
0.00128727
0.0118465
0.000388556
0.000304395
0.00122987
0.00440471
0.00264648
0.000948515
0.0100375
0.00340997
4.59484e-05
0.00120772
0.00367753
0.000666579
0.0225505
0.0014117
0.0058464
0.00123346
0.00583268
0.00254537
0.00453694
0.00501093
0.000597736
0.00887331
0.00584623
0.0213205
0.00235256
0.0106781
0.00060435
0.0215356
0.00324001
0.017492
0.000860208
0.00700478
0.005837
0.00160598
0.00145659
0.000108106
3.33544e-05
0.000222498
0.0182744
0.000340786
0.000285456
0.00275728
0.00583673
0.000284671
0.00936547
0.00583632
0.0246702
0.00601508
0.0205147
4.09059e-05
0.000325784
0.000661471
0.00496325
0.0187108
0.000728319
0.000404383
0.00138866
0.000255937
0.00354197
0.00829475
0.00014196
0.00270775
0.00016318
0.000539289
0.0025182
0.00636395
0.00590863
0.000321384
0.000115689
0.0232714
0.00429682
0.00583806
0.000306959
0.0015386
0.00584823
0.00583628
2.74099e-05
0.00584763
0.00109674
0.000393678
0.000251288
0.0177379
0.000964407
0.021683
0.0177922
0.000802389
0.000811441
0.0192358
0.000938367
0.00262466
0.000634038
0.00584415
0.00205233
0.00040445
0.00104242
0.00182842
0.0136154
0.0190459
0.0184433
0.000942567
0.00586758
0.021533
0.0204127
0.00155967
0.0200887
0.0205159
0.00708542
0.00268734
0.00406436
0.00100239
0.0055532
0.000593205
0.00248225
0.0058352
0.000300025
0.000725587
0.0181138
0.00105514
0.000259451
0.00585629
0.00583673
0.00963838
0.000440055
0.00879494
0.0155553
0.000659284
0.00592791
0.000386707
4.51448e-05
0.000246847
0.00120315
0.00379492
0.000674784
0.0125088
0.00127901
0.000286964
0.0198197
0.00583517
0.0071206
0.000211816
0.00330365
0.019546
0.00501311
0.00268609
0.0195147
0.000138208
0.0108372
0.0011382
0.0187967
0.00241789
4.54782e-05
0.000173603
0.0228178
0.00583642
0.00710394
0.00368109
0.0210502
0.00537247
0.00704081
0.00190931
0.0125525
0.000967395
0.000463546
0.00064446
0.0223246
0.00583567
2.84757e-05
0.00388366
0.000892076
0.000349332
0.00548018
0.0196924
0.00553363
0.00593088
0.00585982
0.00597558
0.0218148
0.0131175
0.00197385
0.000472399
0.00154936
0.0116136
0.0235601
0.0229706
0.00720934
0.00102013
0.00723807
0.023489
0.00978102
0.000305559
0.0195813
0.016557
0.0123715
0.00584769
0.0208868
0.000355463
0.0212913
0.00362236
0.00166931
0.00583553
7.62559e-05
0.00597837
0.0220861
0.00590644
0.0236053
0.00104276
0.0070101
0.00584124
0.00767996
0.000673391
0.00141079
0.00233399
0.003596
0.000268177
0.00686351
0.00584198
0.000102219
0.00586802
0.00695276
0.0112307
0.00834502
0.000658482
0.000348791
0.0112893
0.0236121
0.000133217
0.0235921
0.0244938
0.0232696
0.0238193
0.00508543
0.00209234
0.0011673
0.00585122
0.0227916
0.0151202
0.00585538
0.000729023
0.00888992
0.0226007
0.00123356
0.00156221
6.5244e-05
0.000691658
0.000299341
2.69231e-05
0.00199963
0.00687207
0.0223283
0.0101973
0.00265656
0.00825236
0.0024792
0.00552846
0.0222727
2.93474e-05
0.0132615
0.00666286
0.00578023
0.000433487
0.0083915
0.00904766
0.000830276
0.00166938
0.0216165
0.0179819
0.000453418
0.000549155
0.00248531
0.000326085
0.000977866
0.00669728
0.000131982
0.000455911
0.000864
0.00583686
3.27969e-05
0.0020211
0.00446562
0.00652347
0.000748468
0.00141212
0.000304456
0.0230707
0.000366171
0.00584579
0.0160811
0.00118646
0.000361771
0.00102841
0.00142541
0.00962861
0.00128442
0.000308868
0.000983494
0.000437799
0.0115261
0.0225589
0.00041509
4.24502e-05
0.000586214
0.00146492
0.00686934
0.00862269
0.00621076
0.0180817
0.00519832
0.00583556
0.00117946
0.00873583
0.000122495
0.000602505
0.000200691
0.00583662
0.0200685
0.00444292
0.00220609
0.00586304
0.000974782
0.0181841
0.0008178
0.0031903
0.00330468
0.000398944
0.000402824
0.000184093
0.0172243
0.000292044
0.0119915
0.00585193
0.0109314
0.00118309
0.00772345
0.00978442
0.00583706
0.00585882
0.00425006
0.00281172
0.00698364
0.00107954
0.00254976
0.000625937
3.37697e-05
0.00583665
0.00220966
0.00378245
3.81711e-05
3.56135e-05
0.0182032
3.25857e-05
0.018934
0.000547506
0.0139171
0.000773602
0.00334967
0.00585279
0.0241294
0.00045518
0.00868755
0.00252471
0.000622114
0.00179364
0.00129144
0.0209998
0.00333237
0.0196825
0.00273356
0.0114347
0.000134609
0.000423313
0.0019966
0.00485473
0.000697765
0.000927811
3.84249e-05
0.00937207
3.94032e-05
0.00102832
0.021241
0.000627175
0.0219086
0.00123073
0.012048
2.94089e-05
0.00390649
0.0187675
0.000277794
0.0011795
0.000287414
0.00573102
0.00371524
0.00550892
0.00931204
0.00826318
0.00260447
0.00187535
0.000154641
0.000544772
0.00615311
0.000445956
3.02415e-05
0.000455814
0.000601876
0.00015705
0.00942955
0.000799509
0.00348729
0.0043585
3.64903e-05
0.00482321
0.000637209
0.00122009
0.00840301
0.00141136
0.0058471
0.00070395
0.0192907
0.000275209
0.0205563
0.00948504
0.00099499
0.000901218
3.66305e-05
0.0179499
0.00586595
0.000208267
0.0169467
0.00584705
0.0058512
0.00897707
0.00397739
0.00106246
0.000208989
6.07597e-05
0.00942776
0.0211891
0.000225082
0.0196333
0.00485283
0.0034345
4.02669e-05
0.00113847
0.00139439
0.00136372
3.76247e-05
0.000488833
3.87318e-05
0.0195292
0.00271343
0.00372912
0.00108828
0.000917232
0.000344638
0.0011615
0.00534905
0.000936512
0.0238705
0.000240582
0.0196787
0.00913108
3.84732e-05
0.00830314
0.00948253
0.000929936
0.00948745
0.01502
0.000132077
0.000615368
0.00962956
0.0151474
0.020254
0.00954747
0.00116763
0.000752705
0.000197848
0.0071637
0.00728606
0.00954462
0.00937345
0.00332323
0.00583639
0.00698816
0.00070413
0.0106894
0.0010755
0.00583555
0.00120372
3.98566e-05
0.0142779
0.000493714
0.00292589
5.93487e-05
3.45882e-05
0.000151437
0.00113406
0.00329658
0.00295241
0.000275494
0.00117256
3.71539e-05
0.0206815
0.00948822
0.0117606
0.00583276
0.000419538
0.00134679
0.000801968
0.0016917
0.00581134
0.00011144
0.00134149
0.00136321
0.005862
0.0175504
0.00944283
0.0111985
0.00583954
0.000798151
0.0085434
0.0111047
0.00140436
0.000723862
0.000140773
0.000466543
0.000797822
0.000535618
0.000813611
0.000827045
0.00948928
0.00877314
0.00973112
7.24724e-05
0.0058356
0.00392248
0.0206841
0.00816351
0.00948978
0.000637892
0.00914518
0.0232337
0.0216139
0.00339594
0.0122052
0.0107392
0.0108867
3.73309e-05
0.0171227
0.0100122
0.00589562
0.0114987
0.0101449
0.00584428
0.0222024
0.0102054
0.0111202
0.0232587
0.0116637
0.00583828
4.62737e-05
0.000737337
0.000200506
0.000565237
0.00100169
0.00120987
0.0106909
0.00112513
0.0154716
0.000692246
0.00940155
0.0161539
0.000677781
0.0038154
0.0165309
0.00935115
0.00545491
0.0104165
0.0147877
0.00128496
0.00939926
0.00114155
0.0220638
0.021844
0.00101605
0.00195028
6.5637e-05
0.00544297
0.00110193
0.0159882
0.013734
0.0241085
0.0231645
0.00028557
0.000250563
0.0240398
0.00358501
0.000537203
0.00700407
0.000354473
0.000651063
0.0148097
0.014686
0.00198722
0.000346657
0.0235011
0.0113323
0.0237462
0.00897123
0.000805046
0.0238431
0.0164527
0.00025099
0.00057265
7.16178e-05
0.00685659
0.000207361
0.00306242
0.00200959
0.0037054
0.00958405
0.000971668
0.0010539
0.000807408
0.000787289
0.000844042
0.00118298
0.00583656
0.00583621
0.00130545
2.59642e-05
0.0229177
0.00115318
3.70794e-05
0.00118894
0.000184851
8.47051e-05