/*--------------------------------*- C++ -*----------------------------------*\
| =========                 |                                                 |
| \\      /  F ield         | OpenFOAM: The Open Source CFD Toolbox           |
|  \\    /   O peration     | Version:  v2012                                 |
|   \\  /    A nd           | Website:  www.openfoam.com                      |
|    \\/     M anipulation  |                                                 |
\*---------------------------------------------------------------------------*/
FoamFile
{
    version     2.0;
    format      ascii;
    class       volScalarField;
    location    "200";
    object      omega_0;
}
// * * * * * * * * * * * * * * * * * * * * * * * * * * * * * * * * * * * * * //

dimensions      [0 0 -1 0 0 0 0];


internalField   nonuniform List<scalar> 
15335
(
6.50323
0.232534
6.49787
0.0402135
3.05968
0.0254533
0.111656
0.403067
0.0359592
4.5364
4.86156
0.0268556
3.2277
11.6313
5.90042
6.46109
0.0288673
5.58302
0.0248765
8.84679
2.8232
2.86455
0.111346
0.0249455
0.210371
0.141065
15.4162
0.142704
7.18159
0.0277251
17.1877
4.65558
0.0256604
0.0255434
0.0253557
0.658854
0.585579
8.38278
5.09238
0.369715
0.181812
3.76346
0.0254174
0.0297847
6.51534
0.0251094
6.3472
3.49017
5.44245
0.0286413
0.0249545
4.99326
5.39615
0.0256761
0.0254297
0.101468
0.160309
5.06598
4.44809
4.85532
2.61963
3.3965
0.0461825
0.0312713
0.0251678
0.0266495
5.27856
4.59639
0.0251082
0.0248245
0.0408297
0.027405
0.211497
2.53114
5.09614
2.6056
0.189328
0.142811
10.4421
0.0256513
3.04932
13.9055
2.85132
0.210602
14.6242
0.0251449
0.0248635
0.029593
0.0275333
0.238539
3.27248
0.0798573
0.0267362
3.80967
3.49106
0.0273054
0.0251217
0.0405209
0.025063
0.0256664
0.02541
2.61686
1.06054
0.0643961
0.0261947
0.0356089
0.0253807
0.0407384
3.21365
0.0547757
2.74594
0.102099
0.0254141
0.0269386
4.91423
0.0275553
0.0408106
3.80194
3.11454
2.57582
3.2213
3.53002
2.52441
3.55828
0.0254306
0.0254078
0.131584
0.0255656
0.0638564
0.0254884
2.65817
5.42359
0.0251314
0.0687369
0.127856
0.0252192
2.89232
9.73418
0.046418
0.39205
0.0789847
0.24161
0.0608251
0.0287521
2.64229
16.3689
2.55196
5.29839
0.186985
2.85125
0.0280416
4.89669
0.025407
0.0271444
2.41593
0.0256608
3.44144
6.50018
3.56043
6.77817
0.0256482
0.0345041
3.59288
0.0497847
4.8776
7.17525
5.37709
0.0249686
10.0702
8.45276
13.5294
3.91675
3.11891
0.0753135
0.15613
0.0256515
0.0256202
3.52223
19.5736
3.45764
0.164269
7.38422
2.55874
0.0387436
0.0388048
4.29926
0.0312898
0.0382736
2.54731
2.66557
7.09062
0.405993
0.0295335
0.183055
1.92581
9.00804
0.0254372
5.5841
0.025437
3.90829
0.0401239
0.0676785
0.0489087
7.8178
5.31582
0.134614
0.0256311
0.0789005
0.0371963
0.0322728
0.0749977
0.0254017
2.40023
0.027407
0.520777
0.0813759
6.23564
4.78308
0.0863463
0.765785
0.0254271
0.0253685
0.0325089
0.0288476
0.221459
4.07793
0.0250833
22.1818
0.0490632
4.47213
0.0252105
0.0250428
4.47533
0.692035
8.3874
0.0631403
0.184165
0.0854254
0.0256006
3.61086
3.00924
0.0551049
2.54003
0.0386173
5.16448
0.0251576
0.0262034
6.05944
3.17743
3.11735
6.88844
8.11304
0.0251129
0.0249667
0.0490917
8.26406
0.0794514
2.67575
0.0248069
0.146116
22.5795
0.0256637
0.0250171
0.0254411
0.0251328
0.0247891
6.54468
5.05029
6.09194
0.0254634
6.16062
5.99111
6.26622
0.0252145
7.32622
0.0270545
0.0255726
0.158269
0.0306607
0.0485238
20.7429
2.6399
0.0250972
0.0788375
0.0288143
2.98514
3.33454
0.0283278
0.0266206
0.0257796
6.6059
0.0267922
0.0673082
0.238444
0.0289791
17.8316
0.0250288
0.174748
0.0253555
2.66938
0.0254355
3.07914
0.142927
4.1577
0.0252555
9.48078
5.37684
0.0256049
5.30407
0.0293024
2.69629
0.0251772
0.211507
3.63368
5.43393
0.0254171
0.025555
3.66161
3.62499
0.557853
0.452881
0.025145
17.8547
3.63152
0.0359705
2.41803
2.69281
4.48502
0.0283483
0.0279396
0.0256534
0.139559
0.0261397
0.23235
0.0737349
1.0983
0.0513659
5.02092
13.2456
5.52117
0.101458
0.119361
0.0254301
0.118256
0.0312165
0.0290741
0.0255498
0.369178
0.0250528
3.08467
2.60445
2.6851
0.0275866
13.8582
5.3535
0.0253657
0.0370612
0.0442575
0.0492587
0.0904419
0.0282377
0.0595673
0.0287838
5.67864
0.0365126
6.43113
3.17729
0.0588208
0.02777
0.0251976
4.11209
0.0291479
0.044466
4.97083
0.0254177
2.91381
5.47472
0.0289359
1.21589
2.40738
0.0254218
0.0288748
2.81302
5.45096
0.0317104
0.0251951
0.105195
0.0768996
0.215857
7.077
0.0254151
0.0271455
0.0251957
0.212764
5.22514
0.229023
0.367323
0.0309132
0.0655942
2.88419
0.087788
0.0904027
3.66619
0.0281051
0.0262793
0.0887025
8.36755
30.3035
0.727702
0.214269
0.211071
0.0352101
5.24963
2.67318
0.190663
3.85517
3.3792
0.0273455
0.970387
0.060279
0.0338104
5.31156
3.54987
0.0251074
0.200765
4.29779
0.117797
3.97099
0.0287498
19.6007
3.60799
3.88216
7.63995
3.75117
4.53274
0.194042
2.9831
6.20827
0.0248149
0.0254438
3.42284
2.68599
0.0253258
0.221913
0.047863
0.0699712
9.65933
0.119727
0.0861632
8.24719
7.12731
5.54366
0.0651686
0.0285881
3.54886
3.38982
0.0254446
2.80854
2.52382
0.0854775
3.06164
0.671628
0.320046
2.93367
0.0483968
0.0348757
0.0304456
0.0254394
0.0823023
3.65683
0.182421
0.195067
5.6298
0.0254128
0.0256393
0.025186
2.81954
5.33587
2.68192
3.13568
0.204978
1.4098
0.0325517
2.91932
0.0264698
0.0251135
0.0256521
3.61683
0.0252916
2.56136
0.0248594
0.0264753
0.0251072
4.3191
1.21031
0.0256609
0.0308949
0.101223
0.0342215
0.0315415
4.14817
0.0286716
0.192436
0.0265701
6.30564
0.0264485
0.0252684
6.65113
0.026299
0.0457544
8.38497
0.0251909
0.0256512
5.36901
0.645601
2.04273
0.0269685
0.0370175
0.0255915
19.6529
4.793
0.0256524
2.6714
4.7028
2.54929
2.61052
0.0255282
3.70129
3.6525
2.87369
5.21302
0.0327745
3.45286
0.0678599
2.87178
0.232296
2.75711
18.432
2.69554
2.56434
2.67366
0.0729064
0.0263616
0.0289571
0.0440441
0.0253987
0.262519
0.0930221
8.51853
0.106528
0.078139
0.963821
3.13884
3.53627
2.36823
0.209525
0.387092
0.0256562
0.0285718
0.0248101
0.0375939
3.2025
0.025532
0.0324001
0.0959764
1.05113
6.24679
3.59971
0.220343
5.17967
0.0253587
0.0260824
0.0256485
0.0379285
4.69237
0.0455461
0.646029
0.025261
0.0397532
3.19122
0.0250913
0.0539592
3.43662
5.81155
5.37516
0.0254212
0.0284103
0.0275957
5.81616
7.83477
0.0373275
0.0248528
0.0252305
0.0256364
3.40361
0.132876
3.15749
2.72986
0.0267899
0.308604
0.0296227
0.0272311
4.36543
0.0253976
0.0311321
2.58596
0.0251154
8.0529
4.80773
0.0463605
0.893427
4.85528
3.69521
0.0402884
3.50946
0.140332
0.0288451
0.0255579
0.0438107
0.085211
4.33777
0.0427026
0.0256356
31.7519
0.0254453
0.0287039
3.02993
0.102691
0.0994082
6.33091
0.0326565
0.0254183
0.0251341
0.0354345
0.0256347
3.54416
0.0264394
0.0766311
3.01633
0.0249588
0.0279052
3.15931
0.0357339
0.146051
4.69544
0.0257918
0.211905
0.0255659
2.9452
0.373922
4.75873
0.198876
3.12865
2.68248
0.0678308
6.06201
0.0248507
0.0868193
0.156057
5.60117
0.0265442
6.75777
0.0254257
8.36005
0.0300791
0.500378
0.0250872
0.025519
0.190181
0.191401
0.025456
0.0340386
0.0254601
0.399061
3.40808
0.0369621
5.30901
14.0005
2.57725
0.025576
3.65123
0.0263299
0.0250299
0.161322
0.0324037
0.0285288
2.90146
0.0306302
0.0356598
0.0356725
0.0254728
0.0249526
2.87866
8.15767
0.0250549
0.0250371
0.143158
0.0251408
6.64013
0.0527982
3.41306
5.10982
0.0253148
0.0495488
2.67964
0.0601812
0.0256631
0.0693629
0.0404794
0.0254083
16.0286
2.90995
0.0388211
6.68657
2.35591
0.0382177
0.025497
4.18757
0.0254907
0.0282762
0.118849
0.0255955
0.0256068
0.165552
2.00479
11.9978
2.69617
3.44304
0.0255689
2.62873
24.2318
0.042938
4.56146
1.71203
0.220967
0.223818
0.0589971
2.74228
0.0422743
7.05733
0.0693544
0.0367679
0.140822
0.185471
2.23072
0.0259166
0.0799066
3.19566
0.0323214
0.0308528
2.38246
4.36545
4.50572
0.0255554
2.61427
2.66042
2.83317
5.38938
0.0255711
0.031171
0.305427
5.64494
4.52509
0.034442
2.71011
0.0251802
0.697207
0.0339314
0.0285132
6.12663
0.0250944
2.72284
0.0328267
0.0821658
0.0314439
0.0344526
11.2443
0.0255667
0.0253282
5.10307
6.8538
0.0325856
0.0251638
0.0311808
5.617
0.0787595
17.3029
5.1633
0.0326414
0.0256254
4.47058
0.149866
2.73654
0.0319496
0.037259
0.0787562
0.0254274
0.0250727
0.034154
3.26617
0.14882
0.117835
0.0250828
6.72887
3.37888
0.0255329
0.0253821
0.033738
0.0254182
5.09499
0.589609
0.0253921
0.0253955
0.0255773
0.0255134
0.0254366
0.0248679
5.5911
0.052733
0.0381377
5.2241
0.0255572
0.0267369
0.0269645
8.89504
2.56874
2.86845
0.0320276
0.0255854
4.22819
0.025499
2.39482
0.029658
0.0826181
3.47645
3.01798
0.0254544
0.0248708
5.3382
2.92661
0.0313918
0.0359321
0.0248593
0.215144
0.0342588
0.0316588
0.0271307
0.0248389
3.17778
0.0339255
0.0250342
3.38143
4.1638
20.5328
6.81947
0.0851044
0.0249274
7.07831
0.16409
3.29138
0.0340687
0.035907
0.0805208
0.0345964
4.10909
1.07181
0.0252441
0.0672694
0.0784555
0.02547
4.07784
0.0264228
0.0276025
3.83226
3.73991
0.0254691
2.41464
8.25006
0.0254275
0.02599
0.176833
2.94812
0.155794
0.0250553
0.0501616
0.0415639
3.13827
2.60647
5.23215
0.078588
0.0255664
2.834
0.0271367
0.0525599
0.0265734
3.08695
1.53189
0.0264768
0.0253639
0.032568
6.63986
16.2524
0.0254428
0.0254374
2.82756
0.0252765
0.587559
0.655833
0.0250545
0.0252983
3.36778
0.0303655
3.87102
29.563
0.0255948
0.0280914
0.119877
0.0277402
0.0688513
0.117576
0.0425849
0.0253955
0.0250586
2.57089
0.0333734
0.0254448
2.58782
3.06903
0.0254545
0.865053
0.0252511
0.0281363
0.0255158
4.20988
2.79234
0.025537
0.0258813
4.08056
0.0286204
0.0911561
0.0262602
0.0537337
0.0254833
0.0413297
0.0254389
1.58168
2.65828
0.0263529
0.0376656
2.57031
0.0277902
2.72194
4.71667
0.0355375
0.0255051
4.33596
0.444914
0.0253907
0.211082
0.0255109
0.649168
4.54183
0.0256356
3.7718
0.0253868
4.37304
0.160279
3.33925
0.0383763
5.73535
0.0249353
3.63173
0.025441
0.0288536
4.3811
2.38946
0.0502479
5.44337
3.96616
0.521131
6.08424
4.15419
0.0328965
3.88118
7.1823
0.027448
0.372647
0.210939
0.0251186
0.0476834
0.0476139
0.0432511
4.65803
0.433706
0.025558
0.665929
0.0254175
0.45047
0.0254306
2.59978
0.0251555
6.02593
2.71073
0.197042
0.171234
2.9754
0.0419465
0.0250402
0.071713
15.6565
0.137091
0.0252075
0.0514975
0.0259803
0.0405873
0.100691
3.57612
4.47162
0.0256624
3.34611
0.0431854
0.182065
3.59581
3.70785
0.427526
0.0252154
0.0864246
5.04612
0.0277511
19.1174
0.0252499
0.0254961
0.0253938
0.0254232
0.0291126
0.457923
0.0339453
4.84106
0.0313133
0.0254468
0.0254563
2.75015
2.66202
0.0262849
0.0852697
5.80607
9.16206
3.90776
0.0362998
0.0854513
6.96805
0.0252984
0.0272071
1.04852
0.0251316
5.74644
0.0251269
0.0253628
5.46194
0.0415513
0.231389
2.50791
0.0329971
0.0249523
0.0256274
0.0358348
2.5935
12.6003
3.55316
0.0248211
0.0253981
0.0268232
0.0255994
0.0273814
0.0254848
0.0250377
0.0254504
0.0702465
0.025093
0.0255828
3.48857
2.69796
0.0277169
2.67482
0.0257189
0.0280533
4.27681
0.516298
0.0294958
2.60652
5.7525
0.414
0.0250784
2.38424
7.3544
0.055824
2.95882
2.60645
2.67978
2.03829
0.0382279
0.0345925
2.53026
0.185011
0.0265066
0.0250545
2.87966
0.0778602
3.18314
0.0256032
0.0255676
2.88858
0.0629581
4.06564
0.0440672
0.0254356
0.220704
5.0782
0.0279343
1.02986
3.27749
0.434305
14.5397
0.0260268
0.0340333
0.0772038
4.18409
0.152446
3.01297
0.0255578
0.13944
2.41608
10.8306
0.025246
0.0254183
0.252925
0.0715971
0.0256334
6.71475
0.0274854
0.0253722
0.0246592
2.75342
7.90761
2.89195
0.025665
0.0256282
0.239719
0.432036
0.112911
0.613398
0.0667007
0.0350277
0.0251717
2.70217
0.37376
3.66936
4.90173
0.0514841
0.577073
0.0340622
4.26713
0.0462764
3.32691
3.92665
0.0256901
0.052218
0.0891102
3.03483
0.0266746
0.0255327
3.50307
0.0380834
3.84029
2.76467
5.13606
0.0328992
3.47628
3.22249
0.0402365
2.45927
3.0301
0.0260333
5.38108
6.05602
0.763034
4.24423
2.68578
0.02569
5.78594
0.0469197
9.15062
0.087279
2.58553
0.245604
0.4974
0.0305746
0.0254182
0.02528
0.0256407
0.0256817
5.94452
0.203859
0.025057
0.025448
3.68349
0.0248952
14.6638
2.76985
14.6174
0.197085
0.0253922
4.04727
0.0256727
5.79856
0.0251089
2.80376
6.5923
0.229181
2.50462
0.0272449
3.47488
2.83087
6.83515
2.72231
16.3279
2.61687
2.78362
5.5243
0.0335179
3.82061
0.0258851
0.0256373
0.120167
3.12489
2.65276
0.0254984
0.0259722
0.0250189
0.0787962
0.17466
0.034744
0.025282
0.752875
0.0375362
0.0251228
0.0251679
0.0654318
1.38432
3.62562
0.0255165
0.447549
0.0251191
0.0315814
4.5374
0.0253567
2.6374
4.09128
0.0353961
0.0447063
0.0458311
0.025485
0.0256056
0.40066
0.220283
0.048393
0.0247255
0.0377543
8.20924
6.84841
16.1159
0.0262852
0.029286
0.221688
0.052986
2.40579
0.0256261
0.0250695
0.056681
3.60618
0.0344599
2.79601
0.12058
0.0338589
0.0260506
0.0251795
0.129695
0.0259125
0.026642
0.432225
0.0253327
2.74152
0.0254195
0.0254993
0.0292362
0.0256271
3.63035
8.25139
7.25097
7.38546
5.59051
0.0797314
0.0658726
0.0281747
5.47341
0.494862
0.0252586
5.48103
4.0076
2.32813
4.05474
3.57834
2.57511
0.0256385
0.506391
6.20972
0.224678
0.0280013
3.45272
0.0495641
0.0288864
0.0506268
0.0302959
2.80086
2.56847
15.448
3.61219
0.0858496
2.42787
5.93477
0.159403
0.0913655
0.0256106
5.88278
0.0256218
2.67044
5.69935
4.74005
3.44203
0.0661587
0.290583
0.0250726
4.25461
0.0491792
0.0285559
2.96664
0.0250756
0.153229
0.0255827
5.52381
6.15141
0.025272
0.0330248
5.65084
0.0314291
0.799801
0.0352001
0.124096
0.0250691
0.0488373
0.0254231
0.0323333
3.33387
2.73679
23.3397
3.59589
5.46183
0.0263415
2.55362
0.0254824
0.0313719
0.08381
2.69701
6.78784
2.48341
0.0252325
12.3542
0.0664852
0.0252429
0.0254138
4.54049
8.34354
1.58838
0.0481267
7.0915
6.16897
0.0254166
3.02698
3.64733
0.0319494
3.93647
0.859155
0.181808
2.39582
3.45375
0.0254203
0.0256249
0.0322393
0.0252679
4.71269
0.0256548
7.01372
0.025152
3.42918
0.0426493
2.46771
3.74737
0.0477628
2.70758
0.025668
1.93547
5.65043
3.11261
0.030768
0.0254196
3.96109
3.95826
3.419
0.0742477
0.0255349
0.0312003
8.86134
3.16806
0.0266417
0.0509301
5.91659
0.0254475
5.86392
0.0680496
3.9631
0.160013
0.419769
2.65251
0.0348835
0.0917441
4.1904
0.0252449
3.47983
0.0495625
2.71916
0.0293436
3.08956
0.027357
0.0775909
0.0288638
4.17103
0.0297555
7.60691
0.0330277
3.99807
0.0318075
0.0506167
0.120404
6.6097
7.25306
2.05488
0.0467571
2.81742
0.0382831
0.0338174
0.0250772
2.45938
0.0256695
3.29827
0.0340566
0.0313544
2.62612
0.0254162
0.024787
0.0256592
3.67417
0.0256932
3.45974
0.0329027
15.6063
2.75416
0.145068
0.025454
3.91462
0.0325595
0.0285059
0.025447
3.21252
0.0254931
0.321905
0.0253345
5.61297
2.77322
0.0292621
3.55588
3.47336
3.08156
0.0307378
5.8591
0.0615329
7.8696
0.029995
0.0276019
0.219365
2.89197
0.0254058
7.47522
0.321909
0.0282716
0.689366
0.0266708
0.0871905
0.0281809
0.0250151
0.0301785
0.0271364
0.12769
0.0254714
0.0414309
0.127827
7.7068
0.0460845
3.22128
0.073943
0.0254655
0.0818845
1.06328
0.0250152
0.0782232
0.025465
3.46335
0.0321718
1.57489
0.0255036
0.497216
0.0254192
0.0383289
6.05786
4.54005
6.74526
3.07568
0.180087
0.0518661
0.0258639
0.0463335
3.85017
17.4534
4.13579
4.84315
0.0253487
2.74937
0.0254225
0.0285786
0.0283693
0.104553
0.0257229
3.54066
1.89145
0.107454
5.26608
0.0758839
3.21822
0.110521
0.0286505
0.0256289
0.0256411
0.02933
0.0301871
0.0744521
0.0599871
0.0255177
0.025656
3.20098
0.109038
2.75473
4.84389
6.67215
9.37591
0.0406224
0.0442803
5.25317
0.0313812
0.0254532
0.0306143
0.102594
0.0262978
3.27208
0.0699675
7.22713
0.0254851
0.071306
3.54662
0.0319662
0.131517
0.0255042
0.0276379
4.00553
2.99241
2.64132
0.0333435
0.0251508
3.62497
0.0254461
2.6453
2.78496
0.0346368
4.55353
0.0312546
0.0866895
0.0282845
0.0257291
0.0293949
10.0431
7.28144
0.0254286
0.10267
0.987745
0.0251109
0.0249825
0.0490535
4.00743
2.59555
3.61499
0.0280959
0.0258457
0.0626657
0.759322
2.84436
0.0467173
0.0255632
0.0267147
0.172192
0.0344802
2.82427
1.82532
0.0256376
5.81481
0.0256497
7.81979
0.0582605
0.0433565
3.11776
0.0356971
4.44221
0.0461319
0.288496
0.504868
0.0318413
0.0252296
0.0257207
0.0481903
3.45465
0.0476473
4.52756
0.0271077
0.0256804
0.0318836
2.78948
0.0259847
0.0778176
3.81954
2.67889
3.70718
2.54224
0.0258678
0.051879
0.0817322
0.0248335
0.0255381
0.0561432
0.0261661
0.107423
0.0694739
0.025406
0.094257
6.60379
0.0256794
2.66078
0.0253549
0.0254323
0.0270196
0.0889542
4.81981
5.61003
0.0378829
0.0288181
0.032282
0.025627
3.71338
0.0324947
6.52909
4.76037
4.99263
0.0772257
0.0795125
0.0257048
7.77303
0.131175
4.7165
3.5053
0.175731
0.0267798
3.0914
9.90707
0.353907
0.435087
6.32818
3.53995
2.63174
0.0503856
2.65637
0.0331558
3.10875
2.70953
0.0792338
0.025454
0.249794
3.60638
0.0271624
0.025686
11.1488
0.0254647
0.351433
2.41272
0.110256
0.532133
0.0814187
0.0254538
0.0625459
3.99904
0.0254934
3.43181
0.545158
2.26895
0.0273972
6.2146
0.0253499
5.28352
0.0258781
2.57791
0.0258697
0.039253
0.0252097
3.14717
0.391122
3.00354
3.64369
0.138142
0.025566
0.552459
4.822
8.374
5.05058
11.8817
0.0255661
0.0251604
0.346175
0.0254179
5.9464
2.55574
0.163613
2.91642
3.07256
0.0302298
4.22019
0.0278506
0.120103
8.7119
0.0279108
0.0349016
0.120463
0.0269609
0.0251771
0.0257105
0.0497088
0.0250808
0.0260914
0.918669
0.025441
0.0253708
0.0340823
0.0254008
0.0384372
0.0256538
2.56222
2.65534
3.14946
0.0250014
0.499087
0.85576
0.0254407
3.43451
0.037325
0.0321107
0.0402528
0.0358706
2.74102
12.1883
0.0410513
0.0259665
6.01109
0.116784
2.71394
0.0273952
2.51228
3.68374
3.00271
6.0842
0.0254267
3.64229
7.69011
0.0258495
0.044298
0.0261506
0.0293888
2.3359
7.97421
35.5941
0.0251224
21.8119
0.0484661
0.552597
0.0844017
0.0250403
0.0254591
0.0391956
0.028104
3.93674
0.0385207
4.36716
4.10517
0.025508
0.0506248
0.0256525
6.3757
0.0470564
4.26596
0.470502
0.02514
0.0253288
0.0509751
2.67821
4.22505
0.0544592
8.27108
0.0254659
1.10101
0.067919
0.0250544
0.0247745
0.0399448
0.0255178
2.69757
0.097001
0.0248678
0.0263445
3.10562
0.0250038
6.77236
0.0461948
0.05191
2.36494
0.0253449
0.044633
0.0251336
2.47424
0.0257269
0.0309155
0.0280389
0.0484962
0.0246901
5.37638
2.88532
0.0326791
0.0256625
6.72729
2.16696
0.234264
2.55179
0.0494429
0.0255671
0.0253708
0.142176
0.138822
1.10462
0.142073
0.0402885
0.043871
3.31558
0.0255732
2.42499
0.0271042
0.0797016
0.0254175
0.0252902
0.0271912
0.0262224
0.103922
0.0311985
1.19658
0.223156
3.13272
2.9772
0.0266727
0.0286692
0.0252801
6.64376
0.0256231
0.0720586
0.0251846
0.0406702
0.0580782
3.50742
2.58501
2.60083
3.12027
0.0265107
0.0713019
0.918311
4.76251
0.0902005
0.0254706
0.0358726
2.51385
0.0263282
0.032539
0.0252766
0.0673201
0.0300039
4.41928
0.027328
0.025473
2.77913
3.06707
0.166059
0.0254037
0.0254394
0.062142
2.81825
0.0501245
0.36845
0.0291252
0.0310976
0.692055
0.0485761
0.0300996
3.59541
7.06235
0.138737
3.15807
3.88969
1.85447
2.54359
0.0903058
2.79921
14.501
0.0438425
0.325498
0.0253472
0.0292326
6.89623
0.0864994
2.5633
0.0256252
5.72103
0.26652
2.65475
0.0962189
0.0803825
0.025957
4.19305
6.82103
0.0491692
5.4363
0.0341448
0.026039
5.84202
0.0664002
2.90257
0.061225
2.28669
2.65305
6.81618
0.0489257
3.3105
0.0251406
0.0260257
0.109806
0.0269472
0.0258529
0.036223
0.0419683
0.15533
0.206325
11.0518
6.42233
0.0658534
0.0254186
4.65256
0.0352962
0.0254233
2.75101
1.52006
0.0253412
0.0251058
0.0311836
0.157747
0.0482702
5.95607
0.918668
0.267067
0.0276933
3.5519
0.0261519
0.0397662
2.9774
0.0253838
0.375403
0.0802859
0.0253584
0.475797
2.67703
0.0274771
0.024902
0.0315799
0.0253915
0.0273133
5.25965
0.0252421
0.136757
3.60659
0.0253432
2.64609
0.0262044
3.37012
0.488048
4.17176
6.07238
3.92225
0.0549918
3.46236
0.025238
6.12893
0.0259643
0.0778136
0.765656
0.0393654
3.79125
0.0332404
1.18174
7.06811
0.0256756
0.265621
3.68522
0.0255575
3.03636
0.0284303
2.74125
1.53563
0.498895
0.050618
3.41237
2.39298
0.0706773
0.12426
0.0259215
0.107212
14.2666
4.96814
0.0812772
0.0254719
0.0620201
0.906436
0.026075
4.35827
0.0252805
0.0438545
0.0924468
2.68926
0.0252907
0.0254853
0.034659
8.013
0.0248331
0.0256521
0.751038
0.0253466
0.0804109
0.10487
0.0471943
2.67763
0.222098
3.41298
2.83972
0.0790202
0.180321
3.76561
0.0275681
0.0272965
0.0668387
0.0253419
7.29708
1.56044
0.026402
0.0257821
3.07425
2.75037
3.84437
0.250441
0.0252352
2.90466
2.55745
0.0258878
2.76648
3.97283
3.57739
18.0816
0.0253141
0.0282508
0.0254185
0.0301574
0.0273766
0.0256248
0.0932821
0.052766
2.6659
0.0265484
0.0522107
0.0249917
0.0256444
4.38986
0.0313123
8.94707
4.17925
0.0325147
0.0251633
0.108851
2.01969
3.3805
0.0353671
3.68185
0.103363
3.53708
0.027976
0.0472221
2.97807
0.0253569
3.61686
0.209545
3.41554
2.65134
3.43925
0.0256494
2.65062
0.0655566
3.41023
8.24197
2.80829
8.79576
0.416395
0.146128
2.70814
0.0256827
3.67026
5.99096
2.75657
3.50936
3.73923
0.0278128
3.03508
0.0406877
0.0426061
0.0393087
2.59603
0.0254982
1.98276
0.0254139
0.0585087
1.84486
0.0254204
2.69577
3.64386
0.0250982
0.0250281
0.025163
2.56646
6.28908
0.029406
0.117382
0.0287386
3.3196
2.67061
2.49417
3.31428
0.0433245
4.02419
2.67686
7.57257
0.0353568
4.61066
4.92658
3.4964
0.0248799
2.47455
0.0785154
3.45282
3.05707
0.0259126
0.0255125
0.0907326
0.0251593
3.44304
0.0252653
2.65981
0.0264681
3.80301
3.77952
3.9035
0.283483
5.05489
0.028679
0.0259153
0.0620633
3.90005
0.0254297
0.0755448
3.93293
3.41009
7.22337
3.61083
0.0292127
0.0736708
3.4943
2.61906
20.3502
3.37889
2.91175
2.69537
2.8343
4.21407
0.0256941
0.0273499
0.0252896
3.15601
3.21777
0.0252079
0.0324236
3.62573
2.88099
0.186002
6.63787
3.46844
0.16083
0.664273
1.01118
0.0257335
3.97361
2.57075
2.9968
0.026191
3.77118
0.0270419
3.56314
2.53716
1.50023
2.97104
3.16001
3.59096
0.235385
3.35132
3.08272
5.37722
0.0259147
2.74727
2.66942
0.0299963
0.0918296
0.0260821
0.0360947
0.0266502
4.06876
0.129679
0.0312711
0.0733145
0.0254524
0.658213
5.72362
3.40808
4.16799
0.1585
0.0276793
0.0714484
2.68986
0.0347022
0.0253099
3.1437
2.46746
0.220747
2.87885
0.0279748
3.47275
0.0309598
0.0680338
0.0292533
0.0313146
7.18154
2.7325
0.101039
2.55822
0.135923
0.0282212
10.4541
3.66748
4.3497
4.02914
0.025248
0.0255442
0.0616527
3.65592
0.091366
0.0334808
0.139987
0.0256313
2.96618
0.025293
0.0255451
0.0248756
0.027421
3.85954
0.0793976
0.0254194
0.0261562
0.0446116
0.0992579
0.124183
3.04899
0.0355784
6.60393
0.025519
6.57927
0.0484359
3.84335
5.14651
0.0256078
0.0248242
0.025296
0.0254261
5.84397
0.0279427
0.0268399
6.23366
0.907886
0.0256912
0.026573
0.0254004
0.322331
0.594465
2.98086
2.29946
2.65561
0.0606468
5.69802
2.50488
0.0254225
0.0251526
2.80258
0.167318
3.85561
0.0254948
3.4281
9.57579
0.176358
2.8381
5.9093
3.31091
0.025826
3.42161
0.213678
0.039438
0.0289174
0.025274
0.360396
0.15448
1.0461
3.17229
1.61008
0.0288811
2.75771
0.0293992
2.51805
0.026855
3.02566
0.834131
14.4666
2.95034
0.046116
0.0337033
0.0377726
3.4047
0.0255955
4.72659
3.14873
3.47216
7.4221
0.0302572
0.0694639
0.133831
5.83256
0.0307272
0.575395
0.0481384
0.030024
0.146741
3.23249
0.0389629
5.82675
3.12067
0.644459
0.0252588
0.183669
0.0268385
3.45343
0.0260791
0.0247932
0.0331269
2.92404
0.0376817
3.70328
3.90911
0.181822
0.0526395
1.515
2.66782
0.0251879
0.134739
3.47731
0.0249039
0.0254042
3.32991
4.13937
0.0264036
0.0414706
0.11886
3.19851
2.71483
0.0429468
2.56613
4.97202
0.0256037
2.14448
0.0289307
6.9453
0.163589
0.731498
0.0423494
1.81802
2.37971
0.0254711
0.025794
0.0287709
0.100579
0.0360608
0.029604
3.94734
0.25027
2.75802
0.0388916
2.71878
3.32252
0.434121
3.72809
3.27369
0.0268408
3.24189
4.24291
0.276218
0.141593
3.25748
5.02364
2.88341
3.26262
0.0586989
0.0350172
0.214469
3.72111
4.04896
3.30986
7.50751
5.6395
0.0256698
3.54282
0.0660503
5.4736
0.0310863
0.0252074
0.168302
1.30022
5.87192
0.367663
4.56193
0.124498
1.08752
0.0477061
0.0304612
0.0259882
0.025695
0.0587002
0.170682
0.844462
2.86964
3.35865
3.18891
0.0253957
0.0339407
0.0321118
0.0373263
0.0258403
4.32016
0.0657962
2.8496
20.0145
0.0252329
3.65087
3.30927
3.08763
0.025181
0.104767
3.64139
5.68336
0.0491748
0.0358865
0.246423
0.0485893
0.114608
0.138388
0.0360688
0.0725416
3.3872
3.6243
3.43124
0.100862
0.0256373
0.0253683
2.63365
3.76585
3.33678
0.0298629
3.49434
2.57883
2.84635
0.0258709
3.08628
3.26043
3.24738
0.43896
3.96311
3.38603
0.0250831
3.16833
3.3638
0.0253156
2.83141
3.35311
3.21657
2.61358
3.15127
0.025301
0.383317
0.143513
0.317745
0.12373
0.15581
0.0304382
6.74145
0.110178
2.70961
0.143325
3.39387
3.99221
0.143275
4.73012
4.99036
3.50441
0.0252122
3.31311
5.10315
0.11644
3.41729
0.028492
2.59928
3.68011
0.0559935
3.42285
0.129409
0.025333
0.0305855
4.07012
4.91642
2.74663
2.81435
0.158805
0.0446268
2.75288
0.0255171
0.0295805
8.09838
0.0346345
0.0645629
4.67152
4.73394
0.0260811
16.4224
2.79605
3.18231
2.7775
3.56046
0.0276568
2.7703
4.50477
0.0617652
0.0288857
0.208093
3.10341
0.0521772
3.43609
3.41624
0.0258684
5.10483
0.0537163
0.0542871
0.0272279
0.03978
0.0384716
0.059577
0.0256889
0.025652
0.0312375
0.747307
2.66223
0.0548757
0.529881
0.058937
0.0578081
0.0844098
12.9713
2.66712
0.0256977
2.25003
0.397623
0.119952
0.052348
0.651839
2.66507
0.0264771
0.0254884
0.120373
3.82404
6.00828
1.70282
3.59096
0.0762152
4.40088
0.0254531
2.94242
0.0440067
0.0276381
0.12212
11.3076
4.13207
8.03141
0.405256
0.0405893
0.0265457
0.0247407
0.0410429
0.025579
0.176898
1.79139
0.0344403
3.01955
6.51872
7.85976
0.0338087
0.0617979
2.87105
0.0484242
0.0550816
0.0247429
3.37972
0.0594352
0.418809
0.0423018
2.98558
2.56171
2.56052
5.40175
0.0431157
0.056528
0.0437941
0.0255703
3.86167
1.66472
0.0887642
0.0301504
0.0300203
0.105473
2.73343
0.0253251
0.422878
2.65926
0.0268051
0.168886
0.0534605
0.0251371
0.151191
5.04229
0.162195
0.0262255
0.099311
0.0724717
3.03741
0.0390021
3.24028
0.0814362
1.3438
0.0746074
2.90339
2.96501
0.390245
0.120077
0.0357568
0.0272463
0.0815304
2.24193
0.10495
6.3685
0.0461338
0.444838
0.0437772
0.185132
0.333194
0.13246
0.0260447
3.97954
0.0250691
0.0740064
0.031753
0.872082
0.025169
0.0476208
0.025467
0.0314963
2.81498
0.0264103
0.0254695
0.61219
0.0254116
0.15786
0.0259129
0.0253738
3.67289
4.41449
0.0256655
0.0590845
0.175405
0.062314
0.12019
0.0438045
0.0603758
4.66939
0.0505968
16.4355
5.502
0.0257721
0.193833
0.0251695
0.0254896
0.0484894
0.125198
3.22016
0.457594
0.116745
0.0911938
3.24575
0.0321863
2.74922
6.87072
0.0289865
0.0399037
9.07645
2.61884
0.0256913
0.8779
0.0257175
0.0286863
9.67519
0.025259
0.0906758
3.32574
3.33355
2.86511
0.117797
11.7103
0.063792
5.29284
0.496232
0.0410839
0.512025
8.31271
0.409874
3.92673
6.20207
0.0261303
2.76828
0.0248429
0.180323
6.94477
0.0254061
3.97894
0.025813
0.0253631
0.0605807
0.1866
0.0248316
6.71911
0.0874497
0.0256371
0.0248509
0.0279424
0.0308718
3.73523
3.53731
10.9952
0.134804
6.01522
3.44302
0.0264963
0.105585
4.0686
0.462315
3.73759
3.41261
0.0249423
2.61056
2.79688
3.61565
1.76613
0.0366812
0.0253082
0.0347841
0.398516
0.0249857
0.0250644
4.57123
2.45808
3.66152
0.170734
0.026701
3.5174
3.55222
0.0259838
7.27542
2.68922
0.0353762
0.0448429
0.0563734
3.53979
2.7243
1.81739
0.0695595
0.0329178
1.33878
0.0328871
0.121283
0.0291851
0.0939232
0.0352319
0.0254275
7.36763
3.04906
0.0279414
0.159305
0.0593246
0.0252949
5.34065
0.657418
3.86207
2.91089
0.0849135
3.32683
0.144087
4.78586
5.67245
0.264415
1.24045
2.58964
0.026973
0.0448556
0.0255078
0.0253328
3.37093
6.1807
0.0998323
0.0257619
0.0687095
8.14238
0.0252426
0.0683666
0.0263978
0.063232
7.69882
0.0272951
2.66759
0.0830044
6.59867
0.0511016
6.44624
2.71996
0.0554578
0.0271693
0.102101
0.199141
0.374778
3.63078
0.0604525
0.405304
0.311521
0.0581877
0.0306552
3.1049
0.122183
3.62299
0.046095
0.0730158
0.0824669
0.0291424
11.9209
3.33906
0.212743
0.163666
3.02163
0.0254397
0.10497
0.0252627
0.0293864
0.0282042
0.0247088
0.0272544
3.47584
0.184044
0.460173
0.0262982
0.0261816
0.0488742
2.92124
0.0718278
0.0452025
0.0255355
4.03976
0.0254999
0.33154
0.533578
0.0252249
0.0266477
0.0275556
0.0858586
2.64805
0.0255575
4.56395
0.0275838
0.238965
0.16229
0.0261159
3.49385
0.0270722
0.0250882
7.20779
3.33665
0.0324973
0.234368
0.0265865
3.20735
0.0251142
0.10196
24.3046
0.411021
0.107313
0.487864
0.0254584
2.53031
0.108495
3.45889
0.0250258
0.0876778
0.0804084
0.0254811
0.0295
0.0248388
0.0321478
0.0271261
0.0501458
0.0252927
0.168142
2.74169
4.02779
0.0249963
0.0874228
0.160273
0.0614911
0.0422632
0.0267143
0.0291948
0.0254459
0.025146
0.0625911
0.029051
0.0925698
0.0768522
0.0254887
0.465205
0.0278391
0.0275591
2.83374
2.80008
0.114559
0.0252038
9.28404
21.931
3.48249
0.0458664
0.0313672
0.1843
5.63681
0.025052
6.46111
0.0250317
0.0256269
0.0750729
0.029251
0.0427261
0.0256383
3.50771
0.0429587
0.0277136
3.18066
0.260351
13.1565
2.37316
0.166812
0.106751
0.0254074
0.0297602
0.0255709
0.0253287
2.697
0.0753357
0.295854
0.0254704
3.55679
0.0300215
0.108253
2.14433
3.00268
1.12643
0.0738179
0.025532
2.37466
0.0255613
0.0267981
0.0254109
0.127246
3.09917
0.0272837
2.86796
0.0655476
0.0256676
0.188878
0.110087
6.91443
0.02524
0.352938
4.70633
4.23543
3.38425
0.0272944
0.0254069
6.98026
3.05929
0.0339726
0.0254315
0.0256247
0.155343
1.89525
0.280609
0.0258099
5.05989
0.027737
0.03697
3.73578
0.039063
0.0256112
0.0285989
0.0346371
0.123374
0.0267607
2.83676
2.82879
3.59265
0.0252907
0.0380029
0.0401267
0.0257512
0.33971
2.70801
6.7254
0.0622882
0.0255019
0.136551
0.0343093
2.88872
0.0279831
0.057873
4.78795
0.0254093
2.6026
3.16097
0.0254209
0.0251958
0.025479
0.517892
7.70926
0.0270382
0.0250414
0.0256068
0.0259861
0.0249674
0.683259
5.7167
0.0254379
0.339733
0.0254531
0.026966
0.0254652
0.0291918
0.0364857
0.0596879
2.56442
0.0254647
0.0432173
0.0304032
3.72465
3.64333
5.84024
4.13103
5.02168
4.85598
2.81692
2.80553
9.50352
0.118055
0.062788
4.5584
2.58337
0.0248943
1.41987
3.5829
0.0312733
0.0295594
5.06
4.88015
3.45648
0.0257207
0.0815715
3.99982
0.0299619
3.41289
0.0254973
2.54699
3.18609
0.111013
0.0258592
0.0258854
2.67561
0.0254882
7.80969
0.0812331
0.0255342
0.025577
0.156115
0.0268203
4.38292
0.0453396
0.0254435
0.0259307
3.69848
0.105961
2.71034
3.12314
3.22176
0.0596208
0.0454975
0.025032
0.0361378
0.039844
0.0313976
0.0406597
2.44248
0.0257525
2.6554
7.57677
9.1442
0.0255428
0.0879021
15.5538
0.0247562
5.43525
0.783249
2.54391
2.67845
11.5051
0.153939
0.068917
0.261238
2.58898
0.025668
0.0256844
3.7925
3.48534
0.039439
0.0344335
0.0575022
0.0778599
0.0402305
0.0850969
6.74387
0.135055
0.142735
0.0271317
0.0256766
0.0268997
2.57022
0.0833184
3.08316
9.14754
16.3702
0.209072
0.0274049
0.0263798
0.0262166
0.0865011
0.447863
3.34187
0.0283069