/*--------------------------------*- C++ -*----------------------------------*\
| =========                 |                                                 |
| \\      /  F ield         | OpenFOAM: The Open Source CFD Toolbox           |
|  \\    /   O peration     | Version:  v2012                                 |
|   \\  /    A nd           | Website:  www.openfoam.com                      |
|    \\/     M anipulation  |                                                 |
\*---------------------------------------------------------------------------*/
FoamFile
{
    version     2.0;
    format      ascii;
    class       volScalarField;
    location    "200";
    object      omega;
}
// * * * * * * * * * * * * * * * * * * * * * * * * * * * * * * * * * * * * * //

dimensions      [0 0 -1 0 0 0 0];


internalField   nonuniform List<scalar> 
15335
(
6.50323
0.232533
6.49787
0.0402135
3.05968
0.0254533
0.111656
0.403071
0.0359592
4.5364
4.86156
0.0268556
3.2277
11.6313
5.90042
6.46098
0.0288673
5.58302
0.0248765
8.84675
2.8232
2.86455
0.111346
0.0249455
0.21038
0.141085
15.4162
0.142724
7.18159
0.0277251
17.1877
4.65558
0.0256604
0.0255434
0.0253557
0.658903
0.585624
8.44583
5.09238
0.369811
0.181814
3.76364
0.0254174
0.0297847
6.51534
0.0251094
6.34723
3.49017
5.44245
0.0286413
0.0249545
4.99325
5.39607
0.0256761
0.0254297
0.101468
0.160262
5.06598
4.44809
4.85532
2.61963
3.3965
0.0461715
0.0312715
0.0251678
0.0266495
5.27857
4.59639
0.0251082
0.0248245
0.0408297
0.027405
0.211504
2.53114
5.09614
2.6056
0.18933
0.14281
10.4421
0.0256513
3.04932
13.9055
2.85132
0.210609
14.6241
0.0251449
0.0248635
0.029593
0.0275333
0.238542
3.27248
0.0798485
0.0267362
3.80973
3.49106
0.0273054
0.0251217
0.0405209
0.025063
0.0256664
0.02541
2.61686
1.06055
0.0643959
0.0261947
0.0356089
0.0253807
0.0407419
3.21365
0.0547755
2.74594
0.102097
0.0254141
0.0269386
4.91412
0.0275553
0.0408106
3.80195
3.11454
2.57583
3.22129
3.53002
2.52441
3.55828
0.0254306
0.0254078
0.131577
0.0255656
0.0638564
0.0254884
2.65816
5.42359
0.0251314
0.0687511
0.127854
0.0252192
2.89232
9.73418
0.0463905
0.392048
0.0789773
0.241607
0.0608561
0.0287521
2.64229
16.3166
2.55196
5.29839
0.187069
2.85125
0.0280416
4.89669
0.025407
0.0271444
2.41593
0.0256608
3.44144
6.50018
3.56044
6.77817
0.0256482
0.0345044
3.59288
0.0497845
4.8776
7.17525
5.37709
0.0249686
10.0702
8.45276
13.5207
3.91669
3.11891
0.0753333
0.156128
0.0256515
0.0256202
3.52223
19.5727
3.45764
0.164266
7.40706
2.55874
0.0387436
0.0388049
4.29926
0.0312898
0.0382736
2.54731
2.66557
7.09062
0.404922
0.0295335
0.183057
1.92577
9.00804
0.0254372
5.5841
0.025437
3.90829
0.0401239
0.0677002
0.0488751
7.8178
5.31582
0.134615
0.0256311
0.0787962
0.0371952
0.0322728
0.0750018
0.0254017
2.40023
0.027407
0.520653
0.0813513
6.23563
4.78307
0.0863474
0.765923
0.0254271
0.0253685
0.0325089
0.0288476
0.221452
4.07793
0.0250833
22.1818
0.0490634
4.47213
0.0252105
0.0250428
4.47533
0.69213
8.38744
0.0631248
0.184167
0.085427
0.0256006
3.61087
3.00924
0.0551045
2.54003
0.0386174
5.16448
0.0251576
0.0262034
6.05943
3.17743
3.11735
6.88844
8.113
0.0251129
0.0249667
0.0490917
8.26404
0.0794462
2.67575
0.0248069
0.146117
22.5795
0.0256637
0.0250171
0.0254411
0.0251328
0.0247891
6.54468
5.05029
6.09194
0.0254634
6.16062
5.99111
6.26622
0.0252145
7.32622
0.0270545
0.0255726
0.158272
0.0306606
0.048524
20.7429
2.6399
0.0250972
0.0788519
0.0288143
2.98513
3.33453
0.0283278
0.0266206
0.0257796
6.6059
0.0267922
0.0672844
0.238452
0.0289791
17.8507
0.0250288
0.174746
0.0253555
2.66938
0.0254355
3.07914
0.142925
4.1577
0.0252555
9.48077
5.37684
0.0256049
5.30407
0.0293024
2.69629
0.0251772
0.211508
3.63368
5.43393
0.0254171
0.025555
3.66161
3.62498
0.55801
0.45368
0.025145
17.8547
3.63152
0.0359705
2.41802
2.6928
4.48502
0.0283483
0.0279396
0.0256534
0.139559
0.0261397
0.232348
0.0737405
1.09828
0.0513954
5.02092
13.2456
5.52117
0.101457
0.119361
0.0254301
0.118255
0.0312165
0.0290741
0.0255498
0.369215
0.0250528
3.08467
2.60445
2.6851
0.0275866
13.879
5.3535
0.0253657
0.0370586
0.0442576
0.0492587
0.0904487
0.0282377
0.059567
0.0287838
5.67864
0.0365107
6.43115
3.1773
0.0588206
0.02777
0.0251976
4.11209
0.0291479
0.0444662
4.97083
0.0254177
2.91383
5.47472
0.0289359
1.2152
2.40738
0.0254218
0.0288748
2.81302
5.45096
0.0317104
0.0251951
0.105192
0.0769372
0.215857
7.077
0.0254151
0.0271455
0.0251957
0.212763
5.22514
0.228943
0.367349
0.0309132
0.0656837
2.88419
0.0877966
0.0904074
3.66619
0.0281051
0.0262793
0.0887034
8.36755
30.3023
0.727984
0.214275
0.211069
0.0352104
5.24963
2.67318
0.190663
3.85516
3.3792
0.0273455
0.97045
0.060287
0.0338116
5.31156
3.54987
0.0251074
0.20077
4.29779
0.117797
3.97099
0.0287498
19.6007
3.60799
3.88214
7.63995
3.75117
4.53274
0.19401
2.9831
6.20827
0.0248149
0.0254438
3.42286
2.68599
0.0253258
0.221912
0.047863
0.0699621
9.65923
0.119727
0.0861701
8.24721
7.12731
5.54367
0.0651596
0.0285881
3.54885
3.38982
0.0254446
2.80854
2.52382
0.0854819
3.06163
0.671867
0.32012
2.93366
0.0483968
0.0348757
0.0304456
0.0254394
0.0822854
3.65683
0.182421
0.19506
5.62981
0.0254128
0.0256393
0.025186
2.81953
5.33587
2.68192
3.13568
0.204997
1.40967
0.0325517
2.91932
0.0264698
0.0251135
0.0256521
3.61683
0.0252916
2.56136
0.0248594
0.0264752
0.0251072
4.3191
1.20971
0.0256609
0.0308949
0.101223
0.0342132
0.0315399
4.14817
0.0286716
0.192431
0.0265701
6.30564
0.0264485
0.0252684
6.65113
0.026299
0.0457522
8.38497
0.0251909
0.0256512
5.36901
0.645619
2.04273
0.0269685
0.0370175
0.0255915
19.6536
4.793
0.0256524
2.6714
4.7028
2.54929
2.61052
0.0255282
3.70129
3.6525
2.87369
5.21302
0.0327745
3.45286
0.067913
2.87174
0.232294
2.75711
18.432
2.69553
2.56434
2.67366
0.0729067
0.0263616
0.0289571
0.044044
0.0253987
0.262537
0.0930248
8.51855
0.106528
0.078121
0.972514
3.13884
3.53627
2.36823
0.209518
0.38708
0.0256562
0.0285718
0.0248101
0.0375939
3.2025
0.025532
0.0324001
0.095976
1.0511
6.24679
3.59971
0.220355
5.17967
0.0253587
0.0260824
0.0256485
0.0379286
4.69237
0.0455459
0.646484
0.025261
0.0397533
3.19122
0.0250913
0.0539588
3.43662
5.81155
5.37516
0.0254212
0.0284103
0.0275957
5.81616
7.83477
0.0373275
0.0248528
0.0252305
0.0256364
3.40361
0.132876
3.15749
2.72986
0.0267899
0.308632
0.0296227
0.0272311
4.36542
0.0253976
0.0311321
2.58596
0.0251154
8.05288
4.80773
0.0463496
0.893434
4.85528
3.69521
0.0402884
3.50946
0.140351
0.0288451
0.0255579
0.0438106
0.0852054
4.33777
0.0427026
0.0256356
31.752
0.0254453
0.0287039
3.02993
0.10269
0.0994065
6.33091
0.0326565
0.0254183
0.0251341
0.0354345
0.0256347
3.54415
0.0264394
0.0766181
3.01633
0.0249588
0.0279052
3.15931
0.0357339
0.146097
4.69544
0.0257918
0.211897
0.0255659
2.9452
0.373724
4.75873
0.198974
3.12865
2.68248
0.0678282
6.062
0.0248507
0.086816
0.156087
5.60121
0.026544
6.75777
0.0254257
8.36006
0.0300791
0.500416
0.0250872
0.025519
0.190214
0.191417
0.025456
0.0340386
0.0254601
0.398224
3.40808
0.0369621
5.309
14.0004
2.57725
0.025576
3.65123
0.0263299
0.0250299
0.161319
0.0324037
0.0285288
2.90146
0.0306302
0.0356598
0.0356725
0.0254728
0.0249526
2.87866
8.15767
0.0250549
0.0250371
0.143158
0.0251408
6.64013
0.0527983
3.41306
5.10982
0.0253148
0.0495472
2.67964
0.0601817
0.0256631
0.0693311
0.0404794
0.0254083
16.0251
2.90995
0.0388211
6.68657
2.35593
0.0382177
0.025497
4.18757
0.0254907
0.0282762
0.118849
0.0255955
0.0256068
0.165549
2.00892
11.9978
2.69617
3.44304
0.0255689
2.62873
24.2317
0.042938
4.56146
1.71205
0.220969
0.223819
0.0589971
2.74228
0.0422525
7.05733
0.0693363
0.0367679
0.140771
0.185366
2.22864
0.0259166
0.0799067
3.19566
0.0323225
0.0308528
2.38246
4.36545
4.50572
0.0255554
2.61454
2.66042
2.83317
5.38938
0.0255711
0.031171
0.305453
5.64494
4.52509
0.034442
2.71011
0.0251802
0.697508
0.0339314
0.0285132
6.12663
0.0250944
2.72284
0.0328267
0.082148
0.0314427
0.0344527
11.2443
0.0255667
0.0253282
5.10307
6.8538
0.0325856
0.0251638
0.0311808
5.617
0.078758
17.3029
5.1633
0.0326414
0.0256254
4.47058
0.149735
2.73654
0.0319496
0.0372581
0.0787629
0.0254274
0.0250727
0.034154
3.2662
0.148893
0.117836
0.0250828
6.72887
3.37888
0.0255329
0.0253821
0.0337389
0.0254182
5.095
0.589619
0.0253921
0.0253955
0.0255773
0.0255134
0.0254366
0.0248679
5.5911
0.0527301
0.0381377
5.2241
0.0255572
0.0267369
0.0269645
8.89504
2.56863
2.86845
0.0320276
0.0255854
4.22819
0.025499
2.39482
0.029658
0.0826081
3.47632
3.01798
0.0254544
0.0248708
5.3382
2.92661
0.0313918
0.0359321
0.0248593
0.215135
0.0342588
0.0316588
0.0271307
0.0248389
3.17778
0.0339255
0.0250342
3.3823
4.1638
20.5329
6.81946
0.0851119
0.0249274
7.07832
0.164092
3.29594
0.0340687
0.0359072
0.0805138
0.0345964
4.10909
1.0718
0.0252441
0.0672664
0.0784597
0.02547
4.07784
0.0264228
0.0276025
3.83226
3.73991
0.0254691
2.41464
8.25012
0.0254275
0.02599
0.176833
2.94769
0.155826
0.0250553
0.0501615
0.0415639
3.13827
2.60646
5.23215
0.0785207
0.0255664
2.834
0.0271367
0.0525425
0.0265734
3.08694
1.53183
0.0264768
0.0253639
0.032568
6.63986
16.2524
0.0254428
0.0254374
2.82756
0.0252765
0.588103
0.655867
0.0250545
0.0252983
3.36778
0.0303655
3.87101
29.5525
0.0255948
0.0280914
0.119878
0.0277402
0.068856
0.117577
0.0425764
0.0253955
0.0250586
2.57089
0.0333734
0.0254448
2.58782
3.06903
0.0254545
0.864194
0.0252511
0.0281363
0.0255158
4.20988
2.79234
0.025537
0.0258813
4.08056
0.0286204
0.0911593
0.0262602
0.0536868
0.0254833
0.0413297
0.0254389
1.58163
2.65828
0.0263529
0.0376657
2.57031
0.0277902
2.72194
4.71666
0.0355375
0.0255051
4.33596
0.445887
0.0253907
0.211082
0.0255109
0.649198
4.54183
0.0256356
3.77179
0.0253868
4.37304
0.160276
3.33925
0.0383763
5.73535
0.0249353
3.63173
0.025441
0.0288536
4.3811
2.38946
0.0501935
5.44337
3.96616
0.521166
6.08424
4.15419
0.0328965
3.88118
7.18227
0.027448
0.372462
0.210949
0.0251186
0.0476696
0.0476138
0.0432448
4.65803
0.433999
0.025558
0.664777
0.0254175
0.450479
0.0254306
2.59978
0.0251555
6.02593
2.71073
0.197048
0.171232
2.9754
0.0419344
0.0250402
0.0717162
15.6565
0.137127
0.0252075
0.0515619
0.0259803
0.0405873
0.100669
3.57612
4.47162
0.0256624
3.34611
0.0431855
0.182065
3.59581
3.70785
0.427552
0.0252154
0.0864647
5.04612
0.0277511
19.1174
0.0252499
0.0254961
0.0253938
0.0254232
0.0291126
0.458576
0.0339449
4.84107
0.0313134
0.0254468
0.0254563
2.75015
2.66214
0.0262849
0.085262
5.80608
9.16198
3.90776
0.0362999
0.0854494
6.96803
0.0252984
0.0272071
1.04855
0.0251316
5.74644
0.0251269
0.0253628
5.46194
0.0415513
0.231442
2.5079
0.032998
0.0249523
0.0256274
0.0358348
2.5935
12.6003
3.55316
0.0248211
0.0253981
0.0268232
0.0255994
0.0273814
0.0254848
0.0250377
0.0254504
0.0702488
0.025093
0.0255828
3.48857
2.69796
0.0277169
2.67482
0.0257189
0.0280533
4.27681
0.517282
0.0294958
2.60652
5.7525
0.413991
0.0250784
2.38407
7.35443
0.0557923
2.95882
2.60645
2.67978
2.03731
0.0382279
0.0345926
2.53026
0.184913
0.0265067
0.0250545
2.87966
0.0778661
3.18314
0.0256032
0.0255676
2.88858
0.0629573
4.06564
0.0440672
0.0254356
0.220706
5.0782
0.0279343
1.00153
3.26481
0.434297
14.5396
0.0260268
0.0340333
0.0772158
4.18406
0.152448
3.01297
0.0255578
0.139442
2.41608
10.8306
0.025246
0.0254183
0.252935
0.0716025
0.0256334
6.71475
0.0274853
0.0253722
0.0246592
2.75342
7.90761
2.89195
0.025665
0.0256282
0.239723
0.432021
0.11291
0.613705
0.0667113
0.0350277
0.0251717
2.70217
0.373791
3.66936
4.90173
0.0514839
0.576331
0.0340622
4.26713
0.0462754
3.32691
3.92665
0.0256901
0.052218
0.0891118
3.03483
0.0266746
0.0255327
3.50307
0.0380834
3.84029
2.76467
5.13606
0.0328992
3.47628
3.22249
0.0402365
2.45927
3.03012
0.0260333
5.38108
6.05602
0.762046
4.24423
2.68578
0.02569
5.78594
0.0469277
9.15087
0.0872751
2.58553
0.245616
0.497409
0.0305746
0.0254182
0.02528
0.0256407
0.0256817
5.94453
0.203855
0.025057
0.025448
3.68349
0.0248952
14.6638
2.76985
14.6173
0.197081
0.0253922
4.04727
0.0256727
5.79856
0.0251089
2.80376
6.5923
0.229208
2.50462
0.0272449
3.47488
2.83087
6.83515
2.72231
16.3247
2.61687
2.78362
5.5243
0.0335179
3.82061
0.0258851
0.0256373
0.120167
3.12488
2.65276
0.0254984
0.0259723
0.0250189
0.0788028
0.174658
0.034744
0.025282
0.752869
0.0375362
0.0251228
0.0251679
0.0654221
1.37815
3.62561
0.0255165
0.447668
0.0251191
0.0315814
4.5374
0.0253567
2.6374
4.09128
0.0353961
0.0447063
0.0458311
0.0254851
0.0256056
0.400634
0.220273
0.048393
0.0247255
0.0377543
8.20924
6.84839
16.1159
0.0262852
0.029286
0.22169
0.0529856
2.40579
0.0256261
0.0250695
0.0566811
3.60618
0.0344599
2.79601
0.12058
0.0338589
0.0260506
0.0251795
0.129696
0.0259125
0.026642
0.432077
0.0253327
2.74152
0.0254195
0.0254993
0.0292362
0.0256271
3.63035
8.25143
7.25097
7.38542
5.5905
0.0797466
0.065868
0.0281747
5.47341
0.496719
0.0252586
5.48102
4.00771
2.32811
4.05474
3.57834
2.57511
0.0256385
0.506372
6.20971
0.224537
0.0280013
3.45272
0.0495645
0.0288864
0.0506267
0.0302959
2.80086
2.56847
15.448
3.61219
0.0858342
2.42779
5.93477
0.159402
0.0913692
0.0256106
5.88278
0.0256218
2.67044
5.40986
4.74005
3.44203
0.0661528
0.290607
0.0250726
4.25461
0.0491445
0.0285559
2.96664
0.0250756
0.153228
0.0255827
5.52381
6.15143
0.025272
0.0330248
5.65084
0.0314291
0.800011
0.0352001
0.124124
0.0250691
0.0488169
0.0254231
0.0323333
3.33387
2.73679
23.3397
3.59589
5.46183
0.0263415
2.55362
0.0254824
0.031372
0.0838171
2.69701
6.78784
2.48341
0.0252325
12.3542
0.0664824
0.0252429
0.0254138
4.54049
8.34354
1.58932
0.0481263
7.0915
6.16897
0.0254166
3.02698
3.64733
0.0319494
3.93647
0.85923
0.181837
2.39938
3.45375
0.0254203
0.0256249
0.0322393
0.0252679
4.71269
0.0256548
7.01373
0.025152
3.42918
0.0426196
2.46771
3.74736
0.0477626
2.70758
0.025668
1.93546
5.65043
3.11261
0.030768
0.0254196
3.96109
3.95826
3.419
0.074249
0.0255349
0.0312003
8.8608
3.16478
0.0266417
0.0509299
5.91659
0.0254475
5.86392
0.0680487
3.9631
0.160012
0.419756
2.65251
0.0348835
0.0917428
4.1904
0.0252449
3.47975
0.0495628
2.71916
0.0293436
3.08956
0.027357
0.0775925
0.0288638
4.17104
0.0297555
7.60693
0.0330277
3.99807
0.0318075
0.050617
0.120403
6.6097
7.25307
2.09083
0.0467571
2.81742
0.0382831
0.0338174
0.0250772
2.45938
0.0256695
3.29827
0.0340566
0.0313544
2.62612
0.0254162
0.024787
0.0256592
3.52459
0.0256932
3.45973
0.0329027
15.6064
2.75416
0.145067
0.025454
3.91462
0.0325595
0.0285059
0.025447
3.21252
0.0254931
0.322313
0.0253345
5.61297
2.77321
0.0292621
3.55588
3.47336
3.08156
0.0307378
5.8591
0.0615427
7.86957
0.029995
0.0276019
0.219405
2.89197
0.0254058
7.47521
0.32195
0.0282716
0.689118
0.0266708
0.0871816
0.0281809
0.0250151
0.0301785
0.0271364
0.127705
0.0254714
0.0414309
0.127805
7.70681
0.0461605
3.22128
0.0739405
0.0254655
0.0819667
1.06238
0.0250152
0.0782085
0.025465
3.46335
0.0321713
1.57488
0.0255036
0.497935
0.0254192
0.0383254
6.05786
4.54004
6.74526
3.07568
0.180091
0.051866
0.0258639
0.0463361
3.85017
17.4534
4.13579
4.84315
0.0253487
2.74937
0.0254225
0.0285786
0.0283693
0.104545
0.0257229
3.54066
1.89145
0.107452
5.26608
0.0758766
3.21822
0.11052
0.0286505
0.0256289
0.0256411
0.02933
0.0301871
0.0744363
0.0599872
0.0255177
0.025656
3.20097
0.109037
2.75473
4.84389
6.67216
9.57749
0.0406595
0.0443459
5.25317
0.0313812
0.0254532
0.0306147
0.102594
0.0262978
3.27203
0.0699619
7.22713
0.0254851
0.0713031
3.54662
0.0319662
0.131516
0.0255042
0.0276379
4.00553
2.99241
2.64131
0.0333435
0.0251508
3.62497
0.0254461
2.6453
2.78496
0.0346368
4.55353
0.0312546
0.0866849
0.0282845
0.0257291
0.0293949
10.0431
7.28222
0.0254286
0.102673
0.987784
0.0251109
0.0249825
0.0490535
4.00743
2.59555
3.61499
0.0280959
0.0258457
0.0626623
0.759444
2.84436
0.0467172
0.0255632
0.0267147
0.172193
0.0344802
2.82427
1.82534
0.0256376
5.81481
0.0256497
7.81979
0.0582584
0.0433566
3.11776
0.0356971
4.44221
0.046132
0.288536
0.504838
0.0318423
0.0252296
0.0257207
0.0481515
3.45465
0.0476472
4.52756
0.0271077
0.0256804
0.0318836
2.78948
0.0259847
0.0778265
3.81954
2.67889
3.70718
2.54224
0.0258678
0.0518784
0.0817331
0.0248335
0.0255381
0.0561427
0.0261661
0.107466
0.0694621
0.025406
0.0942541
6.60375
0.0256794
2.66078
0.0253549
0.0254323
0.0270196
0.0889516
4.81972
5.61003
0.0378829
0.0288181
0.032283
0.025627
3.71338
0.0324947
6.52908
4.76037
5.01763
0.0772257
0.0795063
0.0257048
7.77303
0.131175
4.7165
3.5053
0.175731
0.0267798
3.0914
9.90707
0.353265
0.43508
6.32818
3.53995
2.63173
0.0503858
2.65637
0.0331558
3.10875
2.70953
0.0792909
0.025454
0.249816
3.60638
0.0271624
0.025686
11.1488
0.0254647
0.351421
2.41272
0.110257
0.532943
0.0814184
0.0254539
0.0625499
3.99904
0.0254934
3.43181
0.545497
2.20312
0.0273972
6.21462
0.0253499
5.28352
0.0258781
2.57791
0.0258697
0.039253
0.0252097
3.14716
0.391281
3.00354
3.64369
0.138142
0.025566
0.552455
4.822
8.374
5.05058
11.8817
0.0255661
0.0251604
0.346267
0.0254179
5.9464
2.55574
0.163551
2.91642
3.07255
0.030229
4.22019
0.0278506
0.120104
8.7119
0.0279108
0.0349016
0.120462
0.0269609
0.0251771
0.0257105
0.0497116
0.0250808
0.0260914
0.918705
0.025441
0.0253708
0.0340823
0.0254008
0.0384372
0.0256538
2.56222
2.65534
3.14946
0.0250014
0.500071
0.855763
0.0254407
3.43451
0.037325
0.0321107
0.0402528
0.0358694
2.74102
12.1883
0.0410791
0.0259665
6.01109
0.116786
2.71394
0.0273952
2.51228
3.68374
3.02782
6.0842
0.0254267
3.64236
7.69011
0.0258495
0.0443119
0.0261506
0.029389
2.33709
7.97421
35.5963
0.0251224
21.8433
0.048466
0.552627
0.0844003
0.0250403
0.0254591
0.0391956
0.028104
3.93674
0.0385207
4.36716
4.10517
0.025508
0.0506251
0.0256525
6.3757
0.0470563
4.26596
0.472559
0.02514
0.0253288
0.0509755
2.67821
4.22505
0.054416
8.27108
0.0254659
1.10167
0.0679254
0.0250544
0.0247745
0.0399448
0.0255178
2.69757
0.0970003
0.0248678
0.0263444
3.10562
0.0250038
6.77236
0.0461948
0.0519098
2.36494
0.0253449
0.0446175
0.0251336
2.47424
0.0257269
0.0309158
0.0280389
0.0484962
0.0246901
5.37637
2.88532
0.0326791
0.0256625
6.72729
2.16687
0.234309
2.55179
0.0494205
0.0255671
0.0253708
0.142177
0.138823
1.10469
0.142075
0.0402885
0.0438711
3.31558
0.0255732
2.42499
0.0271042
0.0796934
0.0254175
0.0252902
0.0271912
0.0262224
0.103925
0.0311953
1.19639
0.22313
3.13272
2.9772
0.0266727
0.0286692
0.0252801
6.6438
0.0256231
0.0720591
0.0251846
0.0406702
0.0580779
3.50742
2.58501
2.60083
3.12027
0.0265107
0.0713137
0.919493
4.76251
0.0901935
0.0254706
0.0358726
2.51385
0.0263282
0.0325397
0.0252766
0.0673309
0.0300039
4.41928
0.027328
0.025473
2.77913
3.06707
0.166059
0.0254037
0.0254394
0.0621408
2.81825
0.0501252
0.368568
0.0291252
0.0310977
0.691211
0.0485763
0.0300996
3.59541
7.06234
0.138692
3.15807
3.88969
1.85464
2.54359
0.0903136
2.7992
14.501
0.0438425
0.32555
0.0253472
0.0292326
6.89623
0.0864931
2.5633
0.0256252
5.72103
0.266505
2.65475
0.0962175
0.0803934
0.025957
4.19305
6.82103
0.0491719
5.4363
0.0341448
0.026039
5.84202
0.066384
2.90257
0.0613189
2.28665
2.65305
6.81618
0.0489258
3.3105
0.0251406
0.0260257
0.109805
0.0269472
0.0258529
0.036223
0.0419683
0.155316
0.20632
11.0518
6.42233
0.0658543
0.0254186
4.65256
0.0352962
0.0254233
2.75101
1.52026
0.0253412
0.0251058
0.0311869
0.157648
0.0482703
5.95607
0.919375
0.267043
0.0276933
3.55189
0.0261519
0.0397662
2.9774
0.0253838
0.375391
0.0802879
0.0253584
0.475827
2.67703
0.0274771
0.024902
0.0315799
0.0253915
0.0273133
5.25965
0.0252421
0.136757
3.60659
0.0253432
2.64609
0.0262044
3.37012
0.488012
4.17176
6.07238
3.92225
0.0549916
3.46236
0.025238
6.12893
0.0259643
0.0778332
0.76586
0.039374
3.79125
0.0332411
1.17724
7.06811
0.0256756
0.265548
3.68522
0.0255575
3.03636
0.0284303
2.74125
1.53594
0.498885
0.0506177
3.41237
2.39298
0.0706776
0.124261
0.0259215
0.107215
14.2666
4.96814
0.0812716
0.0254719
0.0619952
0.906404
0.026075
4.35827
0.0252805
0.0438537
0.092438
2.68926
0.0252907
0.0254853
0.0346587
8.01303
0.0248331
0.0256521
0.751306
0.0253466
0.0804061
0.104869
0.0471934
2.67763
0.222107
3.41298
2.83972
0.0790356
0.180317
3.76561
0.0275681
0.0272965
0.0668364
0.0253419
7.29708
1.56116
0.0264021
0.0257821
3.07425
2.75037
3.84437
0.250446
0.0252352
2.90465
2.55745
0.0258878
2.76648
3.97283
3.57739
18.0815
0.0253141
0.0282508
0.0254185
0.0301574
0.0273766
0.0256248
0.0932848
0.0527662
2.6659
0.0265484
0.0521821
0.0249917
0.0256444
4.38986
0.031314
8.94707
4.17924
0.0325147
0.0251633
0.108852
2.01978
3.39685
0.0353671
3.68174
0.103365
3.53708
0.027976
0.0472074
2.97807
0.0253569
3.61686
0.209587
3.41554
2.65134
3.43925
0.0256494
2.65062
0.0655596
3.41023
8.24198
2.80829
8.7958
0.416386
0.146125
2.70814
0.0256827
3.67026
5.99096
2.75657
3.50936
3.73923
0.0278128
3.03508
0.0406877
0.0426061
0.0393088
2.59603
0.0254983
1.98295
0.0254139
0.0585091
1.84459
0.0254204
2.69577
3.64386
0.0250982
0.0250281
0.025163
2.56646
6.28908
0.029406
0.117381
0.0287386
3.3196
2.67061
2.49417
3.31426
0.0433245
4.02419
2.67685
7.57257
0.0353623
4.61066
4.92658
3.4964
0.0248799
2.47455
0.0784998
3.45282
3.05724
0.0259126
0.0255125
0.090799
0.0251593
3.44303
0.0252653
2.65981
0.0264681
3.80301
3.77952
3.90349
0.283487
5.05534
0.028679
0.0259153
0.0620311
3.90005
0.0254297
0.0755095
3.93293
3.41009
7.22337
3.61083
0.0292127
0.0736857
3.4943
2.61906
20.3502
3.37889
2.91175
2.69537
2.8343
4.21407
0.0256941
0.0273499
0.0252896
3.15601
3.21777
0.0252079
0.0324236
3.62573
2.88099
0.186
6.63787
3.46844
0.160828
0.664301
1.01122
0.0257335
3.97361
2.57075
2.9968
0.026191
3.77118
0.0270419
3.56314
2.53716
1.50022
2.97104
3.16002
3.59096
0.235381
3.35132
3.08272
5.37722
0.0259147
2.74727
2.66942
0.0299964
0.0918236
0.0260821
0.0360948
0.0266502
4.06876
0.129688
0.0312712
0.0733212
0.0254524
0.657612
5.72364
3.40808
4.16799
0.1585
0.0276793
0.0714179
2.68986
0.0347022
0.0253099
3.1437
2.46747
0.220758
2.87892
0.0279748
3.47275
0.0309598
0.0680102
0.0292533
0.0313147
7.18154
2.7325
0.101039
2.55822
0.135923
0.0282212
10.4541
3.66748
4.3497
4.02914
0.025248
0.0255442
0.061653
3.65592
0.0913689
0.0334808
0.14
0.0256313
2.96618
0.025293
0.0255451
0.0248756
0.027421
3.85954
0.0793864
0.0254194
0.0261562
0.0446116
0.0992579
0.124179
3.04899
0.0355768
6.60393
0.025519
6.57927
0.0484359
3.84335
5.14651
0.0256078
0.0248242
0.025296
0.0254261
5.84397
0.0279427
0.0268399
6.23029
0.907817
0.0256912
0.026573
0.0254004
0.322732
0.59505
2.98085
2.29961
2.65561
0.0606457
5.69802
2.5049
0.0254225
0.0251526
2.80258
0.167314
3.85561
0.0254948
3.42814
9.57579
0.176359
2.83809
5.9093
3.31091
0.025826
3.42161
0.213705
0.039438
0.0289174
0.025274
0.360383
0.154479
1.04623
3.17229
1.61008
0.0288811
2.75771
0.0293992
2.51805
0.026855
3.02566
0.834523
14.4666
2.95034
0.0461165
0.0337033
0.0377807
3.4047
0.0255955
4.72659
3.14873
3.47216
7.4221
0.0302572
0.0694633
0.133831
5.83256
0.0307272
0.575802
0.0481384
0.030024
0.146753
3.23249
0.0389629
5.82675
3.12052
0.644474
0.0252588
0.183663
0.0268385
3.45343
0.0260791
0.0247932
0.0331269
2.92404
0.0376788
3.70327
3.90911
0.18182
0.0526395
1.51491
2.66782
0.0251879
0.134735
3.47731
0.0249039
0.0254042
3.32991
4.13938
0.0264038
0.0414401
0.118883
3.19851
2.71483
0.0429752
2.56612
4.97202
0.0256037
2.14448
0.0289307
6.94529
0.163589
0.731719
0.0423494
1.81759
2.37971
0.0254711
0.025794
0.0287709
0.100577
0.0360608
0.029604
3.94715
0.250272
2.75801
0.0388972
2.71878
3.32252
0.434132
3.72809
3.27369
0.0268408
3.24189
4.24291
0.276158
0.141593
3.25748
5.02364
2.88341
3.26262
0.058699
0.0350172
0.214349
3.72111
4.04896
3.30986
7.50751
5.6395
0.0256698
3.54282
0.0660476
5.4736
0.0310863
0.0252074
0.168301
1.30038
5.87192
0.367758
4.56193
0.124516
1.08736
0.0477052
0.0304612
0.0259882
0.025695
0.0586631
0.170682
0.844405
2.86964
3.35865
3.18891
0.0253957
0.0339407
0.0321118
0.0373263
0.0258403
4.32016
0.0658189
2.84725
20.0171
0.0252329
3.65087
3.30927
3.08763
0.025181
0.104769
3.64139
5.68335
0.0491748
0.0358865
0.246387
0.0485893
0.114606
0.138389
0.0360688
0.0725491
3.3872
3.6243
3.43124
0.100834
0.0256373
0.0253683
2.63365
3.76585
3.33678
0.0298629
3.49434
2.57883
2.84635
0.0258709
3.08628
3.26043
3.24738
0.438593
3.96311
3.38603
0.0250831
3.16833
3.3638
0.0253156
2.8314
3.35311
3.21657
2.61358
3.15127
0.025301
0.383319
0.143514
0.318233
0.12373
0.155809
0.0304382
6.74145
0.110178
2.70961
0.143326
3.39387
3.99221
0.143273
4.73012
4.99036
3.50441
0.0252122
3.31311
5.10315
0.116439
3.41728
0.028492
2.59928
3.68011
0.0559934
3.42286
0.12945
0.025333
0.0305855
4.07012
4.91642
2.74663
2.81435
0.158806
0.0446269
2.75287
0.0255171
0.0295807
8.09837
0.034634
0.0645602
4.67152
4.73394
0.0260811
16.4224
2.79605
3.18231
2.77749
3.56045
0.0276568
2.7703
4.50477
0.0617802
0.0288856
0.208181
3.10341
0.052177
3.43616
3.41742
0.0258684
5.10483
0.0537163
0.0542871
0.027228
0.03978
0.0384717
0.059577
0.0256889
0.025652
0.0312375
0.747427
2.66223
0.0548757
0.530255
0.058937
0.0578067
0.0844066
12.8644
2.66712
0.0256977
2.24985
0.397347
0.119953
0.0523482
0.653244
2.66506
0.0264771
0.0254884
0.120373
3.82404
6.00829
1.70285
3.59096
0.0762204
4.40088
0.0254531
2.94242
0.0440067
0.0276381
0.122119
11.3076
4.13207
8.0314
0.405239
0.0405893
0.0265457
0.0247407
0.0410429
0.025579
0.176899
1.79139
0.0344403
3.01955
6.51874
7.85976
0.0338087
0.0618021
2.87105
0.0484247
0.0550817
0.0247429
3.37972
0.059435
0.418611
0.0423018
2.98558
2.56171
2.56052
5.40175
0.0431252
0.0565191
0.0437941
0.0255703
3.86167
1.66501
0.0887642
0.0301487
0.0300203
0.105475
2.73345
0.0253251
0.422805
2.65926
0.0268051
0.168885
0.0534592
0.0251371
0.151219
5.04229
0.162192
0.0262255
0.0992887
0.0724948
3.04018
0.0390021
3.24035
0.0814393
1.32191
0.0746066
2.90339
2.96501
0.391756
0.120077
0.0357568
0.0272463
0.0815532
2.2419
0.104973
6.3685
0.0461338
0.444917
0.0437854
0.18513
0.333198
0.132461
0.0260447
3.97953
0.0250691
0.074026
0.031753
0.870821
0.025169
0.0476208
0.025467
0.0314963
2.76823
0.0264103
0.0254695
0.612357
0.0254116
0.15786
0.0259129
0.0253738
3.67289
4.41449
0.0256655
0.0590737
0.175379
0.0623768
0.120189
0.0438045
0.0603766
4.66939
0.0505969
16.4365
5.502
0.0257721
0.193824
0.0251695
0.0254896
0.0484897
0.125177
3.22018
0.457642
0.116625
0.0912013
3.24575
0.0321863
2.74922
6.87071
0.0289865
0.0399037
9.07644
2.61884
0.0256913
0.877832
0.0257175
0.0286863
9.67519
0.025259
0.0906749
3.32574
3.33355
2.86511
0.117795
11.7104
0.063769
5.29284
0.496362
0.0410839
0.513023
8.31271
0.409932
3.92673
6.20207
0.0261303
2.76828
0.0248429
0.18032
6.94477
0.0254061
3.97894
0.025813
0.0253631
0.0605652
0.186619
0.0248316
6.71911
0.0874494
0.0256371
0.0248509
0.0279424
0.0308718
3.73523
3.53731
10.9952
0.134804
6.01522
3.44334
0.0264963
0.105589
4.0686
0.462281
3.73758
3.41261
0.0249423
2.61056
2.79688
3.61565
1.76623
0.0366812
0.0253082
0.0347841
0.398479
0.0249857
0.0250644
4.57122
2.45808
3.66152
0.170735
0.026701
3.51742
3.55222
0.0259838
7.27542
2.68922
0.0353762
0.044843
0.0564432
3.53979
2.7243
1.84756
0.0695587
0.0329178
1.33891
0.0328871
0.121298
0.0291851
0.093928
0.0352319
0.0254275
7.36761
3.04907
0.0279414
0.159306
0.0593245
0.0252949
5.34065
0.657605
3.86207
2.91089
0.0849158
3.32683
0.144124
4.78586
5.67244
0.264425
1.24
2.58965
0.026973
0.0448615
0.0255078
0.0253328
3.37093
6.18073
0.0998353
0.0257619
0.0684725
8.11404
0.0252426
0.0682962
0.0263978
0.0632316
7.69884
0.0272951
2.66759
0.0830106
6.59869
0.0511015
6.44623
2.71996
0.0555065
0.0271693
0.102112
0.199146
0.37421
3.63078
0.0605163
0.405004
0.310542
0.0581056
0.030657
3.1049
0.122205
3.62299
0.0461059
0.0729869
0.0824683
0.0291424
11.9209
3.33908
0.212743
0.163667
3.02163
0.0254397
0.105052
0.0252627
0.0293864
0.0282042
0.0247088
0.0272544
3.47584
0.184043
0.460116
0.0262982
0.0261816
0.0488742
2.92123
0.071828
0.045246
0.0255355
4.03976
0.0254999
0.331159
0.53357
0.0252249
0.0266477
0.0275556
0.085863
2.64805
0.0255575
4.56395
0.0275838
0.238959
0.162288
0.0261159
3.49386
0.0270722
0.0250882
7.2078
3.33665
0.0324973
0.234374
0.0265865
3.20735
0.0251142
0.10194
24.3047
0.411161
0.107431
0.487698
0.0254584
2.53031
0.108513
3.45889
0.0250258
0.0876876
0.0804076
0.0254811
0.0295
0.0248388
0.0321478
0.0271261
0.0501458
0.0252927
0.168142
2.74168
4.02779
0.0249963
0.0874004
0.160274
0.061502
0.0422133
0.0267143
0.0291948
0.0254459
0.025146
0.0625914
0.0290509
0.0925693
0.0768528
0.0254887
0.465096
0.0278391
0.0275591
2.83374
2.80001
0.114562
0.0252038
9.21467
21.9405
3.48249
0.0458155
0.0313672
0.184299
5.63681
0.025052
6.46111
0.0250317
0.0256269
0.075099
0.029251
0.0427251
0.0256383
3.50771
0.0429588
0.0277136
3.18066
0.26035
13.1565
2.37316
0.166785
0.106867
0.0254075
0.0297602
0.0255709
0.0253287
2.697
0.0752961
0.295904
0.0254704
3.55679
0.030021
0.108242
2.1443
3.00268
1.12991
0.0738235
0.025532
2.37466
0.0255613
0.0267981
0.0254109
0.127233
3.09917
0.0272837
2.86791
0.0655457
0.0256676
0.188915
0.110087
6.91443
0.02524
0.353646
4.70632
4.23543
3.38425
0.0272944
0.0254069
6.98026
3.05929
0.0339726
0.0254315
0.0256247
0.155343
1.89527
0.280592
0.0258099
5.05989
0.027737
0.0369641
3.73577
0.039063
0.0256112
0.0285989
0.0346371
0.123385
0.0267607
2.83676
2.82879
3.59265
0.0252907
0.0380041
0.0401267
0.0257512
0.339184
2.70801
6.72539
0.062398
0.0255019
0.13654
0.0343093
2.88872
0.0279831
0.0578706
4.78795
0.0254093
2.6026
3.16097
0.0254209
0.0251958
0.025479
0.517863
7.70926
0.0270382
0.0250414
0.0256068
0.0259861
0.0249674
0.683787
5.7167
0.0254379
0.338857
0.0254531
0.026966
0.0254652
0.0291919
0.0364857
0.0596155
2.56442
0.0254647
0.0432239
0.0303983
3.72465
3.64332
5.84024
4.131
5.02167
4.85598
2.81693
2.80553
9.50351
0.118083
0.0627878
4.5584
2.58337
0.0248943
1.41988
3.5829
0.0312733
0.0295594
5.06
4.88014
3.45649
0.0257207
0.0815672
3.99982
0.0299619
3.41289
0.0254973
2.54699
3.18609
0.111011
0.0258592
0.0258854
2.6756
0.0254882
7.80969
0.0812332
0.0255342
0.025577
0.156098
0.0268203
4.38292
0.0453627
0.0254435
0.0259307
3.69848
0.105965
2.71034
3.12314
3.22176
0.0595649
0.0454654
0.025032
0.0361379
0.0398626
0.0314002
0.0406597
2.44271
0.0257525
2.6554
7.57677
9.14414
0.0255428
0.0879027
15.5538
0.0247562
5.43525
0.783478
2.5439
2.67845
11.5051
0.15394
0.0689166
0.261216
2.58898
0.025668
0.0256844
3.7925
3.48534
0.0394463
0.0344326
0.0576322
0.0778593
0.0402273
0.0850931
6.74387
0.135054
0.142735
0.0271317
0.0256766
0.0268997
2.57022
0.0833051
3.08316
9.14753
16.3706
0.209058
0.0274049
0.0263798
0.0262166
0.0864983
0.447822
3.34187