/*--------------------------------*- C++ -*----------------------------------*\
| =========                 |                                                 |
| \\      /  F ield         | OpenFOAM: The Open Source CFD Toolbox           |
|  \\    /   O peration     | Version:  v2012                                 |
|   \\  /    A nd           | Website:  www.openfoam.com                      |
|    \\/     M anipulation  |                                                 |
\*---------------------------------------------------------------------------*/
FoamFile
{
    version     2.0;
    format      ascii;
    class       volScalarField;
    location    "200";
    object      p;
}
// * * * * * * * * * * * * * * * * * * * * * * * * * * * * * * * * * * * * * //

dimensions      [0 2 -2 0 0 0 0];


internalField   nonuniform List<scalar> 
15335
(
-0.345459
-0.19536
-0.427737
0.0670767
-0.436699
0.0366031
-0.192297
-0.335467
-0.129048
-0.345986
-0.427198
-0.0732585
-0.436953
-0.143106
-0.393486
-0.404687
-0.0426443
-0.429183
-0.0458288
-0.318287
-0.335996
-0.340221
-0.191226
-0.0413251
-0.294671
-0.17357
-0.440415
-0.168674
-0.43633
0.0680802
-0.4347
-0.326833
0.0292926
-0.00708583
-0.0301442
-0.342167
-0.338196
-0.361391
-0.211524
-0.225451
-0.157254
-0.367919
0.0157042
-0.0883344
-0.303302
-0.029515
-0.441221
-0.182596
-0.143804
-0.0099166
-0.0406793
-0.368703
-0.392383
0.0291459
-0.0496066
-0.190231
0.154858
-0.371053
-0.436462
-0.425641
-0.225501
-0.181963
0.0891353
0.123956
-0.0499542
-0.0723152
-0.352245
-0.327373
-0.0522827
-0.0416317
-0.152842
-0.0382927
-0.294514
-0.215224
-0.328518
-0.293243
-0.156477
-0.274519
-0.431056
0.0203695
-0.436553
-0.439917
-0.436169
-0.288084
-0.434887
-0.029487
-0.0454706
-0.0868299
0.0466759
-0.210165
-0.438285
-0.171954
-0.0747099
0.319289
-0.436602
-0.0889146
-0.0285475
-0.0907321
-0.0350003
0.0210146
0.0144692
-0.295516
-0.33242
-0.126045
-0.0755955
-0.124924
-0.048407
0.183022
0.494159
-0.0182835
-0.178568
-0.220099
0.00170903
-0.0748152
-0.393948
0.0429235
-0.152018
0.2853
-0.439488
-0.36356
-0.438237
-0.231864
-0.210961
-0.189877
0.0398207
0.0213827
0.1552
0.0201789
-0.123966
-0.0439272
-0.373713
-0.302067
-0.032809
0.0385948
-0.267904
-0.0232469
-0.435186
-0.432869
0.0964198
-0.336746
-0.17147
-0.213096
-0.0995401
-0.0425329
-0.26976
-0.389949
-0.217841
0.524157
-0.254932
-0.432508
-0.0949771
-0.341386
0.0200876
-0.0868922
-0.154062
0.0280634
-0.259156
-0.210043
0.470613
-0.397657
0.0285371
0.135088
-0.197205
-0.177474
-0.215196
-0.274735
-0.277278
-0.0394953
0.25119
-0.441669
-0.407535
-0.385343
-0.266241
0.274358
-0.277428
0.0196381
0.00108249
-0.185106
-0.423173
-0.233013
-0.283051
0.108876
-0.225507
-0.141694
-0.140446
-0.256359
-0.115994
0.0655949
-0.212483
-0.376139
-0.384746
-0.291863
-0.0948506
-0.287726
-0.354847
-0.436233
0.003569
-0.298677
0.021327
-0.436833
-0.0851551
0.0499977
-0.0408091
-0.392126
-0.405942
-0.271162
0.00113733
0.301967
0.144361
0.0184343
-0.140578
0.0110533
-0.156712
0.06578
-0.144202
0.311531
-0.426509
-0.338802
-0.139736
0.473796
0.0380695
-0.00236712
-0.122028
-0.0861522
-0.279639
-0.348783
-0.0386685
-0.219273
-0.173186
-0.279411
-0.0228268
-0.0329059
-0.142715
0.475133
-0.255471
-0.131018
-0.287874
-0.140045
0.00166435
-0.360109
-0.230617
-0.0283823
-0.209499
-0.146409
-0.391323
-0.0272291
0.0194147
-0.386522
-0.147903
-0.141518
-0.404043
-0.289274
-0.0321951
-0.0401604
-0.174061
-0.280346
-0.175406
-0.385416
-0.0417885
-0.276218
-0.319777
0.0268625
-0.0398182
0.0352153
-0.0529804
-0.0423545
-0.396414
-0.201144
-0.213482
0.0511369
-0.391271
-0.255995
-0.202485
-0.0231765
-0.182987
0.0472825
0.0152697
-0.261717
0.119555
-0.170823
-0.144146
-0.312465
-0.0441865
-0.175352
-0.0961085
-0.432701
-0.256712
-0.0983116
0.06925
-0.0374531
-0.279956
-0.0762526
0.112524
-0.276165
-0.0852986
-0.291486
-0.039242
-0.192884
-0.0288644
-0.382855
0.0410438
-0.232113
-0.213106
-0.257399
-0.0215584
-0.42628
-0.281127
0.00190028
-0.337398
0.096617
-0.39912
-0.0537158
-0.290527
-0.199497
-0.341147
0.0280022
0.0348795
-0.385695
-0.275468
0.464517
-0.293262
-0.0489806
-0.308734
-0.431735
-0.119976
-0.158741
-0.396886
-0.283722
-0.0954888
-0.0933652
0.0219351
-0.221245
0.0542996
-0.191067
0.022033
-0.338504
-0.0475727
-0.182727
-0.440553
-0.314065
-0.193665
-0.148717
-0.00138943
-0.149798
-0.0921542
0.0993275
-0.00570709
-0.327515
-0.0337353
-0.437888
-0.270422
-0.402238
-0.0405375
-0.392946
-0.404043
-0.00198012
0.163141
-0.0870097
-0.124176
-0.235064
-0.0973376
-0.170031
-0.0947009
-0.350537
0.143767
-0.308029
0.481276
-0.16718
-0.0857576
-0.0242075
-0.255217
-0.0113753
-0.105407
-0.347806
0.0287408
-0.345268
-0.370936
-0.0876412
0.138008
-0.159932
-0.00230576
-0.0823306
-0.432935
-0.339905
-0.118784
-0.0240985
-0.222805
0.264248
-0.148791
-0.299729
0.0259495
0.0500358
-0.0244436
-0.146689
-0.332463
-0.261323
-0.322952
-0.0932937
0.165942
-0.191663
-0.231847
-0.235086
-0.437847
-0.0933547
-0.065142
-0.23251
-0.399519
-0.42752
0.0569623
-0.273637
-0.285998
0.13656
-0.328921
-0.177012
-0.15286
-0.382777
-0.431027
-0.0814996
0.29399
-0.0946883
0.10863
-0.408608
-0.186746
-0.0292249
-0.208461
-0.269162
-0.145559
-0.398786
-0.101846
-0.424203
-0.309574
-0.358591
-0.362608
-0.334293
-0.140387
-0.251859
-0.222933
-0.416918
-0.0418324
-0.0429976
-0.335341
-0.391109
-0.035299
-0.188635
-0.133304
0.243591
-0.315738
-0.144995
-0.143321
-0.396191
-0.405172
-0.348559
-0.139094
-0.0133827
-0.293695
-0.29548
0.0159627
-0.344011
-0.209718
-0.144107
-0.228161
-0.331956
-0.208409
-0.190948
-0.12407
-0.11725
-0.107098
0.0233024
-0.00771367
-0.19884
-0.15385
-0.192965
-0.356869
0.0251468
0.00364013
-0.0538789
0.512529
-0.363761
-0.388034
0.51613
-0.269999
0.497725
-0.111276
-0.43534
0.0664658
-0.0464271
0.0249396
-0.214109
-0.0350252
-0.240004
-0.0412933
0.0854261
-0.0382342
-0.27373
-0.322411
0.0226609
-0.0944054
-0.190006
0.107836
0.137063
-0.39846
-0.096204
-0.194837
-0.0707444
-0.364639
-0.0658345
-0.0247239
-0.408069
-0.053139
0.0712999
-0.392031
-0.0248347
0.0274292
-0.414326
-0.343396
-0.328449
-0.0844048
-0.131634
-0.0624713
-0.42779
-0.299723
-0.0110864
-0.387008
-0.30693
-0.227088
-0.296219
0.0529614
-0.213307
-0.219302
-0.434193
-0.416155
-0.112113
-0.172013
0.158667
-0.274767
-0.194389
-0.335619
-0.256237
-0.335735
-0.243394
-0.223539
0.0258594
-0.0651132
-0.102389
-0.117219
-0.0161855
-0.196126
-0.219138
-0.269717
-0.226473
-0.193653
-0.348353
-0.149786
-0.247431
-0.139712
-0.283025
-0.118684
0.00364714
-0.0993294
-0.0422527
-0.01049
-0.150521
-0.0601059
-0.112376
-0.231504
0.494906
-0.377167
-0.436231
-0.295578
-0.198154
-0.0316884
0.0543702
0.0289917
0.0722224
-0.436675
-0.120561
0.462197
-0.0242789
-0.15041
-0.434154
-0.0432653
-0.0345108
-0.308237
-0.430864
-0.410623
0.0369911
-0.0803322
0.0982444
-0.396376
-0.394381
-0.0526879
-0.041264
-0.0227869
0.025026
-0.16861
-0.164904
0.515158
-0.330706
-0.0674138
-0.327815
-0.0949684
-0.079186
-0.28389
-0.00534833
-0.11637
-0.273192
-0.0373657
-0.295981
-0.303841
0.0805326
-0.322598
-0.344993
-0.213495
-0.139407
-0.169562
-0.167466
-0.038639
0.0210151
-0.109416
-0.134321
-0.280867
-0.158086
-0.0123832
-0.431067
0.00330879
-0.0974687
-0.433422
-0.223148
-0.232702
-0.435857
-0.120719
-0.00775218
-0.0549057
0.0239904
-0.0111971
-0.336036
-0.0548302
-0.190908
-0.418053
-0.0367695
-0.0758369
-0.416794
0.0363415
0.266656
-0.352844
-0.0397745
-0.287889
0.00282163
-0.193807
-0.270643
-0.313875
-0.250589
-0.435826
-0.39802
0.119087
-0.372813
-0.0446062
-0.136607
0.23368
-0.424837
0.0852444
-0.423971
0.0027322
-0.39766
-0.103944
-0.33917
-0.0395589
-0.0589174
-0.229349
-0.285522
0.0507104
-0.104261
-0.0575492
-0.284774
-0.436068
-0.0477689
-0.422009
-0.45081
-0.246558
0.00213566
-0.248561
0.0166877
-0.033483
-0.285618
0.0221068
0.0618386
-0.427884
-0.113385
0.0187064
0.151888
0.0211889
-0.0373252
-0.198935
-0.403841
-0.0356044
-0.034492
-0.256012
-0.0312272
-0.199017
-0.0364192
-0.437583
-0.356068
-0.0357176
-0.117268
-0.146722
-0.167636
0.0242128
0.0804853
-0.153513
0.0123192
-0.415439
-0.427765
-0.147693
-0.434501
-0.334111
-0.144245
0.00820906
-0.260366
0.00745617
-0.0778545
-0.154055
-0.0126766
-0.0615605
-0.290023
-0.370098
-0.439391
-0.331237
-0.174651
0.00934139
-0.309814
-0.254733
-0.149993
-0.433931
-0.301114
-0.184114
-0.186283
-0.166689
-0.412343
0.198897
-0.307639
0.0701853
-0.12452
0.0437019
-0.233218
-0.151543
-0.067912
-0.145692
-0.264394
0.14118
-0.113241
-0.138962
-0.437304
-0.135936
0.0329171
-0.377628
-0.376075
-0.1683
-0.402114
-0.0544666
-0.0939958
-0.326901
-0.141213
-0.137988
-0.132508
-0.411079
-0.0265234
0.0223834
-0.106465
-0.0359996
-0.426741
-0.0379446
-0.369192
-0.123202
0.00559254
0.100298
0.140456
-0.439113
0.0219767
-0.0339983
-0.434353
-0.312149
-0.113115
-0.0269069
0.019727
-0.28511
-0.178968
-0.219862
-0.359814
-0.122519
0.025765
-0.437299
0.0517683
-0.334835
-0.118029
0.15939
-0.165537
0.0148561
-0.0411851
-0.130377
-0.274853
0.281415
-0.157935
-0.0334755
-0.415093
-0.170845
0.0498172
-0.00515157
0.116546
0.00109599
-0.320698
-0.296834
0.00914839
0.0114566
0.0200616
-0.0211138
0.00993125
-0.0409821
-0.372979
-0.141711
-0.00790333
-0.437259
0.0227115
-0.074581
-0.082872
-0.432267
0.487523
-0.345512
-0.0725495
0.0189897
-0.434451
-0.00692799
-0.154272
-0.101456
-0.210671
-0.369358
-0.307457
0.0264633
-0.0487893
-0.337426
-0.170481
-0.117142
-0.00888633
-0.044922
-0.284905
-0.10463
-0.119282
0.0413637
-0.0412572
-0.304801
-0.0776659
-0.034461
0.221623
-0.435555
-0.303207
-0.402879
-0.131202
-0.0386354
-0.279153
-0.263639
-0.379068
-0.112765
0.147301
-0.168454
-0.00567335
-0.433652
-0.336717
-0.0220236
-0.201533
-0.162683
0.0105277
0.522882
-0.0771378
0.0593767
-0.370845
-0.216701
0.0190178
-0.163064
-0.422654
-0.00309814
0.0169311
-0.219123
0.257749
0.251117
-0.0351956
-0.175774
-0.156327
-0.146639
-0.293977
-0.43646
0.252993
-0.0529052
-0.433548
-0.0864532
0.242882
-0.0590554
-0.151157
0.266805
-0.0571745
-0.0177533
-0.121353
-0.428593
-0.428492
0.017863
0.0408461
-0.418378
-0.0223243
0.439093
-0.154369
-0.034382
-0.0189777
-0.263009
-0.110515
-0.352635
-0.41259
0.013623
-0.0653516
-0.142063
-0.086133
-0.197306
-0.139825
0.182976
0.00852629
-0.0343139
-0.251342
-0.110078
0.0101555
-0.2752
-0.438844
-0.0312051
0.233923
-0.0253001
-0.0678665
0.0292484
-0.270412
-0.424284
0.053021
-0.0269029
-0.40369
-0.0968159
-0.225506
-0.0767479
-0.0642034
0.0425947
-0.0966836
0.0207252
-0.351628
-0.374553
-0.066251
-0.141249
-0.241018
-0.0730914
-0.15552
-0.364416
-0.123636
0.0121989
-0.404986
-0.307261
0.00658145
-0.142678
0.0310632
-0.351997
-0.362024
-0.0106477
-0.219401
0.00575699
-0.436716
-0.0866954
-0.168191
-0.144778
-0.138845
-0.0382148
-0.368182
0.021734
-0.101215
0.525936
-0.151445
0.238118
-0.372285
-0.186032
-0.23174
-0.316014
-0.26318
-0.122585
-0.242438
-0.393202
0.0940396
0.341661
-0.291128
-0.0341175
0.224499
0.00343229
0.186679
-0.43861
0.439881
-0.0493571
0.191405
0.0259488
-0.332038
0.000413732
-0.146435
-0.0280397
-0.226981
-0.404264
-0.204982
-0.194284
-0.202368
0.186994
-0.0370651
-0.129535
-0.316183
-0.0724368
-0.0238094
-0.0573155
-0.0691168
0.0611857
0.278301
-0.433561
-0.392925
-0.0116526
-0.436925
-0.0806178
-0.142274
-0.196658
-0.219219
-0.343414
-0.0231548
0.2876
-0.358173
0.098399
-0.319282
-0.0217809
0.0113322
0.0113531
-0.00497522
-0.0866306
0.354219
0.115454
-0.341605
0.13054
0.0209629
0.00942318
-0.417878
0.294513
-0.0762685
-0.148041
-0.136854
-0.303818
-0.246081
0.0702119
-0.101589
-0.288414
-0.0179736
-0.0394871
-0.332325
-0.0550972
-0.270109
-0.0279103
-0.017148
-0.18541
-0.085839
-0.303211
-0.206748
0.145976
-0.0375505
-0.0629549
0.0300356
-0.266169
-0.430815
-0.420899
-0.0416061
0.0106679
-0.0812859
0.0189428
0.0493629
0.0256725
-0.0329479
0.0246466
-0.193985
-0.0514103
0.0102205
0.510456
-0.363048
-0.00506683
-0.389704
0.0459778
0.0596642
-0.382201
-0.242175
-0.0901972
-0.279493
-0.373875
0.452984
-0.0334166
-0.365147
-0.304363
0.243444
-0.19652
-0.280689
-0.313592
-0.146904
-0.145998
-0.131608
-0.143946
0.319844
0.0313623
-0.0365155
-0.437494
-0.196895
-0.264479
-0.0125155
0.0239272
-0.192834
0.0184087
-0.393908
-0.142118
-0.0076931
-0.179233
-0.365998
0.0613495
-0.307057
-0.378129
-0.327482
-0.308457
0.0149269
-0.106429
-0.188158
-0.273298
-0.272773
-0.438371
0.023445
-0.267149
-0.156975
-0.437252
-0.0425119
-0.00395963
-0.283119
-0.195615
-0.0122161
-0.338943
0.0936725
-0.0468674
-0.0425924
-0.417582
-0.431745
-0.379198
0.00448425
0.0112099
-0.142559
0.081669
-0.25822
0.349669
-0.201346
-0.128262
-0.0425177
-0.401103
-0.336953
-0.205458
-0.335943
-0.137745
-0.33106
-0.10088
-0.384611
0.0627631
-0.430314
-0.420238
0.02333
-0.17482
-0.218665
-0.225004
0.0807515
-0.0133763
-0.435467
-0.142564
-0.242607
-0.425536
-0.412932
-0.124796
-0.179249
-0.154459
-0.141907
-0.143939
-0.33339
-0.0139613
-0.295693
-0.321698
0.155911
-0.257527
-0.398665
0.0447983
-0.324271
0.183486
-0.321183
-0.232374
-0.267045
-0.282163
-0.346921
-0.0901257
0.0472474
-0.0266694
0.00196855
0.00447954
-0.302303
-0.267902
-0.0336507
0.0234435
-0.208411
-0.0494537
-0.216776
-0.404678
-0.308431
-0.263661
-0.0424301
-0.244962
0.00349372
-0.382328
-0.0391243
-0.275942
-0.421493
-0.179435
-0.204816
0.0883176
-0.171541
-0.376505
-0.431793
-0.419308
-0.403218
-0.296606
-0.408942
-0.292173
-0.128237
-0.436315
-0.0247351
-0.0100028
-0.152974
-0.158953
-0.324232
-0.0434314
0.0665356
-0.0350737
-0.172596
-0.213062
-0.129765
-0.0214243
-0.317874
-0.143141
-0.0473909
-0.0508813
-0.202676
-0.360652
-0.353
-0.0229901
-0.236584
-0.0394006
0.0322703
-0.227165
-0.0175914
-0.155253
-0.285255
-0.130297
-0.144332
-0.131376
0.0527057
0.0109529
-0.0927799
-0.28063
-0.125491
-0.0451801
-0.144258
-0.336844
-0.295486
-0.423089
-0.0764442
-0.100858
-0.181959
-0.17723
-0.152068
-0.0104208
-0.0507244
-0.157105
-0.336057
-0.1297
-0.432998
-0.156893
-0.130357
-0.0126835
-0.0254336
-0.267816
-0.0684177
-0.0346202
0.200413
-0.0458002
-0.350256
-0.0063305
0.0102979
-0.0899286
-0.00974761
-0.208095
-0.404839
-0.296807
-0.289607
-0.391759
-0.179038
-0.12158
-0.0112511
-0.164332
-0.308471
-0.0211711
-0.369336
-0.390592
0.496758
-0.245772
-0.31245
-0.250115
-0.00739358
-0.332462
-0.390738
0.317682
0.0846416
-0.432515
-0.160464
-0.0958663
-0.00104862
0.102075
-0.433085
-0.247507
-0.425167
-0.346689
-0.231517
0.473718
-0.42488
-0.211129
-0.213939
0.010703
-0.216781
-0.0121846
-0.273845
-0.344806
-0.43803
-0.172902
-0.205289
-0.324021
-0.0425822
-0.25939
0.22994
-0.0424092
-0.229359
-0.0341256
-0.274786
0.0371148
-0.434378
-0.391631
-0.0208362
-0.052415
-0.438403
-0.111422
0.444024
-0.131841
0.20801
-0.0418761
-0.0695102
-0.000594923
-0.121737
0.504444
-0.391025
-0.310497
0.471056
-0.394997
-0.0339714
-0.231385
0.0466332
-0.118235
-0.205505
-0.324705
-0.413651
-0.183843
-0.0224904
-0.436145
-0.202849
-0.0226116
-0.005998
-0.283178
-0.418402
-0.360189
-0.115429
-0.372435
-0.361987
-0.00469079
-0.218888
-0.202588
-0.119022
-0.433189
0.472823
-0.24258
-0.260275
-0.439253
0.0374223
0.0120455
-0.119325
-0.0261903
-0.43885
-0.0122876
-0.307846
-0.0265222
-0.272601
0.203526
-0.182169
-0.368862
-0.169535
-0.348791
-0.00439333
0.464726
-0.397404
-0.420973
-0.109606
0.0364272
-0.267277
-0.238878
-0.270069
-0.0550415
0.0148831
0.0256031
-0.405275
-0.26335
-0.062809
-0.166999
-0.241027
-0.00729152
-0.437096
-0.203994
-0.310682
-0.215735
-0.329203
-0.240053
-0.129494
-0.0886363
-0.399513
-0.0250013
0.419287
-0.173923
-0.409163
0.0978107
-0.202799
0.0914634
-0.174025
-0.0945342
-0.258754
-0.0932056
-0.302484
-0.0546934
-0.41046
-0.116415
-0.160493
-0.264896
-0.40992
-0.404267
-0.344326
-0.16642
-0.300912
-0.144594
-0.129309
-0.0428109
-0.177752
0.00530935
-0.43819
-0.00932669
0.0314099
-0.242115
0.0263148
-0.043395
-0.00491465
-0.30907
0.0510703
-0.333333
-0.00651166
-0.300665
-0.273862
-0.278827
-0.00771218
-0.385224
-0.0686357
-0.0987818
-0.0584258
-0.160064
0.026257
-0.251012
-0.0159117
-0.436766
-0.303176
-0.098436
-0.195583
-0.172393
-0.430104
-0.0675908
-0.408774
-0.197153
-0.401872
-0.107865
-0.083407
-0.192673
-0.39503
0.0190152
-0.281161
-0.331982
-0.0633039
-0.143148
-0.0791249
-0.234928
-0.0966246
-0.035106
0.0260863
-0.0850598
0.173904
0.0458533
-0.15483
0.0191375
-0.164572
0.215187
-0.281371
-0.160758
-0.00735038
0.313794
0.208397
-0.0425188
-0.182298
0.0409913
-0.349763
0.138881
-0.339711
0.0483264
0.385482
-0.011551
0.170712
-0.386753
-0.421842
-0.335732
-0.437968
-0.27777
-0.175819
-0.0620629
-0.0535293
-0.253571
-0.312031
-0.397356
-0.434633
-0.0085336
0.506483
-0.0119672
-0.100729
-0.0974386
0.202555
-0.0672514
-0.430759
0.511489
-0.253657
-0.434849
-0.193653
-0.279884
-0.164209
-0.10064
-0.00775425
-0.0658451
-0.0873512
-0.111602
-0.178534
-0.159506
-0.0611312
0.0177646
-0.439256
-0.197328
-0.26903
-0.41766
-0.307134
-0.364322
0.187062
0.211045
-0.195019
-0.0923267
-0.0563638
0.125694
-0.229865
-0.0758637
-0.187143
-0.198575
-0.437361
0.0271459
0.227738
-0.184305
-0.115477
-0.166538
0.0324526
-0.0778077
-0.243886
-0.1781
-0.254727
-0.0662606
-0.0302111
-0.369985
0.0148726
-0.262998
-0.394906
-0.131492
-0.281427
-0.0680662
-0.13326
-0.0476097
-0.0679934
0.0308597
-0.43498
-0.407034
-0.00724978
-0.216212
-0.350905
-0.0445475
-0.0389679
-0.127723
-0.299522
-0.221916
-0.192767
-0.00668841
-0.0606262
0.112512
0.279829
-0.374188
-0.107211
-0.0507302
-0.0661057
-0.199077
-0.102813
-0.350376
-0.304414
-0.00844299
-0.273273
0.0126781
-0.43465
0.0239494
-0.161048
-0.312841
-0.101194
-0.312038
-0.117008
-0.0686907
0.42102
0.139983
-0.0256411
0.0505084
0.227822
-0.185184
-0.169983
-0.315681
0.05869
0.0225818
-0.0645756
-0.307123
0.0655675
-0.185334
0.490547
-0.369575
-0.201621
-0.218977
0.0161113
-0.167061
-0.0786085
-0.0448337
-0.0207867
-0.000989025
-0.0629052
0.170807
-0.195521
-0.0127132
-0.103029
-0.399624
0.024152
-0.362966
-0.0362874
-0.0435293
0.0825988
-0.236355
0.389315
-0.363874
-0.136616
-0.0423346
0.10519
-0.00814567
-0.436143
-0.12001
-0.307783
-0.350525
-0.378236
-0.025596
-0.184908
-0.0641168
-0.27466
-0.162064
-0.437397
-0.169297
-0.197684
0.0530092
-0.237742
-0.428877
0.440086
-0.312935
-0.406657
-0.180103
-0.246336
-0.123606
-0.348715
-0.0697682
-0.241302
-0.380967
0.267063
0.0230629
-0.201163
-0.188118
-0.0816906
-0.0666194
-0.424371
0.022037
-0.2798
-0.163336
-0.248373
0.339452
-0.109877
0.00735519
0.232751
-0.240515
0.0094367
-0.188106
0.452913
-0.342505
0.0614219
-0.305915
-0.00618724
-0.425163
-0.0632588
-0.244428
-0.0639395
-0.14924
-0.0238951
-0.419541
0.386255
-0.171282
-0.437174
-0.257407
0.025455
-0.290926
-0.354535
-0.37027
-0.421012
-0.434392
0.026786
-0.0314989
0.43468
0.0278223
-0.384322
-0.222085
0.117054
-0.437203
-0.141371
0.12164
-0.265895
-0.0920853
-0.262877
-0.435513
0.0857506
-0.133461
-0.16491
-0.0779427
-0.0257333
-0.0672068
0.0527951
-0.0412388
0.0155473
-0.327192
0.0142299
-0.048819
-0.0746233
-0.0129926
-0.0733266
0.0126304
-0.229263
-0.279832
-0.218403
-0.0357276
0.372713
-0.34291
-0.0511144
-0.436317
-0.0204641
-0.0765356
-0.15001
0.10125
-0.374576
-0.43018
0.192852
-0.0700263
-0.363793
-0.259408
-0.306665
-0.0810046
-0.142405
-0.428197
-0.36311
-0.423006
-0.0580633
0.365338
-0.433324
-0.0275224
0.175653
-0.0744805
0.109571
-0.236229
-0.385482
-0.403774
-0.0457339
-0.347782
-0.171488
-0.0364945
-0.112172
-0.0378909
-0.0244988
-0.129133
-0.0447969
-0.405284
-0.140793
-0.43694
-0.251657
0.0141848
-0.0122861
-0.0115222
-0.251668
-0.00181456
-0.368637
-0.319874
-0.0319123
-0.0443738
-0.177364
-0.268333
-0.265719
-0.0823356
-0.249556
0.0378347
-0.0684943
-0.204001
-0.0498548
-0.0434569
-0.148011
-0.0136859
-0.379552
-0.217067
-0.0439096
0.0807871
-0.170405
-0.0385673
-0.434349
-0.100864
0.00444371
-0.143301
-0.0381892
0.208053
-0.0504145
-0.181769
-0.0675913
0.129639
-0.0925429
-0.154489
-0.0427133
-0.424796
-0.437652
-0.105861
-0.0112668
-0.39402
-0.231289
-0.302578
-0.22756
-0.0773569
-0.0522519
-0.00845308
-0.258881
-0.254728
0.334908
-0.237139
-0.14915
-0.120485
-0.185853
-0.0128991
-0.161777
-0.0322405
-0.182208
0.0263151
-0.0149874
-0.0758367
0.00499534
-0.230771
0.133975
-0.269724
-0.302431
-0.150452
-0.429932
-0.0616249
-0.0884355
-0.0356429
-0.39242
-0.0627703
-0.0572175
-0.0249534
-0.152924
-0.17353
-0.178721
-0.246104
-0.26382
-0.437009
-0.0352032
0.240195
0.204976
-0.437098
-0.232386
0.0242393
-0.0163882
-0.205348
0.0295293
0.111477
-0.0513288
-0.120166
-0.110463
-0.433003
-0.0344614
0.00292973
-0.391942
-0.428362
-0.160249
-0.0604807
0.00629933
-0.198379
-0.346885
-0.148723
-0.265541
-0.0933035
0.101035
0.228804
-0.173309
0.0970167
-0.184248
-0.308417
0.024365
-0.309696
-0.195577
0.381706
-0.194972
-0.209777
-0.432426
-0.425361
-0.129466
-0.317527
-0.00773688
-0.099194
-0.293672
-0.147219
-0.207193
0.0179155
-0.24499
-0.321071
-0.298961
-0.226455
-0.165126
-0.0705906
-0.296634
-0.426688
0.0621284
-0.36712
-0.131501
0.0703727
-0.438786
-0.130214
-0.397742
0.159637
0.487592
-0.300464
-0.408127
-0.116336
-0.436191
-0.0530467
0.00111975
-0.165915
-0.0755205
-0.0190708
-0.00575987
-0.147163
-0.232965
-0.169373
-0.431537
-0.411842
0.253944
0.0288687
-0.323153
-0.131181
0.0463157
-0.382918
-0.232594
-0.0153932
-0.0539833
0.134188
0.105507
-0.129838
-0.408234
-0.264032
-0.293821
-0.0674181
-0.236757
-0.0718591
-0.145535
-0.421677
-0.0407538
-0.0106421
-0.130365
-0.0377262
-0.321168
-0.30427
-0.0868753
-0.0393296
-0.117015
-0.0164829
-0.0774362
-0.310939
-0.0502258
-0.259643
-0.328373
-0.00736865
-0.316606
-0.0751019
-0.171392
-0.34035
-0.294375
-0.370237
-0.234851
-0.170158
-0.424444
-0.022096
-0.437456
0.0518263
0.0862587
0.0900457
0.188578
-0.226661
0.150339
-0.346295
-0.283136
0.0154911
-0.299942
-0.437437
0.026345
-0.240369
-0.0422851
-0.37807
0.468625
-0.285523
-0.176266
-0.438326
-0.144209
-0.196951
-0.264367
0.0684451
-0.242261
-0.425621
-0.436594
-0.0218045
0.043671
0.0653707
-0.333492
-0.0723741
-0.241636
-0.0408731
-0.046748
-0.0307602
-0.281733
-0.0334618
0.00323861
0.159739
-0.303912
-0.0416732
0.0234939
0.349194
-0.00580994
-0.146036
-0.250745
-0.011686
-0.392563
-0.256405
-0.177338
-0.412831
-0.188282
-0.239628
-0.37124
-0.00763908
-0.07821
-0.205691
-0.00927392
-0.389823
-0.367326
0.0831301
-0.018255
-0.431424
-0.39677
-0.235309
-0.260067
-0.0259928
-0.376142
-0.235202
0.0012521
-0.386421
-0.363397
-0.413503
-0.425748
-0.0372408
-0.0652728
0.025824
0.030888
-0.079681
-0.0110091
-0.217548
-0.178125
-0.383279
0.0503018
-0.0744661
-0.0391201
0.0184574
-0.435343
0.132271
-0.422773
-0.262884
-0.071897
-0.0510324
-0.252591
0.490437
-0.36525
-0.125903
-0.254749
-0.227351
-0.188265
-0.0891537
-0.0434474
-0.399108
-0.0147434
-0.409413
-0.267177
-0.437233
-0.33849
-0.437953
-0.0557368
-0.340613
0.0382491
-0.176086
-0.434585
-0.403213
-0.261261
0.0666653
-0.192968
-0.310749
-0.00182192
-0.405088
-0.248099
-0.371171
-0.436467
-0.400726
-0.0904056
-0.330108
-0.151136
-0.110575
-0.129318
-0.254856
-0.0053617
0.405454
0.0245887
-0.171515
-0.371581
0.0282208
-0.377705
-0.433147
-0.0525677
-0.0383961
-0.0559512
-0.239983
-0.383722
-0.0881527
-0.261479
-0.100934
-0.167138
-0.252548
-0.177077
-0.178232
-0.148393
-0.277535
-0.261048
-0.42248
0.104182
-0.315968
-0.349614
-0.185801
-0.0404303
-0.189838
-0.204142
-0.307389
-0.184824
-0.0132088
-0.00508254
0.279113
-0.0558673
-0.297116
-0.0401503
-0.244437
0.0794683
-0.391002
-0.425166
-0.254628
-0.32076
-0.391351
-0.0421923
-0.0676691
-0.125904
-0.385971
0.00458657
0.100413
-0.414483
-0.428493
-0.402809
-0.184633
0.0264478
-0.186594
-0.185708
-0.220099
-0.421034
-0.257715
-0.185133
-0.285445
-0.303696
-0.43653
-0.0357046
-0.0592943
-0.0154347
-0.153227
-0.426867
-0.0272791
-0.0905268
-0.297831
-0.352179
-0.170516
-0.306705
0.480137
-0.256863
-0.299811
0.391597
-0.0295559
-0.3694
-0.233575
-0.437012
-0.0746642
-0.275884
-0.081283
-0.435163
-0.213487
0.384434
-0.314847
-0.164776
-0.432389
-0.312259
-0.176134
-0.424252
-0.436207
0.00613119
-0.357541
-0.347255
0.111051
-0.235267
-0.0735698
0.0877984
0.0817049
-0.363876
-0.154079
0.106928
-0.175611
-0.00454588
0.130311
-0.393728
-0.438569
-0.344503
-0.249198
-0.0886618
-0.170244
-0.294435
0.0612775
-0.0121634
-0.424584
-0.28105
-0.298827
-0.360672
-0.0940311
-0.319534
-0.114571
-0.164952
-0.0914676
0.106692
-0.4049
-0.32749
-0.246763
0.511929
-0.261692
-0.096296
-0.432208
-0.283582
-0.337948
-0.247347
-0.0537613
-0.0045531
-0.138736
-0.290846
-0.0323958
-0.0762726
-0.231252
0.00286051
-0.396301
-0.0309278
-0.00362567
-0.0442456
-0.0134828
-0.380261
-0.185548
0.00334243
-0.0708972
-0.0909109
-0.243904
-0.199412
-0.419097
0.165148
-0.407015
-0.0163366
-0.415783
-0.132567
-0.198972
-0.329252
0.0179703
-0.0443964
-0.0433824
-0.0300646
-0.436161
-0.0683174
-0.035712
-0.391103
0.468066
0.00534313
-0.080578
-0.0550522
0.317319
0.447391
-0.412657
0.361957
-0.355458
-0.194379
-0.377817
-0.304226
0.0473807
-0.0295018
-0.271777
-0.290355
-0.4373
0.00963698
-0.384632
-0.32058
-0.139999
-0.382004
-0.376978
-0.154962
-0.0668527
-0.435779
-0.200198
-0.0734872
-0.0904795
-0.030455
-0.332907
-0.207479
0.458615
-0.409343
0.503562
-0.0891604
-0.368269
0.0351771
-0.204488
-0.0373071
-0.201407
0.376555
-0.437214
-0.407864
-0.0157864
-0.125627
0.102835
-0.196855
-0.0654244
-0.218703
-0.413457
-0.141065
-0.246321
-0.0900238
-0.0163745
-0.265091
-0.363212
0.115573
0.383896
-0.144843
0.0163058
-0.190774
-0.400801
-0.14808
-0.343627
-0.177485
0.444759
-0.0349404
-0.276749
-0.0404255
-0.143451
0.00758895
-0.0421378
-0.0923809
-0.402783
0.139453
-0.364108
-0.436879
-0.219028
-0.162048
0.487407
-0.385162
-0.0301018
-0.220691
-0.165266
-0.0395019
0.0135209
-0.148576
-0.278663
0.0831439
0.194847
0.284726
-0.405112
-0.359148
0.103357
-0.233123
-0.321452
-0.0650443
0.502714
-0.0960469
-0.440369
-0.147644
0.462146
-0.117332
0.448395
-0.145481
0.0125795
-0.0669032
-0.090471
-0.18068
0.0624356
-0.105208
-0.258963
-0.286172
-0.277905
0.181331
-0.385796
-0.153343
0.117305
-0.320847
-0.391233
0.0826546
-0.39604
-0.402345
-0.226878
-0.261195
-0.164096
-0.390467
-0.392077
-0.1614
-0.137213
-0.125524
-0.262383
-0.396214
-0.292466
-0.380859
-0.397662
-0.39961
-0.0017608
-0.417611
-0.193011
-0.422633
-0.115782
-0.023703
-0.169371
0.457259
-0.376079
-0.325987
-0.339717
0.228693
0.482634
0.224355
-0.112347
-0.0704692
-0.0637265
-0.116758
-0.178385
0.44552
-0.386603
-0.369833
-0.435357
-0.0162345
0.0311644
-0.114709
-0.142318
0.0179189
-0.37701
0.187961
-0.25181
-0.414671
-0.0244853
-0.192789
-0.386178
-0.185149
-0.0256233
-0.20338
-0.20854
-0.414191
-0.118458
-0.129117
-0.21701
-0.147432
-0.196113
-0.268503
-0.133767
-0.185145
-0.357937
-0.219298
-0.233449
0.213492
-0.00929716
-0.00965851
-0.314662
-0.212054
-0.375355
0.0124662
-0.344941
-0.213936
-0.370919
-0.0692213
-0.319926
-0.262226
-0.269222
0.440553
-0.236713
-0.240413
-0.046246
-0.29106
-0.329961
-0.0125206
-0.35761
-0.24788
-0.276365
-0.233803
-0.298193
-0.0207938
0.0219598
-0.238133
-0.260848
-0.256467
-0.192326
-0.112453
-0.415646
-0.152233
-0.393656
-0.245552
-0.36412
-0.237035
-0.252816
-0.329012
-0.354377
-0.226368
-0.0481155
-0.25485
-0.346566
-0.136348
-0.351742
-0.0883934
-0.265702
-0.267341
-0.157381
-0.347209
0.135287
-0.00734393
-0.112842
-0.245755
-0.334259
-0.252747
-0.327179
-0.268835
0.0270955
-0.261221
-0.0599324
0.116918
-0.401031
0.0848145
-0.197175
-0.311624
-0.316373
-0.0621762
-0.421769
-0.310513
-0.283612
-0.294312
-0.338317
0.0738295
-0.285675
-0.297373
-0.107217
0.104958
-0.0497111
-0.156099
0.0151564
-0.23844
-0.269007
-0.0664518
-0.32231
-0.154752
-0.148746
0.0856696
-0.150922
-0.147112
-0.126521
0.0154733
0.0262672
-0.113728
0.239098
-0.283743
-0.142461
0.430545
-0.133657
0.0167099
0.213716
-0.327746
-0.381897
-0.0424121
0.440706
0.228
-0.260931
-0.173485
-0.230648
-0.348771
-0.0784243
0.00252647
-0.160617
-0.435148
-0.308455
0.499183
-0.347797
-0.16707
-0.433006
0.0424392
-0.422698
-0.12667
-0.0900194
-0.259679
-0.422041
-0.437464
-0.399672
0.0346093
-0.142786
-0.0776285
-0.0452461
-0.139344
0.00416018
-0.202688
0.513239
0.0663876
-0.23551
-0.307292
-0.398459
-0.110773
-0.197125
-0.416722
-0.120953
-0.165141
-0.0454727
-0.184359
-0.172384
-0.307726
-0.141916
-0.438138
-0.225973
-0.235536
-0.340181
0.0937312
-0.113489
-0.149219
0.00483342
-0.225942
0.480984
-0.224886
0.125763
-0.109504
-0.219877
-0.338717
-0.0475849
0.172759
-0.297566
-0.0659032
-0.189518
0.0213081
-0.0308439
-0.0341451
-0.435256
-0.287116
0.00317946
0.2392
0.210995
-0.257372
-0.139028
0.417295
-0.200446
-0.254793
-0.0988296
-0.182157
-0.427595
0.30284
-0.166089
-0.127984
-0.0430993
0.0804538
0.499637
-0.0600166
-0.419753
-0.143162
0.141326
0.204167
-0.168823
-0.014376
-0.229024
0.00620954
-0.408336
-0.0457653
-0.160463
-0.118789
-0.204701
-0.0291387
0.0137537
-0.0020913
-0.112186
-0.267459
-0.0596575
0.0278962
0.462349
0.0459316
-0.277366
-0.0698563
-0.0175214
-0.437539
-0.438631
-0.00551547
0.0781266
-0.240864
0.137258
0.266162
-0.146958
-0.192148
-0.43581
-0.16857
-0.416305
-0.28861
-0.0462646
-0.293496
-0.0285644
0.0278802
0.0195587
0.315364
-0.194386
-0.341526
0.33404
-0.0481529
-0.157839
-0.0997881
-0.364161
-0.397028
-0.0746553
0.0489834
-0.436871
-0.238014
0.00710837
0.478208
-0.0402602
0.0347709
-0.430387
-0.0335571
-0.231334
-0.29444
-0.168472
-0.187854
-0.190998
-0.412483
0.205752
-0.366497
-0.320094
-0.107819
-0.207649
-0.426736
0.428523
-0.43459
-0.412575
0.0247263
-0.296929
-0.0437871
-0.240034
-0.290179
0.0161497
-0.406072
-0.0225926
-0.0142014
0.0558423
-0.0504872
-0.0418099
-0.308902
-0.138476
-0.0407304
-0.0484104
-0.0899645
0.0152231
-0.43434
-0.191094
-0.420333
-0.263521
-0.390852
-0.385258
-0.0653648
0.184015
-0.255617
0.405149
-0.398364
-0.174464
-0.0417512
-0.279222
-0.164495
-0.411639
0.499669
-0.126852
-0.0136334
-0.118981
-0.170694
-0.0420705
-0.043391
-0.360188
-0.17791
-0.377275
-0.251567
-0.0362715
0.494983
-0.278206
-0.0601318
-0.42116
-0.392397
0.0144903
-0.131543
-0.0952332
-0.197732
-0.318747
-0.258647
-0.00351835
0.0327948
0.481566
-0.10867
-0.0902263
0.0439954
-0.212995
-0.127252
0.046562
-0.296012
-0.149076
0.081464
-0.249206
0.101068
-0.0323811
-0.357304
0.0136178
-0.383378
-0.200107
-0.151766
-0.178674
-0.0368953
-0.437709
-0.358825
-0.0686234
0.168533
-0.215744
-0.0848585