/*--------------------------------*- C++ -*----------------------------------*\
| =========                 |                                                 |
| \\      /  F ield         | OpenFOAM: The Open Source CFD Toolbox           |
|  \\    /   O peration     | Version:  v2012                                 |
|   \\  /    A nd           | Website:  www.openfoam.com                      |
|    \\/     M anipulation  |                                                 |
\*---------------------------------------------------------------------------*/
FoamFile
{
    version     2.0;
    format      ascii;
    class       surfaceScalarField;
    location    "200";
    object      phi;
}
// * * * * * * * * * * * * * * * * * * * * * * * * * * * * * * * * * * * * * //

dimensions      [0 3 -1 0 0 0 0];
oriented        oriented;


internalField   nonuniform List<scalar> 
22717
(
-0.00178346
-0.0112003
0.0129837
0.000512222
0.107723
-0.108235
-0.0158121
0.0177788
-0.00196663
-0.129491
0.172236
-0.0427455
0.0088764
-0.00876113
-0.000115267
-0.334607
0.0064941
0.328113
0.178409
-0.0368535
-0.141555
0.151073
-0.0823109
-0.0687617
-0.223514
0.0234142
0.2001
-0.0133779
0.0115944
-0.0157863
-2.57941e-05
-0.13028
-0.216114
0.00190197
0.00697443
-0.000451101
0.00263451
-0.00218341
0.000127144
-0.0313033
0.0311761
0.111114
-0.103388
-0.00772611
-0.600222
0.0123253
-0.0101267
-0.00219864
0.283792
-0.446967
0.163175
-0.00860258
0.00891968
-0.000317097
0.00343379
-0.000244722
-0.00318907
0.004533
-0.00109921
0.104867
0.0735421
-0.417848
0.525217
-0.107369
-0.168885
0.107847
0.0610379
-0.153285
0.0697031
0.083582
0.0154614
-0.0154614
-0.117299
-0.0359858
0.00452883
-0.00334164
-0.00118719
-0.254873
0.0755091
0.179364
0.0166652
-0.0166652
-0.0316571
0.0393466
-0.0076895
-0.64891
0.45442
-0.0426777
-0.280866
0.323544
-0.287218
0.467622
-0.180404
0.140007
-0.126945
-0.0130623
0.0858017
0.0542051
0.0311543
0.0596011
-0.0907554
-0.00814464
0.0083596
-0.000214965
-0.102828
-0.00220701
0.105035
0.123023
0.00479952
-0.127822
-0.107986
-0.00283124
0.110817
-0.229922
0.363827
-0.133905
0.279896
-0.232433
-0.0474635
-0.0151443
0.000257056
0.0148872
-0.106701
-0.304929
0.411631
-0.0111231
0.0128908
-0.00176764
0.00310916
-0.0337852
0.030676
-0.00103534
0.000584242
0.218298
0.0197254
-0.238023
-0.572631
0.154784
0.0256934
0.00397349
-0.0296668
0.107619
0.00349586
-0.288324
-0.129793
0.378871
-0.249078
-0.175794
0.177395
-0.00160098
-0.0508298
0.0882293
-0.0373995
-0.00444499
0.0301383
-0.000303447
-0.00825146
0.00855491
0.0152266
-0.015724
0.000497362
-0.00155183
-0.00308506
0.00463688
0.0264895
-0.0233804
-0.00903391
0.136644
-0.12761
-0.198548
0.0605558
0.137992
-0.162727
0.426292
-0.263566
0.238922
-0.369202
0.116397
-0.103177
-0.0132204
-0.0387221
0.00706494
-0.107977
-0.313608
0.421584
0.0137827
-0.47963
0.465848
0.259923
-0.0768253
-0.183097
0.227044
0.0357169
-0.26276
-0.0617068
-0.107178
0.0035672
-0.00167176
-0.00189544
-0.0826596
0.101489
-0.018829
0.00497389
-0.00673965
0.00176575
0.123736
-0.000713955
-0.00789505
-0.126113
0.134009
0.0246845
0.016186
-0.0408705
-0.361159
-0.160445
0.521604
-0.00754801
0.000336075
0.00721194
0.011648
-0.011648
-0.00884723
-0.000754284
0.00960152
0.145402
-0.148377
0.00297486
0.00677247
0.00989268
0.500656
-0.607358
-0.222216
0.506008
-0.0172769
-0.188335
0.205612
-0.119257
-0.0127017
0.131959
0.00539123
-0.00768198
0.00229075
-0.16234
0.183746
-0.0214055
-0.29443
0.400601
-0.106171
0.02768
-0.0356038
0.00792372
-0.00865309
0.00834964
-0.229532
-0.0723322
0.301864
0.634736
-0.469063
-0.165672
-0.244372
0.209394
0.0349782
0.287781
0.229552
-0.517332
0.257925
-0.619084
0.20628
-0.436202
0.00680547
-0.00183158
-0.130901
0.135906
-0.00500536
0.189691
-0.192256
0.00256586
-0.0482595
-0.28585
0.334109
-0.232861
0.0093475
-0.405879
0.276086
0.112576
-0.011998
-0.100578
-0.00142432
-0.0121351
0.0135595
0.177586
-0.118271
-0.0593155
-0.00185318
0.00136728
0.000485908
-0.135218
-0.00537509
0.140593
-0.253443
-0.211516
0.464959
0.133672
-0.349786
-0.0706523
-0.032736
-0.22413
0.206853
0.104262
0.15566
-0.00962284
0.0373029
0.00785943
-0.0024682
-0.116386
0.00839946
0.00580736
0.00167472
-0.00748208
-0.100567
0.104738
-0.00417116
0.00295521
-0.000982624
-0.00197258
-0.0532432
0.0734095
-0.0201663
-0.155942
0.390685
-0.234742
0.103021
-0.361362
0.258341
-0.0837881
0.0329583
0.369733
-0.611852
0.242119
-0.00435853
-0.179362
-0.187483
0.366845
0.00909208
-0.0103455
0.00125343
-0.0138998
-0.00124446
-0.540399
0.514755
0.0256435
-0.0911096
0.105577
-0.0144674
0.130711
-0.138606
-0.51251
0.642122
-0.129613
-0.00963284
0.000785609
0.0125823
-0.00805345
-0.109714
0.10068
0.0825217
0.0685509
-0.167199
0.00485868
-0.133887
0.01463
-0.144367
0.142566
0.00180119
-0.0293261
-0.570895
0.00119675
0.00147559
-0.00267234
0.0649612
-0.0338069
0.00131418
0.00225302
0.00321675
-0.00321675
-0.14074
0.0967522
0.0439877
0.00111085
-0.00852312
0.00741227
-0.305938
0.0461681
0.25977
0.0367273
-0.035771
-0.000956277
-0.263955
0.366976
-0.301676
0.0721444
-0.00491365
0.00401753
0.000896116
0.503326
0.157029
-0.660356
0.0159046
-0.0126539
-0.00325074
0.00016101
-0.00830565
-0.0207107
0.0170881
0.00362255
0.047395
-0.0497106
0.0023156
0.0135207
0.489806
0.145352
-0.00842943
-0.136923
-0.0714347
0.0181916
-0.146277
0.197776
-0.0514986
-0.00718097
0.00818631
-0.00100534
0.0100688
-0.0126077
0.0025389
0.0120214
-0.00195253
0.410434
-0.525046
0.114612
0.0447406
-0.00719455
-0.0375461
-0.00667619
-0.00444693
-0.0230827
0.09212
-0.0690373
-0.118027
0.0473752
0.00738693
-0.0100379
0.00265101
0.0284964
0.049382
-0.0778784
-0.0438266
0.153156
-0.109329
0.213118
-0.373563
-0.682684
0.372833
0.309851
-0.0698749
-0.00635612
0.076231
-0.0570938
0.0340111
-0.00127928
-0.0992876
0.0733066
-0.117133
0.0447406
0.00162522
-0.00317704
0.19477
-0.223821
0.0290512
-0.0120131
0.206783
0.00107215
-0.00903756
0.0079654
-0.0114179
-0.213383
0.224801
-0.162279
0.0327887
0.00128345
0.01022
-0.00112791
0.0128056
-0.0166604
0.00385478
-0.132623
0.102789
0.0298346
0.278375
-0.0344821
-0.243892
-0.172859
0.111153
0.0161159
-0.119083
0.102967
-0.00297863
0.00364368
-0.000665059
-0.43727
0.480057
-0.0427878
0.0140289
-0.0132373
-0.000791657
-0.105794
0.380133
-0.274339
0.00615919
-0.00425722
-0.0768457
-0.167526
-0.105351
0.0142411
0.123795
0.017129
-0.140925
-0.0131702
0.0167361
-0.00356582
-0.0159593
0.0166832
-0.000723918
0.0187411
-0.145933
0.127192
-0.376304
-0.30638
0.0721396
-0.00180276
-0.0703368
-0.149971
0.0480377
0.101933
0.0135396
-0.193361
0.179822
0.0140183
-0.16396
0.149942
0.169928
-0.383537
0.213608
-0.00339105
-0.0015226
-0.0300457
-0.224827
-0.0656747
-0.0322393
0.097914
0.0240034
0.0481362
-0.00055974
-0.00159123
0.0383185
-0.158376
0.180227
-0.0218507
-0.0248491
0.00423068
0.0206184
-0.42613
0.270188
0.298509
0.188813
-0.487322
-0.217669
0.0200035
0.197665
-0.369963
0.292568
0.0773946
-0.103812
0.132415
-0.0286034
0.112165
-0.139726
0.0275609
0.359764
-0.459819
0.100055
0.00906164
-0.00906164
0.171602
-0.198825
0.0272228
-0.0789988
0.0814731
-0.00247435
0.182551
-0.448833
0.266282
0.45008
0.0900377
-0.540117
-0.000478462
-0.000556881
-0.0240416
0.00505582
0.0189858
-0.000955104
0.115871
-0.160425
0.0445537
-0.0995529
-0.162573
0.00419715
-0.647934
0.429839
0.218094
0.0827926
-0.0666766
-0.0126525
0.00970868
0.00294381
0.0899755
0.0876108
-0.0022002
0.00121757
-0.204437
0.191764
0.0126738
-0.0165156
0.00334536
-0.267307
0.565969
-0.298662
0.142929
0.160225
-0.303155
-0.00370998
0.0332559
-0.0312527
-0.00200315
0.033697
-0.000441144
-0.0184216
0.00246233
-0.0125839
0.0131604
-0.000576504
-0.507761
-0.032638
-0.162198
-0.201226
0.0549487
-0.0128267
0.0133232
-0.000496551
-0.17216
0.00496095
-0.00869611
0.0102387
-0.00154261
-0.447029
0.460812
-0.0989741
0.117715
-0.0144449
0.0144449
0.340058
0.223759
-0.563816
-0.47848
0.129301
0.349179
0.0437081
-0.378315
-0.33609
0.228113
-0.503078
0.042588
0.46049
-0.00615499
0.05355
0.00740132
-0.00674307
-0.000658256
0.00117863
-0.205658
0.362427
-0.156769
0.0441876
-0.0440605
-0.00862814
0.00970029
0.000139502
0.00726182
0.473629
-0.291078
-0.00398877
0.0051733
-0.00118452
0.171629
0.0695236
-0.241152
0.341313
-0.281377
-0.0599357
0.0187386
0.114727
-0.133466
-0.0393928
-0.159155
-0.0296236
0.00263451
-0.00498993
-0.00197597
0.0069659
-0.388262
-0.0329557
0.421217
-0.163253
-0.00890665
0.266728
-0.263345
-0.00338271
-0.00582185
0.0069327
0.0137895
0.00211513
-0.307883
-0.0097465
0.317629
-0.26213
0.205809
0.0563212
0.390159
-0.241036
-0.149123
0.0114464
0.000574985
0.0380543
-0.332484
-0.0154888
-0.0880062
0.103495
-0.0325445
-0.0771855
0.10973
-0.273986
0.109989
0.163997
-0.022425
-0.367336
-0.111144
0.0144811
-0.125712
0.111231
-0.380417
0.0931986
-0.0102793
0.0015832
0.314644
0.0760401
-0.00853821
-0.00411428
0.169546
-0.114866
-0.05468
0.0684926
-0.0776474
0.00915473
0.469921
0.0764727
-0.546393
-0.00808079
0.0327653
0.0112254
0.000220967
-0.275101
-0.0803511
0.0890211
-0.00867006
-0.0453348
0.180703
-0.135368
0.00885723
-0.00964878
0.000791556
-0.331717
-0.0170411
0.348759
0.142625
0.00277663
0.00830501
0.0649801
-0.0732851
-0.0865266
0.00617559
0.438415
-0.147578
-0.290838
0.116717
0.204912
-0.321629
0.00443444
-0.00551764
0.0010832
0.099778
-0.128202
0.0284237
-0.0280152
0.0039736
-0.118328
-0.0142951
-0.355977
0.19325
0.00981191
-0.00981191
-0.0040235
0.0023116
0.0017119
0.0328685
0.175013
-0.207882
-0.00473337
0.00134232
0.010177
-0.000309525
-0.00986745
-0.0733767
-0.00562206
0.0761089
0.195635
-0.271744
-0.112543
-0.193395
-0.30614
0.564065
0.100223
0.0693228
-0.273771
0.207379
0.0663917
0.0786676
-0.111231
0.0325635
-0.0624711
0.0999716
-0.0375005
-0.000277713
-0.130623
0.14242
-0.0186249
0.000711232
-0.00470001
0.00651713
0.00894431
-0.0141749
0.0154373
-0.00126236
-0.0353544
-0.140439
-0.149774
0.141499
0.0082753
0.390902
0.165861
-0.556762
-0.138648
-0.011126
-0.269627
0.0775725
0.192055
0.107593
-0.152927
-0.310468
0.267791
0.12261
-0.127085
0.00447523
0.570351
-0.193832
-0.376518
-0.00187462
0.00377604
-0.00257929
0.0107018
-0.00184455
-0.0375624
0.264606
0.0528951
0.0392249
0.0158402
-0.0165369
0.000696695
-0.0901065
0.388616
-0.000372911
0.116126
-0.115754
-0.169321
0.184688
-0.0153678
-0.136971
0.191217
-0.0542451
-0.153055
0.157866
-0.00481021
-0.0876433
-0.220239
0.14117
-0.179684
0.0385142
0.258561
0.00816735
-0.0687013
0.089869
-0.0211676
-0.138403
-0.0115679
0.0107519
-0.00952925
-0.0105938
-0.0101169
0.178134
-0.0369636
0.284306
-0.276378
-0.00792794
0.674405
-0.247617
-0.426788
0.0758612
-0.00736853
-0.0185426
0.23684
0.172798
-0.183889
0.011091
0.035798
-0.0369321
0.00113418
0.262544
0.175871
0.111887
0.0333078
-0.0400555
0.00674767
-0.135119
-0.234843
-0.0229533
-0.0415378
0.0644911
-0.00268485
-0.00204852
-0.0778422
0.468744
-0.0746939
-0.199292
-0.0106473
0.0112744
-0.000627084
0.076779
0.0396184
0.194627
-0.206045
0.2589
0.214729
-0.142995
0.00777735
0.0842564
-0.0557601
0.0996655
0.0135239
-0.113189
0.000129102
0.367328
0.098608
-0.465936
0.22708
-0.0554514
0.491609
-0.23271
0.117952
-0.0182865
0.0962354
-0.0915212
-0.00471423
-0.0961676
0.127551
-0.0313832
0.125963
-0.00335323
-0.298421
0.22057
0.0778513
0.131561
-0.0899742
-0.0415867
0.0104232
-0.0134027
0.00297948
-0.145281
-0.00777481
-0.166005
0.0207248
0.00226953
-0.00708159
0.00481206
-0.216401
0.29251
-0.0514195
-0.236944
0.288363
0.141637
0.0162284
0.0673148
-0.092855
0.0255402
-0.0373506
0.0256171
0.0117335
0.0835705
-0.0344046
-0.0491659
0.0839228
-0.116467
0.140379
0.00224663
0.0069493
0.0135758
-0.000627094
-0.00122609
-0.11431
0.131016
-0.0167066
0.00717171
-0.00273727
-0.00250133
-0.00152217
-0.304248
0.0445184
0.25973
0.0421834
-0.00529707
-0.0368863
-0.00613308
-0.138234
0.180349
-0.0289575
-0.151392
-0.0166798
0.0164047
0.000275046
0.00353459
0.329806
0.119872
-0.132574
-0.101056
0.0487947
0.0522611
0.135033
0.00646597
0.00649397
-0.00637757
-0.000116393
-0.26924
0.270602
-0.00136168
-0.0142922
0.0142922
0.00179723
0.00972152
-0.0115188
0.0968787
-0.113832
0.0169534
0.0104434
0.00409741
-0.0145408
0.00301428
-0.0120192
0.00900494
0.000782597
-0.000261363
-0.000521234
-0.0307876
-0.109952
-0.0121495
0.0108192
0.00133025
-0.0176345
-4.5427e-05
0.0176799
0.480931
-0.0463933
-0.434538
0.225777
-0.405138
0.0990285
0.0262228
-0.125251
-0.00907192
-0.00019455
0.00926647
0.167771
-0.43562
0.267849
0.118293
-0.039625
0.00308548
0.172406
-0.175491
0.0117183
-0.0827814
0.0710631
-0.00720927
-0.00139331
0.153999
-0.018966
-0.16696
0.0043866
0.0827617
-0.0999024
0.0171407
-0.00258141
-0.0839376
0.0152362
0.145945
-0.0300741
-0.210094
0.22982
0.00416495
-0.0132764
0.00911146
-0.00406713
0.00823208
-0.212393
-0.112961
0.325354
0.00292438
0.00160861
-0.00158185
-0.000618343
-0.157626
-0.0093338
-0.0024408
-0.0293258
0.119155
-0.0898288
0.0213188
-0.124146
0.0133985
-0.00297535
-0.189967
0.0529956
-0.187445
0.220313
-0.210215
-0.0166913
0.226906
0.246447
-0.352241
-0.129794
0.0389105
0.090883
0.0644672
-0.0561622
0.00942682
-0.125281
0.125793
-0.10554
0.00236339
0.32196
0.0453677
-0.577959
0.338686
0.239273
-0.349002
0.0172841
0.0019841
0.00711822
-0.00910232
0.0385173
-0.00520951
-0.00908636
0.00943327
-0.000346909
-0.00479784
0.00678194
-0.136271
0.0324596
-0.0137282
0.0137767
-4.85076e-05
0.206404
-0.231516
0.0251117
-0.00857649
0.00102848
-0.272905
0.0107745
0.386286
-0.461139
0.0748524
0.554484
-0.296665
-0.257819
-0.00429844
0.0835973
-0.0792989
0.257582
0.230505
-0.488086
0.0044939
-0.0020434
-0.0024505
-0.572793
0.302595
0.270198
0.0442207
-0.211536
0.167316
-0.512615
0.0924391
0.420176
-0.0619198
-0.039136
0.0382446
0.0594338
-0.0976784
-0.581551
0.275411
-0.162153
-0.136268
0.140541
0.075271
0.105078
0.0415128
0.117151
-0.158663
0.000772254
0.00572171
0.241139
-0.318071
0.0769319
-0.1108
-0.113714
0.0145727
-0.0041293
0.00118845
-0.197949
0.196761
-0.203757
0.420758
-0.217002
3.42538e-06
0.212897
0.0802757
-0.293172
-0.029547
0.141208
-0.111661
0.0726028
-0.00528795
0.35124
0.323165
0.497087
0.0164806
-0.0162245
-0.000256119
0.125933
-0.0111729
-0.11476
-0.0143729
-0.0992949
0.113668
0.220446
0.0770918
-0.297537
-0.114461
0.137875
-0.171673
-0.197047
0.36872
-0.0493631
-0.00773062
-0.0766873
0.0818332
-0.00514594
0.618894
-0.349647
-0.269247
0.00115236
-0.0665951
-0.0258791
0.0924742
0.00339667
-0.00177146
0.00598376
0.000821714
0.214761
-0.316622
0.101861
0.0633617
-0.0676602
0.025646
-0.0319152
0.00626925
0.00134126
0.00757064
-0.0089119
-0.0164856
-0.00114891
0.249846
-0.0434425
-0.0093166
-0.0246516
0.0339682
0.0630071
0.0685538
-0.0189564
0.118734
-0.00350827
0.00276317
-0.00300789
-0.0133749
0.0124198
-0.00548754
0.00529883
0.000188714
0.00484085
-0.00335559
-0.00148526
0.00131786
-0.00440292
0.043106
0.267565
-0.266377
0.256884
-0.252847
-0.00403619
-0.0151681
0.177742
-0.162574
0.541614
0.0383132
-0.579927
-0.102451
0.12377
-0.158371
0.160846
-0.00247507
0.012961
-0.000664529
0.118341
-0.148477
0.0301362
0.149605
-0.141885
-0.00772052
0.104618
-0.133944
-0.0354951
0.00424237
-0.0156638
-0.00267403
0.0183378
0.00624658
-0.00190015
-0.00434644
-0.129661
0.115252
0.0144095
-0.107141
0.0414667
-0.331763
-0.246196
0.280084
-0.273261
-0.00682285
-0.0221463
-0.00711813
-0.154609
0.161727
-0.0285845
-0.00691055
-0.37124
0.0962672
0.274972
0.221849
0.00996959
-0.231818
-0.136916
-0.000833298
0.13775
0.00379384
-0.017522
-0.103934
0.111492
-0.00755755
-0.00115323
-0.00652945
0.00768269
0.0177361
0.105835
-0.123571
0.00694127
-0.000940234
-0.00600104
0.245973
0.221649
-0.237568
-0.0362024
0.467941
-0.145497
-0.0167828
0.00274514
0.00341405
-0.170802
0.155634
0.00348223
-0.0283314
0.218859
-0.422616
0.169052
0.0428146
-0.211866
-0.00664047
0.00129195
0.00534853
0.107961
-0.496222
-0.0231835
0.113159
0.00762704
-0.00582981
0.00604718
0.00627813
0.000312533
-0.016416
0.0161034
-0.245749
-0.18038
-0.297057
0.222363
0.101586
-0.218359
0.116773
-0.000246382
-0.0310569
0.0824172
-0.100466
0.0180492
-0.213851
0.0178152
0.196036
-0.0134139
-0.466216
-0.562702
0.0501923
0.287828
0.266656
0.0753759
-0.0794674
0.00409152
-0.146927
0.141406
0.00552091
0.0098291
-0.00771347
-0.00211563
-0.000656747
-0.00483079
0.0217643
-0.260754
0.23899
0.155393
-0.0630662
-0.0923268
0.285114
-0.00673929
-0.110546
-0.193703
0.0539665
-0.0345795
-0.019387
-0.35068
0.0194663
0.331213
0.00175855
0.228167
-0.229926
0.00575759
-0.00198156
-0.310848
-0.201767
-0.0117027
0.0125885
-0.000885829
-0.00417392
-0.0725134
0.107097
0.102673
-0.117046
2.69943e-05
0.031468
-0.00582201
0.24377
-0.122929
-0.120841
0.0376796
-0.0469962
-0.0123547
0.0820578
-0.205707
0.0160754
0.189631
-0.10312
0.472853
0.152367
0.0204315
-0.15552
0.15921
-0.00368941
0.0294324
0.0245341
0.136979
-0.213804
-0.618899
0.305505
0.313394
-0.00853742
-0.0288132
-0.0272118
-0.410058
-0.0222059
-0.00529921
-0.024654
-0.0214982
-0.115418
-0.000596501
0.00235327
-0.224531
0.222177
-0.610142
0.337462
0.27268
0.471741
-0.223779
-0.247962
0.202181
-0.0549282
-0.147253
0.33995
0.278944
-0.00369094
0.00670522
0.278705
-0.0658083
0.145124
0.00448094
-0.015451
0.01512
0.00033094
0.548626
-0.0424998
-0.506126
0.0739047
-0.294197
0.220292
-0.00274226
-0.0127087
0.185537
-0.16306
-0.0224763
0.000392237
0.0565409
-0.0569331
0.0265634
-0.0278635
0.0013001
0.191871
0.198288
0.0107177
-0.0747742
0.405183
-0.330409
-0.00800791
-0.00539476
0.0706221
-0.11135
0.0407276
0.0152381
0.0191592
-0.115327
0.00774772
0.000111702
0.000528197
0.0713263
-0.0868151
-0.106766
-0.192989
0.495765
-0.302776
0.0247063
-0.0206733
-0.0457269
0.0664002
0.00576389
-0.000894548
-0.00486934
0.163152
0.021686
-0.0156388
0.226614
-0.0100933
0.00861361
-0.218828
-0.00101172
0.451801
-0.0920379
-0.142269
-0.228971
0.138339
-0.106002
-0.0323371
-0.120852
0.138588
-0.320388
0.11473
0.19349
-0.229634
0.0361443
-0.383055
0.240787
-0.047706
0.00651064
-0.00766388
-0.0342486
-0.179603
-0.0162106
0.0168246
-0.000614009
0.00435334
0.00445954
0.000381316
0.355065
-0.021418
0.00575417
-0.0956061
0.238535
-0.133424
0.583504
-0.13916
0.133453
0.00570685
0.178668
-0.165129
-0.206086
-0.00674107
0.212827
0.00858813
-0.00555562
-0.00303251
-0.226867
0.228626
0.110031
0.0921504
0.113288
0.00750176
-0.12079
0.0750099
-0.391747
0.316737
0.207608
0.341018
-0.0128808
0.00487287
-0.0730554
-0.00475561
0.077811
0.46894
-0.18116
0.161119
0.409232
-0.135136
0.153875
-0.508944
0.410078
0.0988666
0.000198207
-0.158099
0.134915
0.00604228
0.00170544
-0.0348262
0.0372298
-0.00240361
0.425353
0.0469396
0.105605
-0.152544
0.00249907
0.0138578
-0.0163569
-0.127187
0.173123
-0.0459353
-0.592959
0.296293
0.099967
0.00123315
-0.1012
0.218009
-0.0489573
0.376209
0.0742266
-0.0213315
0.00537233
0.0032158
-0.202426
-0.00201117
-0.00156862
-0.00141
0.117867
-0.0188385
-0.216134
0.0137075
0.443632
0.127374
-0.571006
0.0111611
-0.0476492
0.0364881
0.0177548
0.425877
-0.223153
0.147101
-0.140968
-0.00613378
-0.287746
0.606297
-0.318551
0.337974
-0.241706
-0.14826
0.00910018
-0.0902583
0.0095475
0.0807108
0.00169603
0.00995195
0.00380148
0.00149735
-0.0662858
0.0744106
-0.00812482
-0.125941
-0.322656
0.448596
-0.00689458
0.00190465
-0.0133749
0.00414031
0.167598
-0.171738
-0.00790389
0.00800713
-0.000103236
-0.0268469
-0.089609
0.116456
-0.106343
0.111097
-0.00475391
0.0119496
0.0509464
-0.00632556
0.00824674
-0.00192118
-0.105169
0.101295
0.0038735
-0.00868738
0.00941362
-0.000726239
0.00787087
0.0920961
0.211694
-0.0366809
-0.0254612
0.0945417
-0.0690804
0.0828787
0.0554606
0.0656344
0.00287518
-0.0685096
-0.191685
0.371148
-0.179463
-0.0944576
0.108476
-0.00260937
0.0099963
0.100554
-0.122746
0.00614144
-0.219524
0.000941144
0.00966757
-0.000144375
-0.00952319
0.000246131
-0.000506777
-0.217604
0.334321
0.093628
0.0249392
-0.118567
0.0106418
-0.000421783
0.000160105
-0.0129475
0.0127874
0.0164064
-0.00109944
-0.0153069
-0.402938
0.171694
0.231244
-0.0490578
0.0733008
0.0820922
0.000304134
0.00048865
1.59828e-05
-0.000504633
-0.197134
0.236725
-0.0395909
-0.00898845
0.00266289
0.00393719
0.510997
-0.514934
0.0554168
0.0281537
0.228708
-0.0112252
-0.217483
0.000562473
-0.206269
-0.00202795
-0.00809872
-0.36738
-0.000211005
0.00597179
-0.00576079
0.2165
-0.223798
0.007298
-0.0298219
0.164744
-0.169373
0.00462904
0.12254
-0.130969
-0.00239258
-0.00925541
0.458316
-0.561436
-0.359624
-0.0759965
0.00703305
-0.00842798
0.00139494
-0.000566492
-0.0136084
-0.00966704
-0.524563
0.257256
-0.202296
0.00893472
-0.000499049
-0.0114444
0.0119435
0.163423
-0.159174
-0.00424907
0.00246912
0.00659252
0.0379369
-0.0312043
-0.00673259
-0.213197
-0.00447213
0.540872
-0.253044
-0.00111377
0.0033833
-0.0850185
0.0595573
-0.00183498
0.00563646
0.225799
-0.223446
0.112916
-0.156599
0.159256
-0.0026567
0.151433
-0.53268
0.519266
-0.216505
0.0193716
-0.0658382
-0.0623635
-0.0423438
0.042736
0.132324
-0.135087
0.00276216
0.542961
-0.0282059
-4.98032e-06
0.0157273
0.0596486
-0.108762
-0.191718
0.30048
0.0206264
-0.371306
0.163761
-0.161327
-0.00243401
-0.485762
0.274246
0.0470055
0.054483
0.107612
-0.134459
-0.354878
-0.0670279
0.421906
-0.188283
-0.195254
-0.306693
-0.305159
0.329197
-0.244389
-0.0848081
-0.493808
0.2543
0.239509
-0.441677
-0.131116
0.0377824
0.00185572
-0.0396381
0.0242203
-0.157388
0.133168
0.138897
-0.146015
0.0102376
-0.000569988
0.00114075
0.457175
0.160616
0.239985
0.0790419
0.215504
-0.294546
-0.0219133
0.0264186
-0.00450536
0.0151379
-0.0165622
0.00419163
-0.00126724
-0.181165
0.233962
-0.0527968
-0.606746
0.300052
-0.000870842
-0.37303
0.0921636
-0.00238796
0.00442296
-0.002035
-0.220573
0.229187
0.133433
0.0186984
-0.152131
-0.114786
-0.00159939
-0.0119199
0.012716
-0.000796072
0.091372
0.243239
-0.334611
-0.104989
0.426225
-0.321235
-0.00250008
-0.0167404
0.0169005
0.196447
-0.245099
0.0486519
-0.179834
0.176852
0.00298197
-0.415206
-0.00945298
0.124705
0.243925
-0.0504357
0.250271
-0.0538243
-0.259544
0.0354138
0.423644
-0.121049
-0.00153741
-0.0103825
-0.212705
0.0467079
0.165997
0.570693
-0.409574
-0.00991751
-0.0300514
0.0399689
0.00215237
-0.00879121
0.00663884
-0.0124152
0.0124152
-0.000130491
-0.15441
-0.00615934
-0.301653
0.48173
-0.180077
-0.0107627
0.1401
-0.0253731
-0.120595
0.0303366
0.0201137
-0.207558
0.130041
0.0271471
0.00976345
-0.189598
0.00700366
0.00100347
-0.0328088
0.133379
-0.10057
-0.0927815
-0.168149
0.0114134
0.156735
-0.00437989
-0.151821
0.156201
-0.165504
0.320907
-0.155403
-0.00134511
0.00456185
-0.115344
-0.213631
0.328975
0.203152
-0.190492
-0.0126595
0.00505725
0.00211446
-0.0314244
0.0324493
-0.00102492
-0.248347
0.323357
-0.00169895
0.00394379
-0.00224485
0.00270444
0.00305945
0.462894
-0.540736
0.306539
-0.233362
-0.0731773
0.016162
0.106502
-0.122664
-0.0369586
0.0270411
0.0358676
-0.270994
0.500545
0.0271067
-0.184729
0.157622
0.221455
-0.208768
-0.0126872
-0.0259798
0.0303933
-0.0044135
-0.00366841
-0.00307124
-0.0011823
0.00572543
-0.00454313
-0.0460283
0.0577467
-0.297266
-0.105672
-0.0020622
-0.0812308
0.00969815
-0.0875248
0.0778266
-0.209443
0.284247
-0.0748036
0.00771723
-0.00245356
0.0446369
0.0692618
-0.570986
0.606365
-0.0353792
0.236857
-0.0203571
0.0156753
0.00601064
-0.00832034
-0.0225754
0.0308957
-0.361307
0.252802
0.0618429
0.00027601
-0.00632156
0.00604555
-0.178259
-0.227005
0.405264
0.0301691
-0.0140171
-0.016152
0.0527493
-0.0849886
-0.195437
-0.308787
0.504224
-0.453541
0.138364
0.315177
-0.0152632
-0.219356
0.225498
0.00104077
0.00985093
-0.0108917
-0.0488529
0.0496496
-0.000796672
0.121107
0.220206
0.283353
-0.0925822
-0.190771
0.129727
0.0242714
0.238329
0.0459764
0.157299
-0.000165173
-0.157134
-0.00995731
0.139685
0.132634
-0.029825
-0.102809
0.0492406
-0.404119
-0.466431
-0.00285945
-0.00160295
0.0044624
-0.191774
0.211888
-0.261377
-0.232432
0.00171321
0.00404438
-0.00227439
-0.00518457
0.00745896
-0.306058
-0.0342113
0.340269
0.0425441
-0.00440303
-0.0381411
-0.225692
0.444552
0.126364
0.156989
-0.11989
0.308556
-0.188666
0.000256729
-0.00940432
0.00914759
0.00829652
0.000257257
-0.00855378
-0.059457
0.274218
-0.294415
0.0180012
0.276414
-0.00567379
0.00617898
-0.000505187
-0.122436
0.151812
-0.152645
0.233016
-0.281276
-0.107985
-0.0300034
0.137988
-0.29553
0.285491
0.0100396
0.0274356
0.181958
0.293828
0.0863053
0.0142125
-0.133295
-0.00467629
-0.00566923
0.216146
0.19648
-0.183665
-0.0128148
0.00113831
-0.147102
-0.147096
0.0031704
-0.015484
0.0123136
-0.0210009
0.11788
-0.0373562
-0.195505
0.329401
0.182265
-0.511666
0.000542523
-0.00621632
-0.120684
0.0913937
0.02929
0.451994
-0.402753
-0.00868367
-0.109888
0.118572
-0.337494
-0.112816
-0.0217101
0.134527
-0.00111931
0.0130768
-0.0119575
0.33783
0.26764
-0.60547
0.0348005
-0.00756289
-0.0272376
0.380052
0.0719417
0.00767066
0.0025669
-0.0743824
0.116525
-0.0421425
0.0918144
-0.0760871
-0.0196538
0.000227287
-0.463933
0.16228
0.00531133
-0.000254077
-0.438609
0.0205386
0.418071
0.0179688
0.238915
-0.000365157
-0.00285159
-0.00306436
-0.00159907
0.00466343
0.0546857
-0.0987652
0.0440795
-0.00227306
0.00117785
-0.00444769
0.00326984
0.116541
-0.0657409
-0.0507997
0.00217301
0.0132643
-0.0248312
0.0359922
0.0123263
-0.0271035
-0.0030264
0.0301299
-0.110609
0.0872972
0.023312
0.0946809
0.108989
-0.20367
0.0336026
0.0223809
-0.0559835
-0.106459
-0.0419177
0.0158475
0.527114
-0.113981
0.0293556
0.0846252
0.130374
0.0229511
-0.153325
0.0623827
0.0702511
-0.0141511
0.0117585
0.0215843
-0.0311454
0.00956116
0.376048
-0.138096
-0.237952
0.0643111
-0.0235288
-0.0407823
-0.302661
0.083422
0.219239
0.0960749
0.0119919
-0.108067
0.361458
-0.480372
0.118914
0.0133334
-0.0108344
0.382343
0.183626
9.97056e-05
-0.00712247
0.00702277
-3.42759e-05
-0.00855981
0.00859408
-0.00590273
0.125775
-0.11967
-0.00604224
-0.00331636
0.0132239
-0.00990751
0.0827513
-0.512902
0.407064
0.105838
-0.0330167
-0.130943
-0.0122719
0.0419496
-0.116332
-0.526831
0.481511
0.0453203
0.0344358
-0.335174
0.143489
0.0952308
0.0770054
-0.0677759
0.0374079
0.0034745
-0.00218256
-0.000122711
0.0114052
-0.0112824
0.341095
0.259948
-0.601043
0.005381
-0.00504493
-0.0468365
-0.122484
0.111402
-0.120085
-0.0115962
0.0765763
0.00337611
-0.0637836
0.119261
-0.0554777
-0.382868
-0.143963
0.0735368
-0.0241547
0.00311073
0.196267
0.0049897
0.00945518
0.512319
-0.435846
-0.1275
0.456901
-0.386324
0.0154413
0.370883
0.150582
0.417412
-0.567994
-0.0304872
0.323055
0.0486373
-0.0150346
0.134803
0.103002
-0.155467
0.0238545
0.131613
0.0127871
-0.451397
0.178138
-0.343642
0.00590056
0.00234618
-0.0389184
0.0292956
-0.349365
0.153581
0.195784
0.156594
-0.0045084
-0.152086
0.000262114
0.000701649
0.0318206
-0.0225777
-0.00924292
0.0195923
-0.165089
-0.0124764
0.121689
-0.109213
-0.0108978
-0.259995
-0.193546
0.256268
-0.220551
0.109322
0.0265844
0.349487
0.122254
0.0104513
-0.0101945
-0.559508
0.0904449
-0.521536
-0.0494502
-0.00402892
0.00520677
-0.222934
0.146088
0.125284
-0.0194488
0.000588986
0.00128884
-0.00187783
0.153708
-0.0531541
-0.256325
-0.312262
0.140589
0.130608
0.00286236
-0.0048649
0.00200254
0.0107127
-0.00706898
-0.0134484
-0.000518912
0.0139673
-0.493423
-0.453352
-0.222905
0.301947
-0.318279
-0.288467
0.0387454
-0.2399
0.373118
-0.133219
0.58808
-0.498042
0.337819
0.132882
-0.159984
0.0271023
0.099477
-0.413085
-0.464401
0.33846
0.0067053
0.0031238
-0.00113754
0.00952694
-0.0083894
0.211364
0.0127793
-0.224144
0.000361349
-0.370309
0.245096
0.125213
-0.19784
-0.00824647
-0.000145035
0.0134154
-0.0132704
0.0748656
0.0416749
0.121406
-0.191304
0.0698979
0.00780403
-0.00367077
-0.00413326
-0.0144304
0.000572212
0.0138582
-0.0260243
-0.00199091
0.389603
0.0969919
-0.486595
-0.11292
-0.00186595
0.00352834
-0.0109323
0.00740393
0.0643839
0.0141451
-0.0104957
-0.00364942
0.00517537
0.00262866
-0.00549834
0.00352237
0.0812987
-0.0156643
-0.203133
0.245948
0.200132
0.0365921
-0.0124741
0.0528282
-0.0229076
-0.0299206
-0.208368
-0.0798697
0.288238
-0.0439615
-0.00929471
0.0101721
-0.000877376
0.137129
0.00857421
-0.145704
-0.00613307
-0.00390487
-0.570636
0.28289
0.444869
0.142682
-0.587551
0.00126431
-0.101514
0.119773
-0.0182589
-0.00605332
0.00593061
-0.17845
0.0152556
0.163194
-0.604116
0.316246
0.28787
-0.107308
0.00393474
0.103373
-0.0359811
0.00477679
0.00531222
-0.0586396
0.0968842
-0.0675472
-0.0530477
0.107763
-0.0116879
0.00911545
0.000696461
0.282807
0.0237327
-0.000925892
0.147355
0.00688173
-0.154237
0.100133
-0.102463
0.00232979
0.00189385
-0.129856
0.127962
0.00566279
-0.00793718
0.44601
-0.128098
0.129992
0.00162957
-0.00623787
-0.00922357
0.53057
0.0185143
-0.549084
0.0290775
0.433816
-0.0968534
0.108614
-0.011761
0.163134
-0.0302522
0.361424
0.265131
-0.626555
-0.00939813
0.0133425
-0.0039444
-0.0696392
0.178629
-0.155108
-0.250771
0.122164
-0.606878
0.484714
-0.00737085
0.00764686
0.012364
-0.0133452
0.000981173
-0.00566213
0.00588515
-0.000223016
-0.612403
0.28064
0.431526
-0.0337192
-0.397806
0.010001
-0.10415
0.0401916
-0.0745963
-0.00220371
-0.139304
0.141508
-0.0323723
-0.00475057
0.0371229
0.165819
-0.153704
-0.0121157
-0.213624
0.211941
0.00168263
-0.573659
0.544333
-0.00912445
-6.86201e-05
0.00919307
-0.12685
-0.0267546
-0.00583901
0.0325936
-0.0013176
0.0121795
-0.0108619
0.154949
-0.130728
0.0290127
0.0901419
-0.21375
-0.0292962
0.243046
-3.1532e-05
0.0111183
-0.0110868
0.106766
0.0344414
-0.00139821
0.00392303
-0.00252482
0.00169847
-0.0151469
0.300259
0.296755
-0.172249
0.0099502
0.162298
-0.0316756
0.165109
-0.00691295
-0.0042409
0.0111538
-0.0720464
0.24801
-0.175963
0.637225
-0.325632
-0.311593
0.00866301
-0.205183
0.0215176
0.00471716
0.0082554
4.1127e-05
0.015397
-0.0153214
-7.55773e-05
0.0175545
-0.214903
0.197348
0.00372865
-0.0700144
0.0320241
-0.00484518
-0.0271789
0.0913507
0.152419
0.00379423
-0.00127793
-0.00251631
0.0185721
-0.00470705
-0.270542
0.275249
0.0126096
-0.0120484
-0.000561221
0.0156796
-0.00792463
-0.00775496
0.0413578
-0.0641922
0.0721876
-0.00799535
0.00157733
-0.0985396
-0.271769
0.007624
0.00805559
-0.0979835
0.00270767
0.0952758
0.00263796
0.00628172
-0.159015
0.130971
0.0280441
-0.00168757
0.00454993
-0.107612
0.010759
0.00419102
-0.117007
-0.218751
0.145558
-0.383843
0.238285
-0.193558
-0.224913
0.41847
0.237935
-0.614239
-0.336626
-0.275777
0.0021044