/*--------------------------------*- C++ -*----------------------------------*\
| =========                 |                                                 |
| \\      /  F ield         | OpenFOAM: The Open Source CFD Toolbox           |
|  \\    /   O peration     | Version:  v2012                                 |
|   \\  /    A nd           | Website:  www.openfoam.com                      |
|    \\/     M anipulation  |                                                 |
\*---------------------------------------------------------------------------*/
FoamFile
{
    version     2.0;
    format      ascii;
    class       volVectorField;
    location    "200";
    object      U;
}
// * * * * * * * * * * * * * * * * * * * * * * * * * * * * * * * * * * * * * //

dimensions      [0 1 -1 0 0 0 0];


internalField   nonuniform List<vector> 
15335
(
(-0.306535 -0.0100188 0)
(1.20091 0.0878702 -3.47254e-20)
(-0.311364 -0.012609 1.11651e-19)
(0.939751 -0.18387 -2.4712e-20)
(-0.145399 -0.0255015 1.176e-19)
(0.986175 -0.0326896 -7.96565e-21)
(1.19694 0.0551358 0)
(1.29703 -0.202728 9.267e-20)
(1.13535 -0.0856294 -1.01551e-20)
(-0.287509 -0.00775716 0)
(-0.299481 -0.0121254 -9.59439e-20)
(1.07633 0.0144823 -3.74971e-20)
(-0.128584 -0.0277328 -7.75877e-20)
(-0.0436802 0.00254157 4.44066e-20)
(0.482042 -0.0111635 0)
(1.27188 -0.231744 1.78379e-19)
(1.01801 0.000106827 1.21037e-20)
(0.129747 -0.0348928 3.59572e-21)
(1.03595 -0.0032169 -2.08373e-20)
(-0.176063 -0.0277657 -6.54695e-20)
(-0.0626812 0.0147498 0)
(-0.0532217 0.0161277 0)
(1.19568 0.0576238 3.10439e-20)
(1.03089 -0.00656836 4.21569e-21)
(1.28161 -0.0411225 0)
(1.13704 -0.329829 1.01732e-19)
(-0.210776 -0.0106499 -1.06488e-19)
(1.12956 -0.337498 -7.5787e-20)
(0.0267431 -0.0507849 -6.5064e-20)
(0.952925 -0.0814086 -4.51e-20)
(-0.233667 -0.0123636 -5.34339e-20)
(0.509417 0.0464819 1.53297e-20)
(0.999879 -0.00116872 2.20541e-21)
(1.01762 -0.0553739 2.96908e-21)
(1.0322 -0.0387374 1.26301e-21)
(1.32082 -0.082252 3.92198e-20)
(1.3167 -0.0781462 -5.33054e-20)
(1.17411 -0.622678 1.17038e-19)
(-0.143303 0.00162205 2.22027e-20)
(1.15132 -0.427025 0)
(1.16599 0.0976679 8.91227e-21)
(1.31482 -0.0894326 -5.38589e-20)
(0.99976 -0.0410523 0)
(1.09539 0.0241761 1.7516e-20)
(-0.269328 -0.00632626 -3.43388e-20)
(1.01745 -0.00223279 0)
(-0.167395 -0.0768766 5.67228e-21)
(0.450454 0.080571 2.68694e-20)
(-0.0215615 0.00620267 -8.69593e-21)
(1.02304 -0.116342 4.35575e-21)
(1.03003 -0.00642227 0)
(0.38603 0.0166405 3.98617e-20)
(1.31779 -0.234609 -1.00261e-19)
(0.999949 -0.000655774 5.56665e-21)
(1.04972 -0.0310482 -8.88488e-21)
(1.19516 0.0494433 0)
(0.766852 -0.396058 0)
(0.431144 0.0186153 6.96911e-23)
(-0.195358 -0.013814 1.73556e-19)
(-0.300886 -0.0123721 -2.09862e-19)
(-0.0730945 0.019484 -3.19966e-22)
(0.398393 0.0771242 2.83423e-20)
(0.912206 -0.206965 2.16074e-20)
(0.896746 -0.0632055 2.08947e-20)
(1.04503 -0.0149101 0)
(1.07488 0.0131578 -1.63426e-20)
(1.19814 -0.0167456 0)
(0.46333 0.0427031 -3.1688e-20)
(1.04659 -0.00835594 -7.19473e-21)
(1.02925 -0.00089954 1.48353e-20)
(1.15958 -0.0315516 -8.11117e-20)
(1.04912 -0.0922562 0)
(1.28148 -0.0443295 0)
(-0.0302779 0.0249359 0)
(1.11108 0.0216657 -7.78685e-20)
(-0.108345 0.015098 9.26336e-20)
(1.16532 0.0993017 -1.8131e-20)
(1.26041 -0.114627 -2.4176e-20)
(0.536138 -0.111299 -2.41764e-20)
(0.999836 -0.00286321 3.21514e-21)
(-0.124215 -0.0238343 7.38583e-20)
(-0.175394 -0.00871279 0)
(-0.150026 -0.0218584 -1.74859e-20)
(1.27691 -0.0299347 0)
(-0.323527 -0.0147138 0)
(1.01722 -0.00163037 8.67184e-21)
(1.0354 -0.00290723 9.63569e-21)
(1.09377 0.0250257 0)
(0.971774 -0.0931274 -1.84184e-20)
(1.21303 0.0800387 -4.63945e-20)
(-0.109905 -0.0277646 -1.41659e-19)
(1.17844 0.0483968 -5.52518e-21)
(1.07755 0.00995016 -4.12708e-20)
(0.152326 -0.633295 7.57389e-20)
(-0.180242 -0.0153845 0)
(1.09385 -0.0264655 -3.87763e-21)
(1.01644 -0.00292918 0)
(1.09562 -0.156448 -2.68912e-20)
(1.02527 -0.0105066 0)
(0.999879 -0.00208635 0)
(1.00054 -0.0397525 1.12815e-21)
(-0.0955253 0.0162956 -1.00927e-19)
(1.31876 -0.0366042 -9.62283e-20)
(1.13723 0.065176 1.39616e-20)
(1.07707 -0.00883019 0)
(1.13137 -0.0869579 0)
(1.04802 -0.0299404 -7.77221e-21)
(0.827029 -0.0808466 0)
(0.0952495 -0.233437 0)
(1.01216 -0.250685 -9.56518e-22)
(-0.029067 0.0162491 5.43566e-20)
(1.22072 0.0156956 -3.68341e-20)
(1.00388 -0.0199554 0)
(1.07829 0.0143843 -3.33965e-22)
(1.30982 -0.24608 0)
(0.975626 -0.092792 1.50309e-20)
(1.15896 -0.0293762 -2.30325e-22)
(0.21589 -0.659289 2.1974e-20)
(-0.123353 -0.0273961 1.51515e-19)
(1.33869 -0.0970116 6.02296e-20)
(-0.112406 -0.0266214 -7.53497e-20)
(1.14443 0.0928712 9.62329e-21)
(-0.0248414 0.0253699 0)
(0.853772 0.105409 0)
(0.985526 -0.0234787 1.08518e-20)
(0.99622 -0.0331246 7.15997e-21)
(0.777399 -0.376108 3.75459e-20)
(0.999295 -0.00821783 0)
(1.13509 0.0648729 0)
(1.04615 -0.039718 0)
(-0.173028 -0.00190437 1.37743e-19)
(-0.256378 -0.00447153 0)
(1.02012 -0.00113294 0)
(0.941312 -0.300987 0)
(1.25468 -0.114392 -6.7749e-20)
(1.01134 -0.00375012 7.20741e-21)
(-0.139306 -0.0221611 0)
(0.140143 -0.0683935 0)
(0.902818 -0.210985 3.19333e-20)
(1.29834 -0.198213 -1.58027e-19)
(1.17839 0.0464969 -5.5252e-21)
(1.2149 0.0802868 1.24793e-19)
(1.09275 -0.234555 -8.38085e-21)
(1.02722 0.000268774 -1.0866e-20)
(-0.0420985 0.0238672 -5.19508e-20)
(1.04173 -0.529145 -1.30798e-19)
(-0.0426166 0.0219592 2.00831e-20)
(0.02427 -0.0418221 -1.39788e-19)
(1.21981 -0.276457 6.88682e-20)
(-0.142561 -0.0190384 -8.56276e-21)
(1.10091 -0.0381547 -3.58971e-20)
(0.517708 0.0346148 8.28385e-21)
(0.997002 -0.0335518 3.04147e-21)
(1.09163 -0.0270805 0)
(0.0582394 0.0274378 1.74702e-20)
(0.999849 -0.00142582 -1.44135e-20)
(0.213387 0.0538778 -7.1088e-21)
(-0.15248 -0.000675925 0)
(0.100606 0.324052 -1.2748e-19)
(0.686487 -0.0340994 7.60659e-20)
(0.999709 -0.00174053 2.03507e-20)
(0.881136 -0.0909505 2.63078e-20)
(0.810826 0.101736 8.02411e-21)
(1.18086 -0.0522361 0)
(-0.147102 0.00183278 0)
(-0.245711 -0.00667517 1.83582e-20)
(-0.234271 -0.00566596 2.40383e-20)
(1.02872 -0.00670082 1.63768e-20)
(0.192286 0.807441 9.89079e-20)
(-0.165775 -0.0176237 -8.06676e-21)
(1.03955 -0.445368 2.35869e-20)
(1.34043 -0.261005 3.12258e-20)
(0.117403 0.0435321 3.05391e-20)
(0.706849 0.102371 -3.12494e-20)
(1.26714 -0.0525743 5.5351e-20)
(0.999805 -0.00263532 -5.45265e-21)
(1.00028 -0.00416953 0)
(0.852329 0.104699 -7.78906e-20)
(0.751673 -0.328837 8.828e-20)
(1.18104 0.0907817 8.39688e-21)
(1.27194 -0.0525116 -7.54241e-20)
(0.107648 0.700708 -9.0559e-20)
(-0.0522592 0.0234251 0)
(1.14812 -0.0781518 0)
(1.14727 -0.0755709 0)
(-0.196333 -0.000488307 -6.692e-20)
(1.12306 -0.045488 2.10138e-22)
(0.942789 -0.176212 2.58242e-20)
(-0.0398517 0.0227007 0)
(-0.158347 -0.00184195 -1.04086e-19)
(-0.328524 -0.0121588 -7.42666e-20)
(1.23159 -0.350785 1.03269e-19)
(1.1014 0.0142738 -1.81903e-20)
(1.27592 -0.0464286 7.5267e-20)
(1.33279 -0.0682672 1.05306e-19)
(0.000244537 -0.0424912 0)
(1.00285 -0.0185659 3.36715e-22)
(-0.254231 -0.00432232 0)
(0.996075 -0.0400903 3.95942e-21)
(-0.0955391 -0.0316136 -1.42524e-19)
(1.0904 -0.15963 -1.0772e-20)
(0.929025 -0.298204 -6.69542e-21)
(1.03993 -0.223245 -1.25643e-20)
(-0.331653 -0.0122683 2.17433e-19)
(-0.314972 -0.0132108 0)
(1.26027 -0.0754934 0)
(1.00024 -0.00348749 0)
(0.674778 -0.00984655 -2.97211e-21)
(0.867975 -0.109835 -1.13523e-21)
(0.994732 -0.14267 -4.9207e-21)
(1.1263 -0.248827 -4.15416e-20)
(1.00249 -0.0394319 0)
(0.0668145 0.0291642 -5.63885e-21)
(0.955292 -0.0784557 2.81747e-20)
(1.03198 -0.530304 0)
(0.659122 -0.0127882 4.9735e-20)
(-0.313661 -0.011916 1.12241e-19)
(0.472355 0.0377095 0)
(1.14977 0.0746215 0)
(0.313597 -0.111612 2.09413e-21)
(0.986752 -0.0240651 0)
(1.00661 -0.0236303 3.04034e-22)
(1.12925 -0.0513933 -3.11692e-20)
(1.09235 0.0193967 -2.35877e-20)
(1.2418 -0.267651 0)
(1.29101 -0.0356577 0)
(1.03093 -0.0142432 4.98734e-21)
(-0.14398 -0.00049192 -3.86757e-21)
(1.17771 -0.0608418 6.7365e-20)
(0.952626 0.0681309 0)
(1.01402 -0.0119281 -5.34349e-21)
(1.02079 -0.00339977 -5.12772e-21)
(-0.0102764 0.00806568 0)
(0.325733 0.0183149 7.58103e-20)
(-0.247267 -0.0103221 -1.29495e-19)
(1.1247 -0.216833 4.52339e-21)
(1.27563 -0.050265 -8.92305e-20)
(1.15035 0.0732061 0)
(1.00044 -0.00549678 1.37751e-22)
(1.31421 -0.0631998 -3.67767e-20)
(0.146292 0.0512855 7.36629e-21)
(1.02131 -0.252604 0)
(-0.0336581 0.0228735 0)
(1.15269 -0.0527269 0)
(-0.318282 -0.0108282 -1.80891e-19)
(1.01831 -0.0126645 0)
(0.997162 -0.0776624 4.96359e-21)
(-0.318457 -0.0130894 0)
(0.43335 0.0780605 -5.47556e-20)
(0.410323 0.0767696 5.62714e-20)
(-0.326846 -0.0123618 0)
(-0.255784 -0.00646243 -1.61974e-22)
(1.01984 -0.00152142 1.05998e-20)
(1.02963 -0.00698639 -1.67241e-20)
(1.17766 -0.0534889 2.06207e-21)
(-0.258357 -0.00871749 0)
(1.18161 0.0448994 6.31984e-21)
(-0.161909 -0.00323598 8.43152e-20)
(1.02947 -0.00117706 -1.54233e-20)
(1.26497 -0.0743529 6.36123e-20)
(-0.22241 -0.00462567 1.3079e-19)
(0.99987 -0.0015159 0)
(1.0305 -0.0101102 1.04811e-20)
(0.98739 -0.0320372 0)
(1.04767 -0.00881581 5.98905e-23)
(1.03022 -0.00135732 -1.32237e-20)
(0.619694 -0.0199427 2.11134e-20)
(-0.126846 0.00331926 5.75263e-21)
(-0.15742 -0.000728358 -2.8749e-20)
(0.976873 -0.0183973 0)
(0.588303 -0.0173986 -8.48282e-20)
(-0.215184 -0.00374179 0)
(-0.138966 0.000436871 3.2812e-21)
(1.01401 -0.0113935 9.51815e-21)
(-0.109072 0.00168625 1.08786e-19)
(0.972052 -0.0840218 9.05867e-21)
(1.00052 -0.0550319 6.90743e-21)
(1.25565 -0.0036039 4.13792e-20)
(0.901787 -0.0624192 -2.04297e-20)
(1.17576 -0.0586439 -6.82398e-20)
(-0.0466245 0.00459566 -2.09799e-20)
(-0.110404 0.014573 0)
(1.03768 -0.0147222 1.14019e-20)
(1.18173 0.0427477 -2.2308e-20)
(1.10251 0.00403953 4.24856e-20)
(-0.114568 -0.0200535 1.30917e-19)
(0.188576 0.0532106 0)
(1.10408 -0.0144985 0)
(0.954042 -0.056801 0)
(1.0439 -0.0566982 0)
(-0.247187 -0.00642213 -4.76109e-23)
(1.07938 0.00956234 3.40672e-20)
(0.86864 -0.275294 -4.45411e-20)
(1.26822 0.0119986 0)
(1.09317 -0.0780631 2.25495e-20)
(0.753989 0.598725 -3.85487e-21)
(1.03006 -0.0105954 0)
(1.19709 0.0804715 -4.12837e-20)
(1.03147 -0.0397708 0)
(-0.17588 -0.00329307 -1.38847e-19)
(0.984389 -0.0241703 -1.38381e-22)
(0.162823 0.0528943 0)
(1.18417 -0.28268 -3.90174e-20)
(0.932722 0.0837955 2.98595e-21)
(1.00956 -0.0029423 5.0936e-21)
(0.426915 -0.0844887 9.06916e-20)
(-0.237336 -0.00426872 -5.13643e-22)
(1.00031 -0.00495034 0)
(1.11807 0.010377 7.69808e-20)
(0.925082 -0.0716495 -3.0591e-20)
(-0.158077 -0.00593098 1.15647e-19)
(1.04903 -0.0103907 -4.98822e-21)
(1.27894 -0.0260403 -4.04232e-21)
(0.902284 0.10251 -3.62248e-20)
(1.06606 0.0112329 -4.09915e-20)
(0.993081 -0.0260804 0)
(0.985977 -0.0446871 -2.24746e-20)
(0.081536 0.00699342 -4.66385e-20)
(1.22036 0.0626595 0)
(0.357113 0.0333448 -1.24024e-19)
(1.22858 -0.360929 -9.75754e-20)
(1.0437 -0.0145482 1.72278e-20)
(-0.183137 -0.00454449 0)
(-0.0401726 -0.0236983 0)
(1.12658 -0.0989153 -4.88806e-21)
(0.0538062 0.027511 0)
(-0.158799 -0.00583124 -1.06439e-19)
(0.991494 0.0647988 0)
(1.10106 -0.00320726 1.76211e-20)
(1.09922 -0.0393817 0)
(0.999868 -0.00256896 6.86117e-21)
(1.19163 -0.276444 -4.19152e-20)
(0.968046 -0.0577777 -4.53923e-21)
(1.19683 0.0912328 6.94052e-21)
(0.955313 -0.316421 0)
(1.32254 -0.0399234 8.96385e-20)
(1.04559 -0.22961 1.3105e-20)
(-0.0963891 0.00467711 -9.48251e-20)
(-0.291207 -0.0128959 0)
(-0.268101 -0.00526751 0)
(1.19815 0.0486217 0)
(1.15783 0.086417 -6.77983e-21)
(1.00381 -0.0163733 0)
(1.15896 0.0849696 2.44677e-20)
(1.10001 0.0283257 0)
(0.922606 -0.0683925 0)
(1.01667 -0.0567605 1.36479e-21)
(1.28723 -0.229838 9.51201e-20)
(1.02273 -0.00743924 -6.11361e-21)
(-0.126672 -0.0263156 -1.10129e-20)
(-0.0647814 0.0215254 -6.37184e-20)
(-0.171896 -0.00728527 -1.23863e-19)
(1.05147 -0.0942425 0)
(1.0958 -0.452763 0)
(-0.314735 -0.0104465 4.48864e-20)
(1.00676 -0.0247375 -1.27401e-21)
(0.851091 -0.0748146 0)
(1.08938 -0.179695 1.91055e-20)
(1.13409 0.0492455 2.41465e-20)
(1.23204 -0.0518868 0)
(1.10282 -0.0158959 1.99571e-20)
(1.17692 0.0194499 0)
(1.10096 0.00488143 -3.57762e-20)
(1.15849 -0.025998 -1.35576e-19)
(0.870174 -0.10201 -2.67444e-20)
(-0.19252 0.00406754 7.11798e-20)
(0.122954 0.278408 6.17078e-20)
(1.17418 0.0201937 -1.81761e-20)
(1.09243 -0.0548914 3.26048e-20)
(1.01213 -0.00283972 0)
(0.969794 0.0843688 0)
(1.02448 -0.120087 -6.83959e-21)
(1.10879 -0.164949 2.12391e-20)
(0.526486 0.0309897 7.42541e-20)
(0.992417 -0.0273601 0)
(1.31517 -0.0359891 0)
(0.556319 0.00902366 0)
(1.09393 0.0183631 -1.23583e-20)
(0.616481 -0.62972 6.01939e-20)
(0.0616419 0.029386 1.14195e-20)
(1.00419 -0.0166048 0)
(1.09043 -0.0788768 0)
(-0.192728 -0.0177255 -7.50257e-20)
(1.1655 -0.0113159 0)
(1.12594 -0.0467271 -2.30953e-22)
(1.0149 -0.0115514 -4.96824e-21)
(1.22329 0.014253 0)
(0.718923 0.115858 3.09029e-20)
(1.15897 0.104491 4.14953e-20)
(-0.268419 -0.00577226 0)
(0.99388 -0.0284705 0)
(0.969439 -0.0856154 5.03027e-21)
(1.01499 -0.0109995 0)
(1.15785 0.103671 0)
(1.10677 0.0170162 0)
(1.21845 -0.304485 -2.98248e-22)
(1.28522 -0.223518 -8.4213e-20)
(1.10095 0.0250944 -3.96616e-20)
(0.81464 -0.242558 2.81124e-20)
(0.19504 0.0560128 -1.29518e-20)
(1.22939 -0.0562304 -6.43655e-20)
(1.2322 -0.0591067 8.85101e-20)
(-0.0921957 -0.0310844 1.43292e-19)
(1.09868 -0.00284757 -1.59425e-20)
(1.07031 -0.0477866 -5.30195e-21)
(1.22995 -0.0487484 0)
(1.09297 -0.136988 1.99628e-19)
(0.373813 -0.278528 1.37415e-19)
(0.765511 -0.592852 0)
(1.26587 0.00955403 -7.62613e-20)
(1.27544 -0.0225716 6.36052e-20)
(0.878569 -0.0997915 6.15377e-21)
(1.05637 0.0216167 0)
(-0.0209909 0.0172799 1.6032e-20)
(1.16212 0.100363 2.3761e-21)
(0.108659 0.0107713 0)
(-0.0624005 -0.021634 0)
(1.08775 -0.0531956 0)
(0.507804 0.462853 0)
(1.08695 -0.239299 0)
(0.906718 -0.116462 3.6657e-20)
(-0.314413 -0.0120896 -4.79907e-20)
(0.821048 0.103776 6.24092e-20)
(1.01708 -0.00285528 5.66967e-21)
(1.21081 0.0770767 0)
(0.982838 0.0754902 4.75004e-20)
(1.15527 0.086463 -5.41638e-20)
(0.0893328 -0.00207479 -1.69659e-19)
(1.10793 -0.0205245 0)
(-0.238021 -0.00961642 7.83998e-21)
(0.171327 0.0385059 1.84744e-20)
(1.31592 -0.0745674 0)
(-0.324208 -0.0110287 8.06334e-20)
(0.159042 0.0315263 0)
(-0.00561193 0.00757856 3.43713e-20)
(1.21581 -0.285527 1.01227e-21)
(0.148043 0.0515629 -2.68803e-20)
(-0.31877 -0.0125798 -5.06747e-20)
(1.02971 -0.00177449 1.79188e-20)
(1.04462 -0.0382747 0)
(1.30066 -0.0229982 -5.29727e-20)
(-0.157971 -0.00415766 6.12678e-20)
(1.03593 -0.0350093 -1.2083e-20)
(1.19452 0.0904025 2.35093e-20)
(1.14251 0.0387717 2.90104e-20)
(0.735319 -0.171609 0)
(-0.125615 -0.0322379 9.77683e-21)
(1.15444 0.0877621 5.07556e-20)
(1.1531 0.0728768 -8.46278e-20)
(1.1557 -0.153835 4.25786e-21)
(-0.326404 -0.0120457 2.46862e-20)
(1.21198 -0.0380199 1.3001e-19)
(1.13173 -0.218793 0)
(1.0263 -0.11371 3.40869e-21)
(0.180363 0.0431988 -8.67979e-21)
(0.140283 0.0406075 9.37539e-21)
(0.999687 -0.0444561 -8.31285e-22)
(-0.0708636 0.0151017 0)
(-0.0241261 0.0244047 3.95403e-20)
(1.1539 0.071259 7.3387e-20)
(0.16691 0.0526416 -6.51501e-21)
(1.27259 -0.320102 0)
(1.13596 -0.425374 -6.05577e-20)
(0.214055 0.0582018 2.22634e-20)
(1.13397 0.0479805 -5.25178e-20)
(1.12408 -0.0954907 4.60024e-21)
(1.1144 -0.0597321 -2.55762e-20)
(0.994772 -0.0397455 -4.17616e-21)
(0.978594 -0.333211 0)
(0.840528 0.101051 3.70877e-20)
(1.16281 0.0991669 1.69788e-20)
(1.19748 0.0855532 2.9627e-20)
(1.14876 -0.0161851 0)
(0.994205 -0.0298623 1.06212e-21)
(1.00019 -0.00342689 -6.89718e-22)
(1.0494 -0.0109566 0)
(0.110766 -0.124462 1.46106e-19)
(0.501153 0.013668 -2.74805e-20)
(-0.158567 -0.00340339 0)
(0.075375 -0.118045 -1.54273e-19)
(1.23375 -0.267548 6.61043e-20)
(0.238161 -0.0367812 5.56315e-20)
(1.11915 0.0126821 1.32967e-20)
(-0.142898 -0.0219327 0)
(0.956907 -0.0557941 0)
(1.0404 -0.0148565 0)
(0.999855 -0.00219786 8.08014e-21)
(1.08751 0.100358 -1.75122e-20)
(1.03454 -0.0322476 0)
(-0.0573889 0.0229862 7.14657e-20)
(1.02933 -0.00259438 0)
(0.941872 -0.0172107 3.96761e-20)
(1.03106 -0.0159372 -1.28372e-20)
(0.984403 0.0753593 0)
(1.24285 -0.460941 1.3704e-19)
(0.999917 -0.00206012 4.9072e-22)
(1.10216 0.0241546 0)
(1.19464 0.0521824 5.5076e-20)
(0.906414 -0.122351 0)
(0.885494 -0.014094 -7.88579e-20)
(0.115118 -0.00158065 5.06777e-20)
(1.10202 0.000652192 6.88798e-21)
(1.19873 0.0826949 -4.74111e-20)
(1.07301 0.0134267 3.68902e-20)
(-0.314022 -0.0118523 -6.03216e-20)
(1.07204 -0.0529122 3.36275e-21)
(1.02435 -0.0304552 0)
(-0.326713 -0.0124932 -6.73163e-21)
(1.06005 -0.0629866 -1.03246e-20)
(0.929685 -0.21213 -1.97721e-20)
(1.01958 -0.118489 -1.96084e-19)
(1.01273 -0.00282129 0)
(0.999789 -0.00187177 0)
(-0.311657 -0.0120049 -8.79971e-20)
(1.32021 -0.092194 3.14127e-21)
(1.31823 -0.0149281 7.42544e-20)
(1.08908 -0.0298696 -1.54292e-20)
(1.13841 -0.0868613 1.66739e-20)
(1.0623 -0.0202728 -2.37836e-20)
(0.69179 -0.314646 -1.58392e-19)
(0.96972 0.0525838 -1.30719e-19)
(1.0001 -0.00070856 3.33615e-21)
(-0.17254 -0.00370978 3.26552e-20)
(1.01461 0.0561553 0)
(-0.0434114 0.025013 2.23477e-21)
(-0.10943 0.0147111 0)
(0.973903 -0.0249375 1.29634e-20)
(1.02823 0.0992664 -5.69686e-20)
(0.428057 0.0765343 0)
(-0.140409 -0.0209667 4.28444e-21)
(-0.309152 -0.012284 -2.3053e-20)
(1.11989 0.0140921 0)
(0.481787 0.0848349 4.03431e-20)
(0.818368 -0.25673 -6.99443e-20)
(1.25018 0.0627434 -5.52418e-20)
(1.19883 0.0894222 7.95543e-20)
(-0.0868758 0.0142984 3.70431e-20)
(-0.310589 -0.0111962 7.40614e-20)
(-0.0993496 0.0128453 0)
(-0.0623578 0.0227902 0)
(-0.0811604 0.0177872 -4.11396e-20)
(0.951951 -0.310075 0)
(1.07061 -0.0516203 -2.47705e-21)
(1.10849 -0.013127 0)
(1.1207 -0.151982 2.56678e-20)
(1.00407 -0.00160539 4.74115e-21)
(1.13252 -0.404686 -8.74222e-20)
(1.20599 -0.186496 -7.7932e-20)
(-0.258031 -0.00991514 -3.66663e-20)
(1.22658 0.00935111 1.13328e-20)
(1.19778 0.0198179 1.5502e-20)
(1.29023 -0.331153 1.01344e-19)
(0.407943 0.0773083 0)
(0.252376 0.0599696 0)
(0.099348 0.0309363 6.69264e-20)
(1.27344 -0.0150594 -1.46497e-19)
(1.01158 -0.515088 0)
(1.00013 -0.00244248 1.38227e-21)
(1.10566 -0.0382377 6.25415e-22)
(1.03018 -0.00165671 -9.96462e-22)
(1.01811 -0.177601 0)
(0.430151 0.0793473 -4.32746e-22)
(1.05986 -0.0227583 5.69062e-21)
(1.12008 0.0090518 0)
(1.22079 -0.158629 -1.95393e-20)
(0.259026 -0.010298 6.15853e-22)
(1.16739 -0.0660251 6.06165e-20)
(-0.146601 -0.0216214 0)
(1.26541 -0.213505 6.8976e-20)
(-0.122182 0.00306792 1.1557e-20)
(1.03367 -0.038822 -1.45274e-21)
(0.968268 -0.0548172 9.44461e-21)
(0.999835 -0.00159442 -2.77103e-21)
(0.937176 -0.168565 1.08656e-20)
(-0.0694191 -0.0352552 1.75777e-19)
(1.12317 -0.157198 0)
(0.346197 -0.116036 2.48353e-21)
(1.02342 -0.0291318 0)
(1.15676 -0.0409894 0)
(-0.0924921 -0.022852 -1.73526e-20)
(1.03641 -0.0146526 0)
(1.02979 -0.247315 0)
(0.128854 0.0360345 5.70807e-20)
(0.158872 -0.0352578 -5.74936e-20)
(-0.313687 -0.011943 0)
(0.987829 -0.02286 1.27512e-20)
(1.08826 -0.0755414 -3.33929e-22)
(0.926771 -0.0341419 -2.23023e-20)
(0.432947 -0.0111601 0)
(1.2166 -0.175526 -7.65617e-20)
(1.0599 -0.162572 -1.83595e-20)
(1.02884 -0.000939476 1.34527e-20)
(1.0108 -0.00322004 -6.5495e-21)
(0.999737 -0.00304794 -8.79868e-21)
(0.837905 0.106028 5.20225e-20)
(1.17233 0.0840502 2.9424e-20)
(0.0927527 0.133586 7.53786e-20)
(-0.0843134 0.0154464 4.50834e-20)
(1.07437 -0.0600692 -2.24382e-20)
(1.29928 -0.147583 0)
(1.1017 0.0159249 1.76036e-20)
(1.08542 -0.0538855 1.64519e-20)
(0.5915 0.0654756 1.87845e-19)
(1.01415 -0.0442756 0)
(1.12329 -0.0250631 2.77927e-20)
(-0.0850668 0.0179308 2.14348e-20)
(1.03037 -0.0164884 1.84525e-20)
(-0.248891 -0.00452988 0)
(1.00879 0.0479242 1.05205e-19)
(0.919657 -0.214573 -4.70229e-20)
(1.3138 -0.016296 -2.41371e-20)
(0.476361 0.032298 9.49708e-21)
(0.457805 0.0802469 0)
(1.14461 -0.0988411 -1.19792e-20)
(0.542108 0.0893643 -3.8854e-21)
(1.13657 -0.323302 -3.70497e-20)
(1.04983 -0.110564 0)
(0.999039 -0.00865085 0)
(1.11286 -0.16081 2.83778e-21)
(1.14514 0.0757721 0)
(0.591001 0.0670944 -6.00578e-20)
(1.1636 -0.0329146 0)
(1.00018 -0.000218329 0)
(0.406881 -0.315443 -1.83746e-19)
(1.00277 -0.0177036 -4.61274e-22)
(1.10317 0.00182837 -2.53402e-21)
(-0.111218 -0.0217755 -7.16244e-20)
(1.22331 0.01041 0)
(1.22116 -0.164022 -8.81913e-23)
(-0.00168066 -0.0468721 0)
(1.12808 -0.00820797 2.99037e-20)
(1.00456 -0.0128051 1.72812e-22)
(1.04958 -0.00436662 1.65601e-20)
(0.986337 -0.164905 0)
(1.0002 -0.000986332 -3.50795e-21)
(0.114359 0.028936 0)
(1.06225 -0.064282 4.34606e-21)
(1.19518 0.0212294 0)
(-0.248396 -0.0123439 7.78041e-20)
(1.02458 -0.00296544 0)
(1.08358 -0.0728695 0)
(-0.258504 -0.0122058 0)
(0.974286 -0.164558 -5.89662e-21)
(0.658868 -0.302617 4.56672e-20)
(0.362785 0.0276681 1.63658e-19)
(1.04606 -0.0566786 1.08462e-20)
(1.27694 -0.0191444 -7.14239e-20)
(1.00048 -0.00684588 0)
(0.208421 0.0587029 -2.83094e-20)
(1.21025 -0.365761 0)
(0.963155 0.0524646 1.65396e-21)
(1.20875 -0.305315 0)
(-0.120438 -0.0267693 -3.98309e-20)
(-0.171237 -0.0065032 1.27828e-19)
(0.856981 -0.282195 0)
(1.24049 -0.0789867 -6.78641e-20)
(1.034 -0.00288579 0)
(1.14741 0.0762468 4.61422e-21)
(0.688758 -0.33967 -1.22309e-19)
(-0.0903876 -0.0414234 -1.21633e-19)
(0.942034 -0.0151271 -2.61983e-20)
(0.265955 -0.0460346 1.51335e-19)
(1.00345 -0.019718 -3.55107e-22)
(1.05314 -0.129714 -7.72695e-20)
(1.11124 -0.061032 2.59072e-20)
(1.31466 -0.0866107 -8.36125e-20)
(1.03211 -0.0145714 0)
(1.05857 -0.0238045 -1.95082e-20)
(1.18721 -0.321501 -5.84177e-20)
(1.25771 -0.209932 0)
(0.977569 -0.0169059 0)
(1.1131 0.028921 4.99161e-20)
(1.05679 -0.0231854 -5.83564e-21)
(1.22036 -0.366988 2.98536e-20)
(-0.163937 -0.0190689 0)
(1.05494 -0.164137 1.74514e-20)
(-0.306202 -0.0132176 7.43871e-20)
(-0.164478 -0.0277801 0)
(-0.0757932 0.0199054 -7.47269e-21)
(1.00047 -0.00667522 -4.10076e-23)
(0.287232 0.0591179 0)
(0.999791 -0.0783971 -3.88727e-21)
(1.02146 -0.00380946 -4.35915e-21)
(1.27014 -0.110661 0)
(0.990405 -0.146594 0)
(0.95735 -0.0957519 -3.33914e-20)
(-0.119124 -0.0191746 0)
(1.12023 -0.0243992 -8.12652e-23)
(0.990886 -0.168537 4.32369e-21)
(0.863333 -0.0812717 3.51122e-20)
(0.996091 -0.0455889 7.65965e-21)
(1.02517 -0.00297952 -7.82512e-21)
(0.186463 0.0549764 3.62097e-20)
(1.06399 -0.11185 -1.13985e-19)
(1.02616 -0.0108542 4.17807e-21)
(1.0234 -0.00714635 6.3933e-21)
(1.25082 -0.00449388 -1.25999e-19)
(1.02353 -0.0156835 1.03908e-20)
(-0.135488 0.00129898 0)
(1.03243 -0.240491 -1.90427e-20)
(-0.101255 -0.0303104 -3.80258e-20)
(0.535639 0.0254305 0)
(1.03582 -0.0334812 0)
(1.11793 -0.176349 -1.58601e-20)
(0.25071 0.0577971 4.86919e-21)
(1.17403 0.0251861 0)
(0.9999 -0.00185284 -7.88867e-21)
(0.897948 -0.292045 -5.42959e-20)
(1.15958 -0.0395272 2.0964e-21)
(1.00183 -0.0405899 0)
(0.883698 -0.352234 1.69605e-21)
(-0.119261 -0.0170015 0)
(1.15371 -0.0561388 0)
(-0.0533386 -0.0306814 0)
(1.31713 -0.0226837 0)
(1.15051 -0.0584392 4.78473e-20)
(1.00097 -0.0136785 -4.08496e-22)
(0.609258 0.0758613 0)
(1.00124 -0.0141748 4.92232e-22)
(1.08571 -0.0758659 -4.527e-22)
(1.16271 0.0834007 0)
(1.00049 -0.000352235 0)
(1.06175 -0.0233548 -1.40928e-20)
(1.27298 -0.116099 4.71456e-20)
(1.34729 -0.334718 0)
(-0.247075 -0.0117131 1.48859e-19)
(-0.100791 0.0125088 -1.10268e-19)
(0.861984 0.106788 0)
(1.00034 -0.00762733 0)
(-0.12241 0.0135746 -3.4772e-21)
(-0.227991 -0.00522822 -7.06465e-20)
(1.15736 0.000949619 2.90667e-20)
(-0.171046 -0.0158598 1.8173e-20)
(1.29951 0.0262578 4.50503e-20)
(1.19058 0.0919839 0)
(1.19239 0.0924767 -3.39938e-21)
(1.17319 0.0235085 3.62862e-20)
(-0.150988 -0.010757 0)
(0.809853 -0.0589487 1.26637e-19)
(-0.186781 0.0043734 0)
(0.908173 -0.296505 3.89154e-20)
(1.13103 -0.0985864 0)
(0.894747 -0.408088 -7.48963e-21)
(1.19249 -0.313165 6.43655e-20)
(0.925181 -0.722516 4.59829e-20)
(1.06808 0.00414165 -2.4061e-22)
(1.13085 -0.256282 0)
(0.140243 0.0465081 0)
(0.880994 0.00277571 9.97266e-20)
(1.12033 -0.047486 -1.74023e-21)
(0.0917411 0.0290814 -5.07587e-20)
(-0.204701 -0.0138083 -1.40983e-19)
(0.00396803 0.00785375 3.29531e-20)
(0.987484 -0.0455236 7.14907e-21)
(1.34819 -0.277146 0)
(-0.171657 -0.00265765 0)
(0.237527 0.0581324 -3.81808e-20)
(-0.315407 -0.0106632 1.86236e-19)
(1.05588 -0.0346946 -1.25422e-20)
(1.10172 0.0269254 3.59497e-20)
(1.2993 -0.143819 1.03632e-19)
(-0.0171203 0.0056244 0)
(-0.000203807 0.00788433 0)
(1.13952 -0.0244463 -1.25353e-21)
(-0.166398 -0.00977791 -1.77843e-20)
(1.01433 -0.00155046 -8.38896e-21)
(0.794176 -0.611537 0)
(1.11504 0.0260168 0)
(1.04736 -0.108151 9.37752e-21)
(0.166515 -0.0415428 -7.32767e-20)
(1.03037 -0.0148178 -4.90004e-21)
(-0.118946 0.00316942 0)
(1.13039 -0.0144605 -1.80937e-20)
(0.964803 -0.33125 0)
(0.917623 -0.10105 4.04029e-21)
(0.875981 -0.0860461 -1.01824e-21)
(-0.250301 -0.0141887 1.34353e-19)
(0.99907 -0.00791222 0)
(1.03472 -0.0353374 0)
(-0.180226 -0.0134373 -7.51037e-20)
(-0.279134 -0.00727978 7.95001e-20)
(1.12089 0.0107113 -1.64983e-20)
(1.0176 -0.0117876 0)
(0.993744 -0.136864 -9.85646e-22)
(-0.242961 -0.00457369 -8.29076e-20)
(1.18489 0.0387722 -2.49106e-20)
(-0.196799 0.000324002 -3.94511e-20)
(0.528672 0.0234313 0)
(1.12963 -0.0544124 5.60656e-20)
(0.999638 -0.00331659 -1.46948e-22)
(-0.051599 -0.034978 0)
(0.881329 -0.420522 -4.43896e-21)
(-0.0885228 0.0126877 8.99732e-20)
(1.12526 -0.0085819 -5.67612e-23)
(0.854583 -0.0816803 0)
(1.17314 0.0512539 -2.27209e-20)
(1.00042 -0.0430077 -2.79513e-21)
(1.02859 -0.000571523 1.21586e-20)
(1.13758 -0.0257827 -1.75177e-20)
(1.23471 0.0592556 0)
(0.635282 -0.299687 6.30256e-20)
(1.16616 0.0815268 -3.80408e-20)
(1.02113 -0.00150385 -1.33549e-21)
(-0.322832 -0.0118647 1.09923e-19)
(0.86005 0.106663 0)
(0.976312 -0.0273357 -6.12958e-21)
(1.01362 -0.0426821 0)
(0.899971 -0.104667 -5.56711e-21)
(1.00385 -0.0190305 -2.52232e-22)
(1.09113 0.0249017 6.27903e-22)
(1.28984 0.0233689 0)
(1.00227 -0.0278029 -7.98617e-22)
(1.00209 -0.0376783 -6.53647e-21)
(0.99944 -0.00725718 7.14804e-21)
(1.02826 -0.0518356 3.23841e-22)
(1.00121 -0.0202527 3.3669e-22)
(1.02903 -0.00278745 0)
(0.57715 0.00680826 7.03903e-20)
(1.14136 -0.167138 0)
(1.01501 -0.182824 1.35332e-21)
(-0.208395 -0.0123838 1.28664e-19)
(0.998807 -0.00836379 0)
(1.07734 0.0114642 -7.54201e-21)
(1.08789 -0.0362425 1.47586e-20)
(0.302352 -0.0704862 -3.5713e-21)
(0.140678 -0.24793 0)
(-0.0531163 0.0155836 -1.21385e-20)
(1.08143 -0.119443 0)
(0.999605 -0.00698568 -7.04349e-21)
(-0.172294 -0.0170289 -7.95666e-20)
(1.01707 -0.0532276 -3.78117e-21)
(0.0733811 0.0300634 7.25031e-22)
(1.10869 -0.0589246 -2.41724e-20)
(1.20135 -0.169045 -4.28608e-21)
(1.32221 -0.0997353 -6.04696e-20)
(-0.204189 0.00285899 -5.33674e-20)
(0.992541 -0.0404296 0)
(1.0405 0.0025928 -7.31515e-23)
(1.06065 0.0168893 -4.8073e-20)
(0.269088 0.0626833 -3.66421e-20)
(1.12423 -0.020421 0)
(1.01837 -0.166015 0)
(1.03453 -0.00317073 2.25993e-20)
(1.27468 -0.0119525 1.39771e-19)
(1.1134 0.0303377 -4.23932e-20)
(1.12626 -0.0192435 1.11388e-21)
(0.97741 -0.0884314 -1.64241e-20)
(1.02921 -0.00216183 -9.01356e-21)
(-0.211479 0.00147153 9.93974e-20)
(1.08594 -0.132014 -2.41205e-20)
(1.02311 -0.00631732 0)
(0.346559 0.696959 9.64524e-20)
(-0.183258 -0.0146307 1.14064e-19)
(-0.211576 -0.00793923 1.42878e-19)
(-0.326381 -0.0109706 -2.72444e-19)
(1.14204 0.0774396 0)
(1.02664 -0.00338782 1.78838e-20)
(-0.236164 -0.00858525 0)
(1.2571 -0.000981632 -5.58714e-20)
(1.32848 -0.341306 4.22363e-20)
(1.11981 -0.0956877 -4.2497e-24)
(0.86789 -0.0874144 6.41515e-20)
(1.17603 0.0510428 5.76678e-21)
(1.0157 -0.160043 -6.41769e-22)
(-0.166203 -0.0167844 6.50057e-20)
(1.32389 -0.0484384 1.03149e-19)
(1.01011 -0.00348096 1.79605e-21)
(1.20373 -0.025164 6.43492e-21)
(1.17026 0.0545126 -4.20451e-20)
(1.0037 -0.0495846 6.14417e-22)
(0.0419627 -0.0961263 4.76016e-22)
(1.07941 -0.00304887 -1.50704e-20)
(0.960708 -0.0858704 1.40164e-20)
(0.107823 0.00951827 -4.62214e-20)
(0.458048 0.0779617 0)
(0.997611 -0.0457502 0)
(0.056503 0.0290684 0)
(-0.089708 -0.0290827 0)
(1.00411 -0.01565 2.95629e-22)
(0.999513 -0.0713599 0)
(1.21998 0.0614976 0)
(0.437167 0.620822 -4.55833e-20)
(0.665451 -0.333701 4.94269e-20)
(1.02517 -0.0098367 7.10374e-21)
(1.1803 -0.0392596 0)
(1.16201 -0.0492449 0)
(0.435213 0.0793387 6.6217e-20)
(-0.10183 0.0153041 0)
(-0.110263 -0.0221994 6.04322e-21)
(0.721117 -0.16733 -7.93084e-20)
(1.05431 -0.0352031 0)
(-0.15506 -0.0209977 0)
(1.09139 -0.0295783 3.15911e-20)
(0.757077 -0.00360613 -9.17656e-20)
(1.06645 -0.0637958 -1.40812e-21)
(0.410093 0.0757763 -5.33748e-20)
(0.502623 0.515864 5.83832e-20)
(1.06432 -0.062842 -4.78656e-21)
(1.00552 -0.00101091 5.17473e-21)
(1.12861 -0.0126533 3.47469e-20)
(0.270229 -0.0440804 -7.29233e-20)
(0.36912 -0.156257 0)
(0.998367 -0.0438739 -3.6977e-21)
(0.984223 -0.0254002 5.21997e-21)
(-0.125282 -0.0121186 6.39669e-20)
(1.02252 -0.0309378 8.44552e-22)
(0.381602 0.186913 0)
(1.03047 -0.554985 0)
(1.0239 -0.00863179 1.33832e-20)
(1.0209 -0.0337075 -2.01873e-22)
(0.186134 0.0509907 0)
(1.1175 -0.0460729 -2.46338e-20)
(0.156702 0.024077 0)
(0.51942 -0.679548 1.77473e-19)
(1.00181 -0.0570716 -3.40635e-21)
(1.07438 -0.0848591 2.6042e-20)
(1.15213 0.0890662 0)
(1.09279 -0.0523666 -3.29717e-20)
(1.20052 -0.00695395 -8.65096e-22)
(1.15005 0.0884934 0)
(0.824927 -0.099027 -1.32462e-20)
(1.00249 -0.0269278 0)
(1.02406 -0.00931129 -7.24631e-21)
(-0.0703648 0.0214304 0)
(1.1174 -0.0923678 4.14686e-24)
(1.00103 -0.0192152 2.58323e-21)
(-0.0860763 0.0199737 -2.2595e-20)
(-0.179275 -0.0222247 0)
(1.03542 -0.0452669 0)
(0.540365 -0.542904 7.20704e-20)
(1.02391 -0.0282806 -6.94329e-21)
(1.07665 -0.0839872 4.82279e-21)
(0.990286 -0.0448963 1.06522e-20)
(-0.209005 -0.000149239 -7.44102e-20)
(-0.142881 -0.0145745 -1.27477e-19)
(0.973433 -0.0262553 -8.71884e-21)
(1.03616 -0.0664434 0)
(0.0885546 -0.0042834 0)
(1.10277 -0.001542 2.47912e-20)
(1.21523 -0.156449 1.74634e-20)
(1.07892 -0.00926387 4.57051e-20)
(1.0601 -0.234022 -2.20123e-20)
(0.981627 -0.0316473 -1.90085e-20)
(1.10114 -0.158351 -7.36677e-23)
(0.996466 -0.0418518 1.86521e-21)
(1.33495 -0.0745381 -9.90263e-20)
(-0.167064 -0.00178093 -7.21362e-20)
(1.07167 -0.0497461 5.83395e-21)
(1.14781 -0.0638021 1.2042e-20)
(-0.0696898 0.0209507 -8.49488e-20)
(1.08086 -0.0733975 1.78292e-20)