/*--------------------------------*- C++ -*----------------------------------*\
| =========                 |                                                 |
| \\      /  F ield         | OpenFOAM: The Open Source CFD Toolbox           |
|  \\    /   O peration     | Version:  v2012                                 |
|   \\  /    A nd           | Website:  www.openfoam.com                      |
|    \\/     M anipulation  |                                                 |
\*---------------------------------------------------------------------------*/
FoamFile
{
    version     2.0;
    format      ascii;
    class       volVectorField;
    location    "200";
    object      U_0;
}
// * * * * * * * * * * * * * * * * * * * * * * * * * * * * * * * * * * * * * //

dimensions      [0 1 -1 0 0 0 0];


internalField   nonuniform List<vector> 
15335
(
(-0.306535 -0.0100188 0)
(1.20091 0.0878702 -3.47253e-20)
(-0.311364 -0.012609 1.1165e-19)
(0.939751 -0.18387 -2.47119e-20)
(-0.145399 -0.0255015 1.17598e-19)
(0.986175 -0.0326896 -7.96556e-21)
(1.19694 0.0551359 0)
(1.29703 -0.202729 9.26689e-20)
(1.13535 -0.0856294 -1.0155e-20)
(-0.287509 -0.00775715 0)
(-0.299481 -0.0121254 -9.59428e-20)
(1.07633 0.0144823 -3.74968e-20)
(-0.128584 -0.0277328 -7.75859e-20)
(-0.04368 0.00254158 4.44063e-20)
(0.482042 -0.0111634 0)
(1.27188 -0.231744 1.78377e-19)
(1.01801 0.000106827 1.21036e-20)
(0.129747 -0.0348928 3.59568e-21)
(1.03595 -0.0032169 -2.08372e-20)
(-0.176069 -0.0277664 -6.5472e-20)
(-0.0626811 0.0147498 0)
(-0.0532216 0.0161277 0)
(1.19568 0.0576238 3.10438e-20)
(1.03089 -0.00656836 4.21566e-21)
(1.28161 -0.0411224 0)
(1.13704 -0.329829 1.01729e-19)
(-0.210776 -0.0106499 -1.06487e-19)
(1.12956 -0.337498 -7.57851e-20)
(0.0267431 -0.0507848 -6.50626e-20)
(0.952925 -0.0814086 -4.50996e-20)
(-0.233667 -0.0123636 -5.34333e-20)
(0.509418 0.046482 1.53297e-20)
(0.999879 -0.00116872 2.20537e-21)
(1.01762 -0.0553738 2.96901e-21)
(1.0322 -0.0387373 1.263e-21)
(1.32082 -0.0822518 3.92195e-20)
(1.3167 -0.078146 -5.3305e-20)
(1.1741 -0.622694 1.17033e-19)
(-0.143303 0.00162206 2.22025e-20)
(1.15132 -0.427025 0)
(1.16599 0.0976679 8.91222e-21)
(1.31482 -0.0894327 -5.38585e-20)
(0.99976 -0.0410523 0)
(1.09539 0.0241761 1.75159e-20)
(-0.269328 -0.00632625 -3.43386e-20)
(1.01745 -0.00223279 0)
(-0.167398 -0.0768792 5.67192e-21)
(0.450455 0.080571 2.68693e-20)
(-0.0215613 0.00620268 -8.69587e-21)
(1.02304 -0.116342 4.35553e-21)
(1.03003 -0.00642227 0)
(0.38603 0.0166406 3.98614e-20)
(1.31779 -0.234609 -1.0026e-19)
(0.999949 -0.000655774 5.56655e-21)
(1.04972 -0.0310482 -8.8848e-21)
(1.19516 0.0494433 0)
(0.766852 -0.396058 0)
(0.431145 0.0186153 6.96903e-23)
(-0.195358 -0.0138141 1.73551e-19)
(-0.300886 -0.0123721 -2.0986e-19)
(-0.0730943 0.0194841 -3.19963e-22)
(0.398394 0.0771242 2.83421e-20)
(0.912206 -0.206965 2.16073e-20)
(0.896746 -0.0632054 2.08945e-20)
(1.04503 -0.0149101 0)
(1.07488 0.0131578 -1.63425e-20)
(1.19814 -0.0167455 0)
(0.46333 0.0427031 -3.16878e-20)
(1.04659 -0.00835593 -7.19467e-21)
(1.02925 -0.00089954 1.48352e-20)
(1.15958 -0.0315516 -8.11109e-20)
(1.04912 -0.0922562 0)
(1.28148 -0.0443294 0)
(-0.0302777 0.0249359 0)
(1.11108 0.0216658 -7.7868e-20)
(-0.108345 0.015098 9.26331e-20)
(1.16532 0.0993017 -1.81309e-20)
(1.26041 -0.114626 -2.41757e-20)
(0.536138 -0.111299 -2.4176e-20)
(0.999836 -0.00286321 3.21509e-21)
(-0.124215 -0.0238343 7.38572e-20)
(-0.175394 -0.00871279 0)
(-0.150025 -0.0218584 -1.74856e-20)
(1.27691 -0.0299346 0)
(-0.323527 -0.0147138 0)
(1.01722 -0.00163037 8.67179e-21)
(1.0354 -0.00290722 9.63563e-21)
(1.09377 0.0250257 0)
(0.971774 -0.0931274 -1.84183e-20)
(1.21303 0.0800387 -4.63943e-20)
(-0.109905 -0.0277646 -1.41656e-19)
(1.17844 0.0483968 -5.52515e-21)
(1.07755 0.00995016 -4.12705e-20)
(0.152326 -0.633295 7.57357e-20)
(-0.180242 -0.0153845 0)
(1.09385 -0.0264654 -3.87759e-21)
(1.01644 -0.00292918 0)
(1.09562 -0.156448 -2.68906e-20)
(1.02527 -0.0105066 0)
(0.999879 -0.00208635 0)
(1.00054 -0.0397525 1.12814e-21)
(-0.0955252 0.0162956 -1.00926e-19)
(1.31876 -0.036604 -9.62276e-20)
(1.13723 0.0651761 1.39615e-20)
(1.07707 -0.00883019 0)
(1.13137 -0.0869579 0)
(1.04802 -0.0299404 -7.77214e-21)
(0.827029 -0.0808465 0)
(0.0952495 -0.233437 0)
(1.01216 -0.250685 -9.56438e-22)
(-0.0290668 0.0162491 5.43563e-20)
(1.22072 0.0156957 -3.68338e-20)
(1.00388 -0.0199554 0)
(1.07829 0.0143843 -3.33963e-22)
(1.30982 -0.24608 0)
(0.975626 -0.092792 1.50308e-20)
(1.15896 -0.0293762 -2.30326e-22)
(0.215891 -0.65929 2.19724e-20)
(-0.123353 -0.0273961 1.51513e-19)
(1.33869 -0.0970114 6.0229e-20)
(-0.112406 -0.0266214 -7.53485e-20)
(1.14443 0.0928714 9.62321e-21)
(-0.0248412 0.0253699 0)
(0.853773 0.105409 0)
(0.985526 -0.0234787 1.08516e-20)
(0.99622 -0.0331246 7.15988e-21)
(0.777399 -0.376108 3.75451e-20)
(0.999295 -0.00821783 0)
(1.13509 0.0648729 0)
(1.04615 -0.0397179 0)
(-0.173028 -0.00190436 1.37742e-19)
(-0.256378 -0.00447153 0)
(1.02012 -0.00113294 0)
(0.941312 -0.300987 0)
(1.25468 -0.114392 -6.77482e-20)
(1.01134 -0.00375012 7.20736e-21)
(-0.139306 -0.022161 0)
(0.140144 -0.0683934 0)
(0.902818 -0.210985 3.1933e-20)
(1.29834 -0.198213 -1.58025e-19)
(1.17839 0.0464969 -5.52517e-21)
(1.2149 0.0802868 1.24792e-19)
(1.09275 -0.234555 -8.38065e-21)
(1.02722 0.000268774 -1.0866e-20)
(-0.0420983 0.0238673 -5.19505e-20)
(1.04174 -0.529148 -1.30789e-19)
(-0.0426164 0.0219592 2.0083e-20)
(0.02427 -0.0418221 -1.39787e-19)
(1.21981 -0.276457 6.88671e-20)
(-0.142561 -0.0190384 -8.56265e-21)
(1.10091 -0.0381547 -3.58967e-20)
(0.517708 0.0346148 8.2838e-21)
(0.997002 -0.0335518 3.04144e-21)
(1.09163 -0.0270805 0)
(0.0582396 0.0274378 1.74701e-20)
(0.999849 -0.00142582 -1.44132e-20)
(0.213387 0.0538778 -7.10876e-21)
(-0.15248 -0.000675917 0)
(0.100606 0.324052 -1.27479e-19)
(0.686487 -0.0340994 7.60652e-20)
(0.999709 -0.00174053 2.03503e-20)
(0.881136 -0.0909505 2.63075e-20)
(0.810827 0.101736 8.02406e-21)
(1.18086 -0.052236 0)
(-0.147102 0.00183279 0)
(-0.245711 -0.00667516 1.83581e-20)
(-0.234271 -0.00566595 2.40382e-20)
(1.02872 -0.00670082 1.63766e-20)
(0.192285 0.80744 9.89077e-20)
(-0.165776 -0.0176228 -8.06625e-21)
(1.03956 -0.44536 2.35859e-20)
(1.34043 -0.261005 3.12253e-20)
(0.117403 0.0435322 3.05389e-20)
(0.706849 0.102371 -3.12491e-20)
(1.26714 -0.0525743 5.53505e-20)
(0.999805 -0.00263532 -5.45256e-21)
(1.00028 -0.00416953 0)
(0.85233 0.104699 -7.78901e-20)
(0.751667 -0.328833 8.82763e-20)
(1.18104 0.0907818 8.39682e-21)
(1.27194 -0.0525116 -7.54234e-20)
(0.107646 0.700709 -9.05587e-20)
(-0.052259 0.0234251 0)
(1.14812 -0.0781517 0)
(1.14727 -0.0755709 0)
(-0.196333 -0.000488296 -6.69196e-20)
(1.12306 -0.045488 2.10135e-22)
(0.942789 -0.176212 2.58241e-20)
(-0.0398515 0.0227008 0)
(-0.158347 -0.00184193 -1.04086e-19)
(-0.328524 -0.0121588 -7.42661e-20)
(1.23159 -0.350785 1.03268e-19)
(1.1014 0.0142738 -1.81902e-20)
(1.27592 -0.0464286 7.52663e-20)
(1.33279 -0.0682672 1.05305e-19)
(0.000244711 -0.0424916 0)
(1.00285 -0.0185659 3.36705e-22)
(-0.254231 -0.00432231 0)
(0.996075 -0.0400903 3.95938e-21)
(-0.0955391 -0.0316136 -1.4252e-19)
(1.0904 -0.15963 -1.07718e-20)
(0.929025 -0.298204 -6.6954e-21)
(1.03993 -0.223245 -1.25638e-20)
(-0.331653 -0.0122683 2.17432e-19)
(-0.314972 -0.0132108 0)
(1.26026 -0.0754933 0)
(1.00024 -0.00348749 0)
(0.674778 -0.00984654 -2.97208e-21)
(0.867975 -0.109835 -1.13521e-21)
(0.994732 -0.14267 -4.92077e-21)
(1.1263 -0.248827 -4.15407e-20)
(1.00249 -0.0394319 0)
(0.0668147 0.0291642 -5.63882e-21)
(0.955292 -0.0784557 2.81745e-20)
(1.03198 -0.530304 0)
(0.659122 -0.0127881 4.97345e-20)
(-0.313661 -0.011916 1.1224e-19)
(0.472355 0.0377095 0)
(1.14977 0.0746215 0)
(0.313597 -0.111612 2.09404e-21)
(0.986752 -0.0240651 0)
(1.00661 -0.0236303 3.04039e-22)
(1.12925 -0.0513933 -3.11689e-20)
(1.09235 0.0193967 -2.35875e-20)
(1.2418 -0.267651 0)
(1.29101 -0.0356574 0)
(1.03093 -0.0142432 4.9873e-21)
(-0.14398 -0.000491915 -3.86754e-21)
(1.17771 -0.0608418 6.73643e-20)
(0.952626 0.0681311 0)
(1.01402 -0.0119281 -5.34346e-21)
(1.02079 -0.00339977 -5.12769e-21)
(-0.0102762 0.0080657 0)
(0.325733 0.018315 7.58096e-20)
(-0.247271 -0.0103231 -1.29496e-19)
(1.1247 -0.216833 4.5233e-21)
(1.27563 -0.0502649 -8.92298e-20)
(1.15035 0.0732061 0)
(1.00044 -0.00549678 1.3775e-22)
(1.31421 -0.0631997 -3.67763e-20)
(0.146292 0.0512855 7.36624e-21)
(1.02131 -0.252604 0)
(-0.033658 0.0228735 0)
(1.15269 -0.0527269 0)
(-0.318282 -0.0108282 -1.8089e-19)
(1.01831 -0.0126645 0)
(0.997162 -0.0776624 4.96359e-21)
(-0.318457 -0.0130894 0)
(0.43335 0.0780605 -5.47552e-20)
(0.410323 0.0767697 5.6271e-20)
(-0.326846 -0.0123618 0)
(-0.255782 -0.00646136 -1.61885e-22)
(1.01984 -0.00152142 1.05997e-20)
(1.02963 -0.00698639 -1.6724e-20)
(1.17766 -0.0534889 2.06205e-21)
(-0.258357 -0.00871587 0)
(1.18161 0.0448995 6.31981e-21)
(-0.161909 -0.00323597 8.43145e-20)
(1.02947 -0.00117706 -1.54232e-20)
(1.26497 -0.0743528 6.36117e-20)
(-0.22241 -0.00462567 1.3079e-19)
(0.99987 -0.0015159 0)
(1.0305 -0.0101102 1.0481e-20)
(0.98739 -0.0320372 0)
(1.04767 -0.00881581 5.98895e-23)
(1.03022 -0.00135732 -1.32236e-20)
(0.619694 -0.0199427 2.11132e-20)
(-0.126846 0.00331926 5.7526e-21)
(-0.15742 -0.00072835 -2.87488e-20)
(0.976873 -0.0183972 0)
(0.588303 -0.0173986 -8.48275e-20)
(-0.215184 -0.00374178 0)
(-0.138966 0.000436878 3.28118e-21)
(1.01401 -0.0113935 9.51809e-21)
(-0.109071 0.00168626 1.08785e-19)
(0.972052 -0.0840218 9.05861e-21)
(1.00052 -0.0550319 6.90739e-21)
(1.25565 -0.00360385 4.13788e-20)
(0.901787 -0.0624192 -2.04295e-20)
(1.17576 -0.0586439 -6.82391e-20)
(-0.0466243 0.00459567 -2.09798e-20)
(-0.110404 0.014573 0)
(1.03768 -0.0147222 1.14018e-20)
(1.18173 0.0427477 -2.23079e-20)
(1.10251 0.00403954 4.24852e-20)
(-0.114568 -0.0200535 1.30915e-19)
(0.188576 0.0532107 0)
(1.10408 -0.0144985 0)
(0.954042 -0.056801 0)
(1.0439 -0.0566982 0)
(-0.247186 -0.00642213 -4.76109e-23)
(1.07938 0.00956234 3.4067e-20)
(0.86864 -0.275294 -4.45406e-20)
(1.26822 0.0119987 0)
(1.09317 -0.0780631 2.25492e-20)
(0.75403 0.598729 -3.85473e-21)
(1.03006 -0.0105954 0)
(1.19709 0.0804715 -4.12835e-20)
(1.03147 -0.0397708 0)
(-0.17588 -0.00329306 -1.38846e-19)
(0.984389 -0.0241702 -1.38379e-22)
(0.162824 0.0528943 0)
(1.18417 -0.28268 -3.90166e-20)
(0.932723 0.0837956 2.98592e-21)
(1.00956 -0.0029423 5.09358e-21)
(0.426915 -0.0844887 9.06902e-20)
(-0.237336 -0.00426871 -5.1364e-22)
(1.00031 -0.00495034 0)
(1.11807 0.010377 7.69803e-20)
(0.925082 -0.0716495 -3.05907e-20)
(-0.158077 -0.00593098 1.15646e-19)
(1.04903 -0.0103907 -4.98818e-21)
(1.27894 -0.0260401 -4.04229e-21)
(0.902284 0.10251 -3.62246e-20)
(1.06606 0.0112329 -4.09913e-20)
(0.993081 -0.0260804 0)
(0.985977 -0.0446871 -2.24744e-20)
(0.0815361 0.00699346 -4.66381e-20)
(1.22036 0.0626594 0)
(0.357113 0.0333448 -1.24023e-19)
(1.22858 -0.360929 -9.7573e-20)
(1.0437 -0.0145482 1.72276e-20)
(-0.183137 -0.00454397 0)
(-0.0401725 -0.0236983 0)
(1.12658 -0.0989152 -4.88799e-21)
(0.0538064 0.0275111 0)
(-0.158799 -0.00583123 -1.06438e-19)
(0.991494 0.064799 0)
(1.10106 -0.00320725 1.76209e-20)
(1.09922 -0.0393817 0)
(0.999868 -0.00256896 6.86106e-21)
(1.19163 -0.276444 -4.19144e-20)
(0.968046 -0.0577776 -4.53919e-21)
(1.19683 0.0912326 6.94053e-21)
(0.955313 -0.31642 0)
(1.32254 -0.0399232 8.96378e-20)
(1.04559 -0.22961 1.31045e-20)
(-0.0963889 0.00467712 -9.48245e-20)
(-0.291207 -0.0128959 0)
(-0.268101 -0.00526751 0)
(1.19815 0.0486218 0)
(1.15783 0.086417 -6.7798e-21)
(1.00381 -0.0163733 0)
(1.15896 0.0849696 2.44676e-20)
(1.10001 0.0283257 0)
(0.922606 -0.0683925 0)
(1.01667 -0.0567605 1.36475e-21)
(1.28723 -0.229838 9.51191e-20)
(1.02273 -0.00743924 -6.11356e-21)
(-0.126672 -0.0263156 -1.10128e-20)
(-0.0647813 0.0215254 -6.3718e-20)
(-0.171896 -0.00728527 -1.23862e-19)
(1.05147 -0.0942425 0)
(1.0958 -0.452782 0)
(-0.314735 -0.0104465 4.4886e-20)
(1.00676 -0.0247375 -1.27402e-21)
(0.851091 -0.0748145 0)
(1.08938 -0.179695 1.91051e-20)
(1.13409 0.0492455 2.41464e-20)
(1.23204 -0.0518867 0)
(1.10282 -0.0158959 1.99569e-20)
(1.17692 0.0194499 0)
(1.10096 0.00488144 -3.57759e-20)
(1.15849 -0.0259978 -1.35575e-19)
(0.870174 -0.10201 -2.67442e-20)
(-0.192522 0.00407063 7.11799e-20)
(0.122954 0.278408 6.17074e-20)
(1.17418 0.0201938 -1.81759e-20)
(1.09243 -0.0548914 3.26044e-20)
(1.01213 -0.00283972 0)
(0.969794 0.0843689 0)
(1.02448 -0.120087 -6.83925e-21)
(1.10879 -0.164949 2.12387e-20)
(0.526487 0.0309897 7.42536e-20)
(0.992417 -0.0273601 0)
(1.31517 -0.0359888 0)
(0.556319 0.00902373 0)
(1.09393 0.0183631 -1.23582e-20)
(0.61648 -0.62972 6.01879e-20)
(0.0616421 0.029386 1.14194e-20)
(1.00419 -0.0166048 0)
(1.09043 -0.0788768 0)
(-0.192728 -0.0177255 -7.50247e-20)
(1.16551 -0.0113159 0)
(1.12594 -0.0467271 -2.30951e-22)
(1.0149 -0.0115514 -4.9682e-21)
(1.22329 0.0142531 0)
(0.718923 0.115858 3.09026e-20)
(1.15897 0.104491 4.14951e-20)
(-0.268419 -0.00577226 0)
(0.99388 -0.0284705 0)
(0.969439 -0.0856154 5.03024e-21)
(1.01499 -0.0109995 0)
(1.15785 0.103672 0)
(1.10677 0.0170163 0)
(1.21845 -0.304485 -2.98243e-22)
(1.28522 -0.223518 -8.42118e-20)
(1.10095 0.0250944 -3.96614e-20)
(0.81464 -0.242558 2.8112e-20)
(0.19504 0.0560129 -1.29517e-20)
(1.22939 -0.0562304 -6.43649e-20)
(1.2322 -0.0591066 8.85092e-20)
(-0.0921956 -0.0310844 1.43289e-19)
(1.09868 -0.00284756 -1.59424e-20)
(1.07031 -0.0477865 -5.30189e-21)
(1.22995 -0.0487484 0)
(1.09297 -0.136988 1.99626e-19)
(0.373812 -0.278521 1.37408e-19)
(0.765511 -0.592853 0)
(1.26587 0.00955416 -7.62607e-20)
(1.27544 -0.0225715 6.36046e-20)
(0.878569 -0.0997915 6.15371e-21)
(1.05637 0.0216167 0)
(-0.0209907 0.0172799 1.60319e-20)
(1.16212 0.100364 2.37608e-21)
(0.108659 0.0107714 0)
(-0.0624004 -0.021634 0)
(1.08775 -0.0531956 0)
(0.507804 0.462853 0)
(1.08695 -0.239299 0)
(0.906718 -0.116462 3.66567e-20)
(-0.314413 -0.0120896 -4.79903e-20)
(0.821049 0.103776 6.24089e-20)
(1.01708 -0.00285528 5.66963e-21)
(1.21081 0.0770767 0)
(0.982839 0.0754901 4.74998e-20)
(1.15527 0.0864631 -5.41635e-20)
(0.0893329 -0.00207478 -1.69657e-19)
(1.10793 -0.0205245 0)
(-0.238021 -0.00961642 7.8399e-21)
(0.171328 0.0385059 1.84743e-20)
(1.31592 -0.0745673 0)
(-0.324208 -0.0110287 8.06329e-20)
(0.159042 0.0315263 0)
(-0.00561174 0.00757858 3.43711e-20)
(1.21581 -0.285527 1.01226e-21)
(0.148044 0.0515629 -2.68802e-20)
(-0.31877 -0.0125799 -5.06742e-20)
(1.02971 -0.00177449 1.79186e-20)
(1.04462 -0.0382747 0)
(1.30066 -0.0229982 -5.29723e-20)
(-0.157971 -0.00415765 6.12674e-20)
(1.03593 -0.0350092 -1.20829e-20)
(1.19452 0.0904025 2.35092e-20)
(1.14251 0.0387717 2.90102e-20)
(0.735319 -0.171609 0)
(-0.125613 -0.0322409 9.77706e-21)
(1.15444 0.0877621 5.07554e-20)
(1.1531 0.0728768 -8.46274e-20)
(1.1557 -0.153834 4.25782e-21)
(-0.326404 -0.0120457 2.4686e-20)
(1.21198 -0.0380198 1.30009e-19)
(1.13173 -0.218793 0)
(1.0263 -0.11371 3.40857e-21)
(0.180363 0.0431989 -8.67974e-21)
(0.140283 0.0406076 9.37534e-21)
(0.999687 -0.0444561 -8.31278e-22)
(-0.0708635 0.0151017 0)
(-0.0241259 0.0244047 3.95401e-20)
(1.1539 0.071259 7.33866e-20)
(0.16691 0.0526416 -6.51497e-21)
(1.27259 -0.320102 0)
(1.13596 -0.425373 -6.05557e-20)
(0.214055 0.0582019 2.22632e-20)
(1.13397 0.0479805 -5.25175e-20)
(1.12408 -0.0954906 4.60018e-21)
(1.1144 -0.0597321 -2.55759e-20)
(0.994772 -0.0397455 -4.17611e-21)
(0.978594 -0.333211 0)
(0.840528 0.101051 3.70875e-20)
(1.16281 0.0991669 1.69787e-20)
(1.19748 0.0855533 2.96269e-20)
(1.14876 -0.016185 0)
(0.994205 -0.0298623 1.06211e-21)
(1.00019 -0.00342689 -6.89696e-22)
(1.0494 -0.0109566 0)
(0.110766 -0.124462 1.46104e-19)
(0.501153 0.013668 -2.74803e-20)
(-0.158567 -0.00340337 0)
(0.075375 -0.118045 -1.54271e-19)
(1.23375 -0.267548 6.61032e-20)
(0.238161 -0.0367812 5.56309e-20)
(1.11915 0.0126822 1.32966e-20)
(-0.142898 -0.0219327 0)
(0.956907 -0.055794 0)
(1.0404 -0.0148565 0)
(0.999855 -0.00219786 8.08e-21)
(1.08751 0.100359 -1.7512e-20)
(1.03454 -0.0322476 0)
(-0.0573888 0.0229862 7.14652e-20)
(1.02933 -0.00259438 0)
(0.941872 -0.0172107 3.96757e-20)
(1.03106 -0.0159372 -1.28371e-20)
(0.984403 0.0753591 0)
(1.24284 -0.460939 1.37035e-19)
(0.999917 -0.00206012 4.90712e-22)
(1.10216 0.0241546 0)
(1.19464 0.0521825 5.50757e-20)
(0.906414 -0.122351 0)
(0.885494 -0.014094 -7.8857e-20)
(0.115118 -0.00158064 5.06772e-20)
(1.10202 0.000652206 6.88792e-21)
(1.19873 0.082695 -4.74109e-20)
(1.07301 0.0134267 3.68899e-20)
(-0.314022 -0.0118523 -6.03212e-20)
(1.07204 -0.0529122 3.36271e-21)
(1.02435 -0.0304552 0)
(-0.326713 -0.0124932 -6.73157e-21)
(1.06005 -0.0629866 -1.03245e-20)
(0.929685 -0.21213 -1.9772e-20)
(1.01958 -0.11849 -1.96082e-19)
(1.01273 -0.00282129 0)
(0.999789 -0.00187177 0)
(-0.311657 -0.0120049 -8.79963e-20)
(1.32021 -0.0921941 3.14124e-21)
(1.31823 -0.0149281 7.42538e-20)
(1.08908 -0.0298696 -1.5429e-20)
(1.13841 -0.0868613 1.66737e-20)
(1.0623 -0.0202728 -2.37834e-20)
(0.691788 -0.314649 -1.58388e-19)
(0.96972 0.0525838 -1.30718e-19)
(1.0001 -0.000708559 3.33615e-21)
(-0.17254 -0.00370977 3.2655e-20)
(1.01461 0.0561553 0)
(-0.0434112 0.025013 2.23476e-21)
(-0.10943 0.0147112 0)
(0.973903 -0.0249375 1.29633e-20)
(1.02823 0.0992665 -5.69682e-20)
(0.428058 0.0765344 0)
(-0.140409 -0.0209667 4.28438e-21)
(-0.309152 -0.012284 -2.30527e-20)
(1.11989 0.0140921 0)
(0.481787 0.0848349 4.03429e-20)
(0.818368 -0.25673 -6.99433e-20)
(1.25018 0.0627414 -5.52454e-20)
(1.19883 0.0894222 7.9554e-20)
(-0.0868757 0.0142984 3.70429e-20)
(-0.310593 -0.0111965 7.4062e-20)
(-0.0993495 0.0128453 0)
(-0.0623577 0.0227903 0)
(-0.0811602 0.0177873 -4.11393e-20)
(0.951951 -0.310075 0)
(1.07061 -0.0516203 -2.47702e-21)
(1.10849 -0.013127 0)
(1.1207 -0.151982 2.56674e-20)
(1.00407 -0.00160539 4.74113e-21)
(1.13252 -0.404686 -8.74196e-20)
(1.20599 -0.186496 -7.79309e-20)
(-0.258035 -0.00991453 -3.66667e-20)
(1.22658 0.00935117 1.13327e-20)
(1.19778 0.0198179 1.55019e-20)
(1.29023 -0.331153 1.01342e-19)
(0.407943 0.0773084 0)
(0.252377 0.0599697 0)
(0.0993482 0.0309363 6.6926e-20)
(1.27344 -0.0150593 -1.46496e-19)
(1.01158 -0.515088 0)
(1.00013 -0.00244248 1.38223e-21)
(1.10566 -0.0382377 6.25409e-22)
(1.03018 -0.00165671 -9.96455e-22)
(1.01811 -0.177601 0)
(0.430152 0.0793473 -4.32744e-22)
(1.05986 -0.0227582 5.69057e-21)
(1.12008 0.00905182 0)
(1.22079 -0.158629 -1.95391e-20)
(0.259026 -0.010298 6.15862e-22)
(1.16739 -0.0660252 6.0616e-20)
(-0.146601 -0.0216214 0)
(1.26541 -0.213505 6.89751e-20)
(-0.122182 0.00306793 1.15569e-20)
(1.03367 -0.038822 -1.45272e-21)
(0.968268 -0.0548172 9.44452e-21)
(0.999835 -0.00159442 -2.77098e-21)
(0.937176 -0.168565 1.08656e-20)
(-0.0694191 -0.0352552 1.75773e-19)
(1.12317 -0.157198 0)
(0.346197 -0.116036 2.48347e-21)
(1.02342 -0.0291318 0)
(1.15676 -0.0409893 0)
(-0.092492 -0.022852 -1.73524e-20)
(1.03641 -0.0146526 0)
(1.02979 -0.247315 0)
(0.128854 0.0360345 5.70804e-20)
(0.158872 -0.0352578 -5.74929e-20)
(-0.313687 -0.011943 0)
(0.987829 -0.02286 1.2751e-20)
(1.08826 -0.0755414 -3.33927e-22)
(0.926771 -0.0341418 -2.23021e-20)
(0.432947 -0.0111601 0)
(1.2166 -0.175526 -7.65607e-20)
(1.0599 -0.162572 -1.83591e-20)
(1.02884 -0.000939476 1.34526e-20)
(1.0108 -0.00322004 -6.54946e-21)
(0.999737 -0.00304794 -8.79853e-21)
(0.837905 0.106028 5.20222e-20)
(1.17233 0.0840503 2.94238e-20)
(0.0927527 0.133586 7.53779e-20)
(-0.0843133 0.0154464 4.50832e-20)
(1.07437 -0.0600692 -2.2438e-20)
(1.29928 -0.147582 0)
(1.1017 0.0159249 1.76035e-20)
(1.08542 -0.0538855 1.64518e-20)
(0.591501 0.0654757 1.87845e-19)
(1.01415 -0.0442756 0)
(1.12329 -0.0250631 2.77924e-20)
(-0.0850667 0.0179308 2.14347e-20)
(1.03037 -0.0164883 1.84523e-20)
(-0.248888 -0.0045301 0)
(1.00879 0.0479242 1.05204e-19)
(0.919657 -0.214573 -4.70225e-20)
(1.3138 -0.016296 -2.41369e-20)
(0.476361 0.032298 9.49702e-21)
(0.457805 0.0802469 0)
(1.14461 -0.0988411 -1.1979e-20)
(0.542108 0.0893643 -3.88537e-21)
(1.13657 -0.323302 -3.70488e-20)
(1.04983 -0.110564 0)
(0.999039 -0.00865084 0)
(1.11286 -0.16081 2.83773e-21)
(1.14514 0.0757721 0)
(0.591001 0.0670945 -6.00575e-20)
(1.1636 -0.0329146 0)
(1.00018 -0.000218328 0)
(0.406879 -0.315447 -1.83738e-19)
(1.00277 -0.0177036 -4.61261e-22)
(1.10317 0.00182838 -2.534e-21)
(-0.111218 -0.0217755 -7.16235e-20)
(1.22331 0.01041 0)
(1.22116 -0.164022 -8.81907e-23)
(-0.00168065 -0.0468721 0)
(1.12808 -0.00820795 2.99034e-20)
(1.00456 -0.0128051 1.72812e-22)
(1.04958 -0.00436662 1.656e-20)
(0.986337 -0.164905 0)
(1.0002 -0.000986332 -3.50794e-21)
(0.114359 0.028936 0)
(1.06225 -0.064282 4.346e-21)
(1.19518 0.0212294 0)
(-0.248396 -0.0123439 7.78034e-20)
(1.02458 -0.00296543 0)
(1.08358 -0.0728695 0)
(-0.258504 -0.0122059 0)
(0.974286 -0.164558 -5.89664e-21)
(0.658868 -0.302617 4.56662e-20)
(0.362785 0.0276681 1.63657e-19)
(1.04606 -0.0566786 1.0846e-20)
(1.27694 -0.0191443 -7.14233e-20)
(1.00048 -0.00684588 0)
(0.208421 0.0587029 -2.83092e-20)
(1.21025 -0.365761 0)
(0.963156 0.0524646 1.65396e-21)
(1.20875 -0.305315 0)
(-0.120438 -0.0267693 -3.98302e-20)
(-0.171237 -0.0065032 1.27827e-19)
(0.856981 -0.282195 0)
(1.24049 -0.0789868 -6.78636e-20)
(1.034 -0.00288579 0)
(1.14741 0.0762468 4.6142e-21)
(0.688758 -0.339669 -1.22307e-19)
(-0.0903826 -0.0414202 -1.21621e-19)
(0.942034 -0.0151271 -2.6198e-20)
(0.265955 -0.0460346 1.51333e-19)
(1.00345 -0.019718 -3.55097e-22)
(1.05314 -0.129714 -7.72687e-20)
(1.11124 -0.0610319 2.59069e-20)
(1.31467 -0.0866106 -8.36117e-20)
(1.03211 -0.0145714 0)
(1.05857 -0.0238045 -1.9508e-20)
(1.18721 -0.321501 -5.84165e-20)
(1.25771 -0.209932 0)
(0.977569 -0.0169059 0)
(1.1131 0.028921 4.99157e-20)
(1.05679 -0.0231854 -5.83559e-21)
(1.22036 -0.366988 2.98529e-20)
(-0.163937 -0.0190689 0)
(1.05494 -0.164137 1.7451e-20)
(-0.306202 -0.0132176 7.43864e-20)
(-0.164474 -0.027784 0)
(-0.075793 0.0199054 -7.47264e-21)
(1.00047 -0.00667522 -4.10071e-23)
(0.287232 0.059118 0)
(0.999791 -0.078397 -3.88727e-21)
(1.02146 -0.00380946 -4.35912e-21)
(1.27014 -0.110661 0)
(0.990405 -0.146594 0)
(0.95735 -0.0957519 -3.33912e-20)
(-0.119123 -0.0191746 0)
(1.12023 -0.0243992 -8.12676e-23)
(0.990886 -0.168537 4.32378e-21)
(0.863333 -0.0812716 3.51118e-20)
(0.996091 -0.0455889 7.65958e-21)
(1.02517 -0.00297952 -7.82507e-21)
(0.186463 0.0549765 3.62095e-20)
(1.06399 -0.11185 -1.13984e-19)
(1.02616 -0.0108542 4.17804e-21)
(1.0234 -0.00714634 6.39325e-21)
(1.25082 -0.00449381 -1.25998e-19)
(1.02353 -0.0156835 1.03908e-20)
(-0.135487 0.00129899 0)
(1.03243 -0.240491 -1.9042e-20)
(-0.101255 -0.0303104 -3.80251e-20)
(0.535639 0.0254305 0)
(1.03582 -0.0334812 0)
(1.11793 -0.176349 -1.58598e-20)
(0.250711 0.0577971 4.86916e-21)
(1.17403 0.0251861 0)
(0.9999 -0.00185283 -7.88854e-21)
(0.897948 -0.292045 -5.42955e-20)
(1.15958 -0.0395272 2.09638e-21)
(1.00183 -0.0405899 0)
(0.883692 -0.352238 1.69599e-21)
(-0.119261 -0.0170015 0)
(1.15371 -0.0561388 0)
(-0.0533385 -0.0306815 0)
(1.31713 -0.0226836 0)
(1.15051 -0.0584391 4.78468e-20)
(1.00097 -0.0136785 -4.08488e-22)
(0.609258 0.0758613 0)
(1.00124 -0.0141748 4.92222e-22)
(1.08571 -0.0758659 -4.52698e-22)
(1.16271 0.0834007 0)
(1.00049 -0.000352235 0)
(1.06175 -0.0233548 -1.40927e-20)
(1.27298 -0.116099 4.71451e-20)
(1.34729 -0.334718 0)
(-0.247075 -0.0117131 1.48856e-19)
(-0.100791 0.0125089 -1.10267e-19)
(0.861984 0.106788 0)
(1.00034 -0.00762733 0)
(-0.12241 0.0135747 -3.47718e-21)
(-0.227994 -0.0052285 -7.0647e-20)
(1.15736 0.00094965 2.90665e-20)
(-0.171046 -0.0158597 1.81721e-20)
(1.29951 0.0262578 4.505e-20)
(1.19058 0.0919837 0)
(1.19239 0.0924764 -3.39937e-21)
(1.17319 0.0235086 3.62859e-20)
(-0.150988 -0.010757 0)
(0.809853 -0.0589487 1.26635e-19)
(-0.186781 0.00437177 0)
(0.908173 -0.296505 3.89151e-20)
(1.13103 -0.0985864 0)
(0.894747 -0.408088 -7.48963e-21)
(1.19249 -0.313165 6.43642e-20)
(0.925182 -0.722524 4.5983e-20)
(1.06808 0.00414166 -2.40608e-22)
(1.13085 -0.256282 0)
(0.140243 0.0465082 0)
(0.880994 0.00277572 9.97254e-20)
(1.12033 -0.0474859 -1.74022e-21)
(0.0917413 0.0290814 -5.07583e-20)
(-0.204701 -0.0138083 -1.40979e-19)
(0.00396823 0.00785376 3.29529e-20)
(0.987484 -0.0455236 7.149e-21)
(1.34819 -0.277146 0)
(-0.171657 -0.00265764 0)
(0.237527 0.0581324 -3.81806e-20)
(-0.315407 -0.0106632 1.86234e-19)
(1.05588 -0.0346946 -1.25421e-20)
(1.10172 0.0269254 3.59494e-20)
(1.2993 -0.143819 1.03631e-19)
(-0.0171201 0.00562442 0)
(-0.000203615 0.00788434 0)
(1.13952 -0.0244462 -1.25352e-21)
(-0.166398 -0.00977791 -1.77842e-20)
(1.01433 -0.00155046 -8.38891e-21)
(0.794177 -0.611537 0)
(1.11504 0.0260169 0)
(1.04736 -0.108151 9.37731e-21)
(0.166515 -0.0415428 -7.32758e-20)
(1.03037 -0.0148178 -4.9e-21)
(-0.118946 0.00316944 0)
(1.13039 -0.0144605 -1.80935e-20)
(0.964803 -0.33125 0)
(0.917623 -0.10105 4.04026e-21)
(0.875981 -0.0860461 -1.01822e-21)
(-0.250302 -0.0141888 1.3435e-19)
(0.99907 -0.00791222 0)
(1.03472 -0.0353374 0)
(-0.180226 -0.0134372 -7.51001e-20)
(-0.279134 -0.00727977 7.94996e-20)
(1.12089 0.0107113 -1.64982e-20)
(1.0176 -0.0117876 0)
(0.993744 -0.136864 -9.85629e-22)
(-0.242961 -0.00457368 -8.29071e-20)
(1.18489 0.0387722 -2.49105e-20)
(-0.196799 0.000324006 -3.94508e-20)
(0.528672 0.0234314 0)
(1.12963 -0.0544123 5.6065e-20)
(0.999638 -0.00331659 -1.46945e-22)
(-0.0515989 -0.034978 0)
(0.881329 -0.420522 -4.43889e-21)
(-0.0885227 0.0126878 8.99727e-20)
(1.12526 -0.00858188 -5.67608e-23)
(0.854583 -0.0816803 0)
(1.17314 0.0512539 -2.27208e-20)
(1.00042 -0.0430077 -2.79511e-21)
(1.02859 -0.000571523 1.21585e-20)
(1.13758 -0.0257826 -1.75175e-20)
(1.23471 0.059255 0)
(0.635282 -0.299687 6.30244e-20)
(1.16616 0.0815268 -3.80407e-20)
(1.02113 -0.00150385 -1.33548e-21)
(-0.322832 -0.0118647 1.09922e-19)
(0.86005 0.106663 0)
(0.976312 -0.0273357 -6.12951e-21)
(1.01362 -0.0426821 0)
(0.899971 -0.104667 -5.56706e-21)
(1.00385 -0.0190305 -2.52217e-22)
(1.09113 0.0249018 6.27899e-22)
(1.28984 0.0233689 0)
(1.00227 -0.0278029 -7.98606e-22)
(1.00209 -0.0376783 -6.5364e-21)
(0.99944 -0.00725718 7.14792e-21)
(1.02826 -0.0518356 3.23836e-22)
(1.00121 -0.0202527 3.36687e-22)
(1.02903 -0.00278745 0)
(0.577151 0.00680833 7.03898e-20)
(1.14136 -0.167138 0)
(1.01501 -0.182824 1.3533e-21)
(-0.208395 -0.0123839 1.28661e-19)
(0.998807 -0.00836379 0)
(1.07734 0.0114642 -7.54196e-21)
(1.08789 -0.0362425 1.47584e-20)
(0.302352 -0.0704862 -3.57124e-21)
(0.140678 -0.24793 0)
(-0.0531162 0.0155837 -1.21384e-20)
(1.08143 -0.119443 0)
(0.999605 -0.00698568 -7.04338e-21)
(-0.172294 -0.017029 -7.9563e-20)
(1.01707 -0.0532275 -3.78108e-21)
(0.0733813 0.0300634 7.25027e-22)
(1.10869 -0.0589246 -2.41721e-20)
(1.20135 -0.169045 -4.28602e-21)
(1.32221 -0.0997349 -6.0469e-20)
(-0.204189 0.00285901 -5.33671e-20)
(0.992541 -0.0404296 0)
(1.0405 0.0025928 -7.31507e-23)
(1.06065 0.0168893 -4.80726e-20)
(0.269088 0.0626833 -3.66419e-20)
(1.12423 -0.020421 0)
(1.01837 -0.166015 0)
(1.03453 -0.00317072 2.25992e-20)
(1.27468 -0.0119525 1.3977e-19)
(1.1134 0.0303377 -4.23929e-20)
(1.12626 -0.0192435 1.11387e-21)
(0.97741 -0.0884313 -1.64241e-20)
(1.02921 -0.00216183 -9.0135e-21)
(-0.211479 0.00147154 9.93969e-20)
(1.08594 -0.132014 -2.412e-20)
(1.02311 -0.00631732 0)
(0.34656 0.696961 9.64509e-20)
(-0.183258 -0.0146307 1.14059e-19)
(-0.211575 -0.00793971 1.42877e-19)
(-0.326381 -0.0109706 -2.72442e-19)
(1.14204 0.0774396 0)
(1.02664 -0.00338782 1.78837e-20)
(-0.236165 -0.00858335 0)
(1.2571 -0.000981562 -5.5871e-20)
(1.32848 -0.341306 4.22357e-20)
(1.11981 -0.0956877 -4.24964e-24)
(0.86789 -0.0874144 6.41508e-20)
(1.17603 0.0510428 5.76675e-21)
(1.0157 -0.160043 -6.4156e-22)
(-0.166203 -0.0167844 6.50019e-20)
(1.32389 -0.0484381 1.03148e-19)
(1.01011 -0.00348096 1.79604e-21)
(1.20373 -0.025164 6.43486e-21)
(1.17026 0.0545126 -4.20449e-20)
(1.0037 -0.0495846 6.14414e-22)
(0.0419626 -0.0961262 4.76064e-22)
(1.07941 -0.00304886 -1.50703e-20)
(0.960708 -0.0858703 1.40163e-20)
(0.107823 0.00951831 -4.62211e-20)
(0.458048 0.0779617 0)
(0.997611 -0.0457502 0)
(0.0565032 0.0290684 0)
(-0.0897019 -0.0290853 0)
(1.00411 -0.01565 2.95633e-22)
(0.999513 -0.0713599 0)
(1.21998 0.0614977 0)
(0.437168 0.620821 -4.55828e-20)
(0.665451 -0.333701 4.94258e-20)
(1.02517 -0.0098367 7.10369e-21)
(1.1803 -0.0392596 0)
(1.16201 -0.0492448 0)
(0.435213 0.0793387 6.62166e-20)
(-0.10183 0.0153041 0)
(-0.110263 -0.0221995 6.04303e-21)
(0.721117 -0.16733 -7.93074e-20)
(1.05431 -0.0352031 0)
(-0.15506 -0.0209977 0)
(1.09139 -0.0295783 3.15908e-20)
(0.757077 -0.00360612 -9.17647e-20)
(1.06645 -0.0637958 -1.40811e-21)
(0.410093 0.0757763 -5.33745e-20)
(0.502624 0.515864 5.83826e-20)
(1.06432 -0.062842 -4.7865e-21)
(1.00552 -0.00101091 5.1747e-21)
(1.12861 -0.0126533 3.47466e-20)
(0.270229 -0.0440804 -7.29224e-20)
(0.369118 -0.156258 0)
(0.998367 -0.0438739 -3.69767e-21)
(0.984223 -0.0254002 5.2199e-21)
(-0.125282 -0.0121186 6.39662e-20)
(1.02252 -0.0309378 8.44544e-22)
(0.381602 0.186913 0)
(1.03047 -0.554985 0)
(1.0239 -0.00863179 1.33831e-20)
(1.0209 -0.0337075 -2.01871e-22)
(0.186135 0.0509907 0)
(1.1175 -0.0460729 -2.46335e-20)
(0.156702 0.024077 0)
(0.519382 -0.679502 1.77465e-19)
(1.00181 -0.0570716 -3.40633e-21)
(1.07438 -0.0848591 2.60416e-20)
(1.15213 0.0890663 0)
(1.09279 -0.0523665 -3.29713e-20)
(1.20052 -0.00695389 -8.65089e-22)
(1.15005 0.0884934 0)
(0.824927 -0.099027 -1.32461e-20)
(1.00249 -0.0269278 0)
(1.02406 -0.00931129 -7.24625e-21)
(-0.0703646 0.0214305 0)
(1.1174 -0.0923678 4.14681e-24)
(1.00103 -0.0192152 2.58319e-21)
(-0.0860762 0.0199738 -2.25948e-20)
(-0.179275 -0.0222246 0)
(1.03542 -0.0452669 0)
(0.540365 -0.542904 7.2067e-20)
(1.02391 -0.0282806 -6.94323e-21)
(1.07665 -0.0839872 4.82272e-21)
(0.990286 -0.0448963 1.06521e-20)
(-0.209005 -0.000149228 -7.44097e-20)
(-0.142881 -0.0145745 -1.27475e-19)
(0.973433 -0.0262553 -8.71873e-21)
(1.03616 -0.0664433 0)
(0.0885547 -0.0042834 0)
(1.10277 -0.00154198 2.47911e-20)
(1.21523 -0.156449 1.74631e-20)
(1.07892 -0.00926386 4.57047e-20)
(1.0601 -0.234022 -2.20117e-20)
(0.981627 -0.0316473 -1.90083e-20)
(1.10114 -0.158351 -7.36746e-23)
(0.996466 -0.0418518 1.86519e-21)
(1.33495 -0.074538 -9.90254e-20)
(-0.167064 -0.00178092 -7.21358e-20)
(1.07167 -0.0497461 5.83388e-21)
(1.14781 -0.0638021 1.20418e-20)
(-0.0696896 0.0209507 -8.49482e-20)
(1.08086 -0.0733974 1.7829e-20)