/*--------------------------------*- C++ -*----------------------------------*\
| =========                 |                                                 |
| \\      /  F ield         | OpenFOAM: The Open Source CFD Toolbox           |
|  \\    /   O peration     | Version:  v2012                                 |
|   \\  /    A nd           | Website:  www.openfoam.com                      |
|    \\/     M anipulation  |                                                 |
\*---------------------------------------------------------------------------*/
FoamFile
{
    version     2.0;
    format      ascii;
    class       volScalarField;
    location    "100";
    object      ddt0(k);
}
// * * * * * * * * * * * * * * * * * * * * * * * * * * * * * * * * * * * * * //

dimensions      [0 2 -3 0 0 0 0];


internalField   nonuniform List<scalar> 
14804
(
4.91812e-05
1.53686e-09
-3.77183e-08
2.8745e-08
3.09711e-08
8.00995e-08
8.87721e-09
-2.82e-10
1.41695e-07
5.06792e-12
7.18725e-05
-2.03858e-07
-5.9632e-10
3.45883e-08
-2.51171e-07
2.53541e-05
3.17722e-08
2.61579e-08
2.3355e-06
4.09107e-08
-1.7104e-10
7.39074e-09
3.20036e-07
9.13103e-09
5.10583e-05
8.98436e-09
3.71214e-08
3.16341e-08
5.80206e-05
1.16174e-08
1.4644e-08
-2.08443e-07
4.04796e-08
2.88752e-08
6.09331e-08
8.87307e-09
-5.38157e-07
3.38428e-11
-0.000493127
4.10698e-08
8.75715e-08
4.69112e-08
4.80289e-06
1.82062e-09
3.12052e-08
8.69181e-10
-0.000258122
1.59341e-09
7.53148e-09
7.69487e-05
-4.01329e-10
1.1177e-08
2.99456e-10
2.01493e-08
-2.20108e-05
8.87818e-05
0.000115187
5.48929e-05
-8.7395e-10
6.83486e-10
1.85479e-05
-3.56449e-10
2.30732e-09
9.97439e-05
2.16785e-09
2.961e-10
2.22638e-10
7.93289e-09
8.00377e-11
3.33099e-05
1.59912e-08
3.58787e-08
-5.95885e-05
7.03205e-05
1.54769e-08
3.25141e-05
-2.40388e-05
1.4903e-09
-6.53075e-07
5.2387e-09
-2.61361e-05
2.75622e-10
5.3773e-09
1.54716e-08
1.80045e-11
-7.3624e-07
1.75785e-09
1.74507e-08
1.50532e-09
3.13607e-08
2.34607e-08
4.541e-09
6.07972e-08
1.59073e-08
0.000109099
-2.82552e-05
5.40618e-05
2.10671e-07
6.9228e-09
0.000524755
5.24772e-05
4.91094e-05
1.22458e-11
3.72412e-08
4.94748e-07
3.43203e-05
-2.61403e-07
-4.85827e-06
-5.25196e-10
1.50387e-08
4.15452e-10
5.14364e-05
5.98487e-08
-2.29516e-06
5.0129e-05
-1.93065e-05
2.97146e-06
2.59906e-08
1.57977e-11
2.66767e-08
-3.77753e-05
1.44801e-09
1.10085e-08
3.3066e-08
-7.46974e-10
2.69764e-11
-8.37708e-07
3.62043e-08
8.87734e-08
2.78102e-08
2.72574e-08
-1.37214e-06
8.20401e-05
8.4054e-05
0.000285058
3.38218e-08
1.77861e-09
-0.0074393
1.14082e-08
2.47185e-08
9.54358e-10
-3.10054e-05
1.94071e-08
-1.77197e-05
3.29807e-05
1.20633e-10
1.48337e-06
-4.87795e-10
2.6697e-05
7.79736e-06
3.44249e-08
2.5394e-07
4.18037e-08
3.72367e-08
5.21382e-09
5.02063e-05
3.57575e-08
-0.000253326
2.43589e-05
6.16216e-05
7.00485e-10
2.70725e-10
8.36865e-05
9.081e-06
1.84991e-08
4.97015e-05
1.58455e-09
2.36116e-05
1.15428e-08
-2.31292e-10
-9.86219e-05
6.17366e-09
1.93893e-08
-4.11419e-07
0.000305909
0.000144906
2.31436e-07
3.54691e-08
2.78595e-09
-5.43823e-05
8.76588e-08
9.0986e-05
8.97106e-09
-3.74685e-08
4.45951e-09
4.68238e-05
-1.18858e-08
-2.13686e-07
1.93712e-08
4.15922e-09
3.15008e-06
-0.000434281
5.71926e-09
0.0125843
-1.46299e-05
2.44301e-09
6.55702e-05
-1.8798e-10
-5.90501e-08
2.3306e-05
3.39694e-05
4.16627e-09
1.40102e-08
4.47621e-08
-1.60645e-09
2.52424e-05
3.49536e-08
-0.000479466
2.84881e-08
8.53162e-09
1.15605e-08
1.46888e-05
8.04017e-09
6.55066e-10
4.60182e-09
1.15275e-08
3.67921e-08
3.5184e-09
-8.50794e-11
1.99192e-09
1.76213e-08
-4.62556e-08
-7.33284e-08
5.4774e-09
1.14213e-08
0.00132442
4.05956e-08
5.57342e-05
9.17678e-05
7.52923e-09
1.54389e-08
1.37383e-08
-5.12389e-11
3.03766e-05
5.85008e-05
1.92031e-11
1.15637e-09
-3.6505e-07
-2.91982e-07
1.26826e-08
-1.59084e-05
2.83854e-06
6.71746e-09
1.82771e-09
7.29477e-09
-2.01266e-06
2.02001e-08
1.81747e-08
2.88672e-07
1.53848e-08
-0.000835524
2.21059e-09
4.72554e-10
1.41212e-09
8.21324e-05
-1.35849e-09
3.73216e-09
1.57457e-08
1.61169e-08
1.86854e-10
-6.79564e-07
1.95252e-08
2.25051e-07
-3.07766e-10
0.00111711
1.08123e-08
3.43085e-08
6.72021e-09
3.28927e-05
2.03813e-05
5.02585e-05
3.36492e-05
1.23254e-11
-5.45657e-10
-5.37417e-05
-1.68586e-06
1.69574e-08
2.37538e-05
-4.43577e-07
3.22837e-05
3.60182e-07
6.4432e-10
2.98693e-05
1.70286e-05
1.68068e-05
-0.000840178
-2.07425e-06
1.75273e-08
3.42669e-08
1.61793e-06
3.3605e-09
1.04374e-08
7.76435e-09
1.54944e-08
6.45032e-08
0.000855306
-1.43914e-06
1.48179e-07
3.5427e-09
-4.97633e-09
4.38137e-09
1.23796e-09
-5.21778e-08
4.15286e-08
-7.60711e-07
8.73782e-09
0.00351878
6.07932e-05
-8.64374e-07
-1.46331e-05
2.90176e-05
1.5572e-08
3.98144e-09
1.19754e-08
9.16275e-05
4.39447e-09
-6.61745e-05
8.68335e-07
4.03372e-09
-7.63291e-05
2.63081e-06
1.67169e-05
3.55743e-05
2.50036e-05
1.53263e-08
4.05685e-08
-4.64651e-06
-4.29199e-10
-0.00480549
2.73599e-05
3.69942e-08
3.54263e-08
-2.287e-07
3.49089e-09
1.75546e-10
1.39794e-08
1.15286e-09
-2.12036e-05
1.42975e-09
-7.46818e-08
6.35336e-09
1.2602e-08
2.07493e-08
-4.26231e-10
1.54132e-08
5.75305e-05
1.74012e-05
4.17353e-05
2.27846e-08
3.1755e-05
3.20278e-05
1.56753e-08
2.60101e-10
6.37512e-09
1.49649e-09
3.15211e-06
6.20291e-09
4.74242e-06
7.76753e-09
5.04179e-10
1.50585e-09
-3.40904e-07
1.162e-07
1.78644e-07
0.00011963
4.73059e-05
1.66001e-08
2.31579e-08
5.2191e-08
1.73639e-09
1.03876e-08
-3.89733e-10
-1.97288e-08
1.16133e-08
1.31458e-09
-9.45993e-05
7.02824e-09
2.48183e-09
8.63423e-05
0.000251459
0.00527001
2.54294e-08
3.40697e-08
3.09002e-05
2.05588e-08
2.04584e-09
-2.89185e-05
9.08753e-10
1.77092e-10
2.22433e-05
7.52137e-09
1.1028e-08
1.63076e-09
1.9818e-08
-1.95012e-05
1.07264e-08
-0.000130699
3.4877e-08
0.000327065
-2.2664e-11
-2.54876e-07
7.84442e-10
-2.94862e-06
0.00164783
1.75039e-08
6.9919e-10
7.73191e-06
-4.92203e-11
3.98069e-08
3.08954e-11
1.07372e-08
7.60633e-08
-0.00671005
1.35017e-11
1.53673e-08
-0.000851831
-2.21868e-10
2.50985e-08
8.80071e-09
4.99895e-05
-8.20718e-06
1.80362e-08
1.20234e-08
-2.04936e-05
6.75549e-10
3.79833e-08
9.57479e-05
-2.61766e-07
2.63433e-08
1.37214e-08
1.17581e-08
1.71383e-08
0.000362469
2.10532e-10
8.43794e-09
-2.06361e-10
4.11365e-09
6.63102e-05
3.22682e-09
1.66228e-09
4.15222e-08
1.56968e-05
8.55266e-09
1.08451e-08
2.91058e-09
2.42529e-08
-1.00515e-05
-0.0026093
1.79683e-06
1.10931e-08
3.80526e-05
1.0271e-08
1.44817e-08
4.02316e-11
1.92834e-08
3.18357e-09
3.6982e-08
-0.0026527
1.64135e-08
4.56387e-11
0.0161511
2.88574e-09
7.22298e-05
-1.4484e-05
3.44142e-08
0.0149008
2.54312e-08
8.14144e-05
2.79404e-08
-8.48065e-11
2.17245e-11
6.22796e-09
7.28037e-09
7.66455e-09
-4.72087e-06
2.86702e-08
-2.50274e-10
2.29832e-08
2.87171e-05
7.04116e-05
3.60212e-08
2.43352e-08
1.13342e-08
2.08973e-08
1.53991e-08
-1.16069e-09
-1.5266e-05
5.61365e-10
8.70497e-09
1.99886e-08
3.02008e-09
1.44649e-05
2.26346e-08
7.4514e-09
1.37005e-08
-5.89255e-12
-2.88314e-10
2.41419e-05
3.50943e-08
3.16083e-09
7.68097e-08
1.62981e-09
9.26393e-10
9.65444e-08
0.000119744
2.11901e-11
6.7099e-10
1.70664e-09
1.17484e-08
2.56173e-05
2.27452e-10
1.23232e-10
0.0141551
4.97945e-09
5.48113e-09
-7.1704e-05
9.6464e-11
0.00222403
4.67052e-09
-7.32368e-06
1.69177e-05
8.26714e-06
-7.50793e-11
1.22922e-10
3.40475e-08
1.78603e-08
4.30287e-09
3.61181e-09
2.84475e-09
1.44346e-08
1.34424e-08
1.97316e-08
3.24986e-08
1.52176e-08
-2.98603e-05
1.30032e-07
-5.50019e-05
6.74182e-09
4.8963e-09
2.52143e-08
3.16039e-10
2.70769e-08
3.03853e-06
-1.27345e-08
1.23496e-06
3.71212e-05
3.15548e-10
0.000161751
6.34462e-08
1.6141e-08
1.34426e-09
3.39146e-05
0.000183569
4.97686e-09
6.8879e-10
1.06548e-09
-7.06523e-06
-5.34709e-08
-3.87807e-05
-3.37245e-05
6.61203e-10
5.0421e-08
2.26885e-06
0.000453591
3.72016e-08
2.33671e-08
1.72007e-08
1.30498e-08
1.31486e-06
0.000113138
2.45499e-08
-1.90445e-05
4.19557e-09
9.76897e-10
1.48529e-08
1.8322e-08
1.59668e-09
-2.98898e-06
1.86418e-10
3.08138e-06
3.4535e-05
1.48793e-08
1.52125e-06
1.30845e-08
2.19505e-09
4.11756e-05
1.59618e-08
4.45345e-06
1.3925e-09
1.47807e-08
4.29161e-09
2.06939e-12
3.7769e-08
2.51601e-08
3.40913e-06
-3.66416e-05
8.73782e-12
1.27892e-08
2.32921e-08
1.00865e-07
-2.76363e-07
8.88429e-09
1.45149e-08
-5.24079e-05
5.34931e-09
0.000222547
7.25e-09
-0.000121718
1.68889e-05
1.60531e-09
2.16203e-09
-1.42432e-07
-6.92797e-11
4.46045e-09
2.11994e-08
1.19382e-08
1.98192e-05
-5.773e-08
-0.000545318
3.10056e-09
-7.10528e-05
0.00678458
-5.71116e-08
1.12751e-09
2.9767e-05
5.89282e-09
4.8638e-06
4.23091e-11
1.48971e-11
1.05041e-05
-2.05155e-07
-0.000102036
4.52513e-08
8.23803e-09
8.0324e-09
9.07902e-05
1.41296e-09
0.00177464
-0.000628173
2.44489e-08
1.60147e-09
1.07788e-09
3.53348e-08
1.81112e-08
3.68616e-11
-1.95099e-08
-1.80578e-06
3.28831e-08
-1.17476e-09
4.62894e-08
0.000108275
0.000101989
1.40139e-09
1.01048e-07
5.25212e-09
1.10852e-08
1.19876e-08
2.65128e-05
-1.6895e-07
3.20751e-05
-7.50951e-09
-1.72956e-06
1.01922e-06
7.21299e-09
0.000120606
0.00559349
8.55715e-10
2.83309e-08
-2.18126e-07
2.09374e-08
2.10549e-07
1.10935e-08
6.16574e-09
-0.000917759
1.70346e-09
3.06501e-08
1.01815e-09
9.21251e-09
5.65271e-05
3.89769e-05
-2.78345e-07
-1.24781e-10
3.09571e-09
4.5947e-09
5.76601e-09
-1.75171e-07
9.67429e-06
2.56014e-08
-3.97818e-06
5.46944e-06
-4.51497e-08
7.14481e-09
2.50362e-05
5.44252e-09
4.72307e-05
8.69813e-09
4.87466e-10
5.88451e-10
2.73257e-08
2.46304e-07
1.54808e-09
-2.68935e-09
2.88822e-08
-9.00988e-08
7.50641e-09
1.38135e-06
5.41169e-09
-1.77995e-07
4.21782e-08
3.59028e-08
3.79316e-08
2.24617e-11
1.22458e-09
-6.32546e-06
7.42399e-05
3.66036e-09
-2.68089e-07
-1.30648e-10
4.03921e-09
-1.10197e-09
6.0555e-09
-3.45505e-06
6.90715e-09
6.15108e-08
1.42215e-08
1.19439e-08
1.15392e-09
3.23381e-08
1.59749e-08
1.59237e-09
-6.19328e-10
-2.06071e-08
3.16738e-08
0.00733719
8.49519e-06
7.68645e-10
7.86423e-10
5.77075e-10
5.34119e-05
-1.21018e-08
-1.47369e-08
3.63804e-05
8.03118e-09
2.23247e-08
5.00806e-05
4.93636e-09
1.26342e-09
2.04877e-10
1.42384e-08
1.09667e-07
1.03718e-08
3.29302e-09
0.000179855
5.8502e-07
4.18941e-09
1.5852e-08
5.08102e-05
-6.28918e-06
4.08272e-08
9.40628e-09
2.47186e-08
5.65383e-05
-3.01608e-07
9.55985e-05
-0.000351934
7.84607e-08
8.34301e-06
5.50574e-09
1.37246e-08
-1.91037e-05
1.5187e-09
-0.000270821
1.30896e-08
2.50109e-12
4.54248e-05
3.44826e-08
-1.58564e-06
2.25983e-05
1.67692e-07
2.8895e-09
5.21345e-05
1.39656e-09
3.61827e-09
1.86215e-08
1.12786e-08
7.47472e-10
-1.47557e-05
0.000127066
3.77967e-08
1.98134e-06
8.26996e-09
2.09397e-05
0.024627
1.28256e-08
6.85519e-05
1.32638e-08
1.20226e-09
5.76256e-09
-7.66327e-11
7.06683e-10
9.585e-06
2.78823e-08
-2.66859e-05
-1.07145e-05
1.38174e-08
5.65408e-08
1.77565e-08
1.52762e-08
9.00645e-09
2.74653e-05
1.81321e-05
1.12275e-08
-7.78455e-08
6.06709e-09
7.87974e-10
3.34638e-08
2.01227e-08
0.000114808
-1.09843e-06
7.3629e-05
-2.75836e-06
6.85654e-09
-3.52277e-08
1.51269e-10
-0.00673704
1.10298e-07
1.48916e-08
2.56734e-08
1.51711e-05
1.36799e-09
-1.24319e-08
8.42245e-09
6.18534e-06
-2.72245e-08
2.65263e-09
6.46212e-09
1.47935e-08
5.08472e-09
8.86349e-09
0.00259034
6.48999e-09
1.47227e-08
2.88297e-08
2.27857e-09
3.43231e-06
3.72747e-08
3.34672e-10
3.51572e-09
5.18672e-10
1.18245e-06
4.17783e-09
4.47779e-10
8.69971e-07
-0.00404507
4.73613e-10
7.58479e-09
3.52356e-08
1.46362e-05
3.5896e-10
1.54976e-08
1.19189e-08
4.69377e-07
3.41741e-09
-1.35225e-05
3.4913e-08
3.71334e-08
9.55943e-05
-0.000321642
1.46083e-08
-0.000267446
3.66974e-09
5.48658e-05
2.68391e-08
2.38921e-08
-4.86117e-11
5.70591e-10
2.62904e-05
-1.22239e-10
3.82157e-05
7.4591e-10
1.63285e-08
2.09187e-05
4.87864e-05
4.25826e-07
2.66337e-10
1.88653e-05
-2.04764e-13
6.49963e-09
2.84727e-08
0.00193879
5.86797e-10
1.11608e-05
3.9113e-08
2.8716e-09
2.79694e-08
1.94946e-11
5.18943e-09
8.4984e-10
1.07341e-08
4.33002e-10
2.04788e-07
1.03101e-10
3.33279e-08
1.75534e-08
0.00352093
5.48021e-11
-0.000471145
6.11218e-09
1.10149e-06
3.39418e-08
-1.09224e-06
3.63074e-08
2.2202e-07
2.00378e-08
2.49302e-08
-1.84589e-09
2.69096e-08
4.86099e-08
-6.65999e-09
6.38313e-09
3.72301e-09
-5.20212e-05
-9.85555e-08
2.99679e-08
1.2832e-08
1.00757e-09
-1.17777e-07
-8.47318e-09
5.73707e-05
4.21241e-05
4.242e-07
1.3012e-08
-3.40288e-05
7.15098e-09
8.34756e-12
4.39746e-06
2.63795e-08
-1.60514e-05
1.43628e-08
-1.68276e-10
1.43049e-08
2.70668e-07
5.48644e-09
2.83916e-05
2.04464e-08
2.61388e-08
7.17682e-09
1.9634e-06
4.41069e-11
-0.00918924
1.49816e-08
1.04157e-08
-1.03237e-07
1.06131e-07
-1.06923e-06
-8.3863e-06
-3.57001e-07
3.09426e-05
-2.7061e-08
-2.17079e-07
3.26995e-05
3.68955e-08
-6.23168e-06
-2.39147e-10
8.3186e-09
2.75208e-07
3.96883e-05
6.34201e-08
2.05482e-08
3.61782e-09
-5.78894e-07
1.14513e-08
0.000148919
1.73045e-05
1.79979e-09
3.51415e-10
1.33124e-09
8.16822e-09
-0.0103569
2.82527e-09
2.17867e-05
-7.71388e-05
9.58612e-05
3.27692e-08
1.44149e-08
-5.46761e-10
-0.00228934
4.2805e-09
0.0104358
-1.62207e-08
3.32293e-08
4.17408e-10
2.4084e-10
5.92554e-08
3.97948e-08
-0.00315428
3.20646e-05
-6.22088e-08
4.86481e-09
4.19217e-11
1.34686e-09
2.28904e-05
1.26014e-07
-0.0331465
6.06117e-11
3.11129e-05
5.91008e-07
-1.36375e-07
7.5011e-09
1.30511e-08
5.28705e-09
1.23773e-08
-1.51944e-06
2.5183e-08
6.09431e-09
-1.34537e-07
0.000202075
2.7373e-08
1.88756e-08
7.35876e-09
1.45873e-09
-0.00025387
7.06727e-09
3.69095e-08
3.22423e-09
4.1573e-08
4.05407e-08
1.48985e-09
-1.6556e-05
8.91035e-09
2.13762e-05
3.7554e-09
-4.72156e-10
6.12907e-09
4.97994e-05
0.000124115
9.87084e-09
7.06502e-08
2.25695e-07
-2.69091e-10
1.31205e-08
3.94942e-09
-4.78005e-05
1.98995e-05
7.08331e-07
0.0001014
-2.79072e-10
1.75507e-08
-4.70842e-07
1.43994e-08
1.47327e-08
-0.000199568
3.21591e-09
1.03478e-08
-2.40199e-06
1.50893e-07
-5.81437e-05
1.34845e-08
-1.22869e-06
1.73744e-08
0.000313753
7.7996e-05
4.33504e-09
1.07448e-08
7.65503e-05
-6.85298e-07
2.12012e-08
2.35e-08
5.07584e-05
4.79636e-05
-1.47169e-10
-4.31387e-08
4.36226e-09
4.83165e-10
-0.00139403
3.43296e-10
3.62439e-08
1.71744e-08
1.80148e-06
1.34346e-11
2.111e-10
6.195e-09
1.56e-07
5.58174e-09
-5.84669e-06
-4.88236e-05
5.49783e-07
-0.000631911
6.19302e-09
6.19847e-09
1.01384e-08
2.92724e-10
-6.81223e-08
1.94596e-08
-1.82111e-05
2.36238e-08
5.63341e-10
2.34781e-08
8.76957e-09
1.3846e-08
1.27726e-08
1.98967e-05
5.22078e-05
0.00010487
1.44961e-09
3.84879e-08
3.31896e-05
3.23389e-10
2.74866e-09
1.29842e-08
4.5407e-06
6.29053e-05
1.19788e-08
2.79615e-08
4.16181e-08
5.61273e-09
1.75531e-08
4.55989e-09
2.57115e-07
1.43728e-07
3.82434e-08
-2.29104e-05
0.00811386
-4.63024e-11
2.29882e-10
2.66298e-08
6.47097e-10
2.43463e-08
1.76065e-08
2.55263e-08
-9.52477e-10
2.39419e-05
-1.22562e-05
9.33361e-09
2.97736e-10
1.12066e-08
8.6819e-09
5.75383e-08
2.43285e-09
-8.76472e-10
1.44584e-08
-5.2238e-07
3.15899e-10
1.70485e-06
-6.37197e-10
5.34189e-11
-9.41018e-05
2.58186e-08
3.06055e-11
-2.65587e-08
1.70146e-05
0.000289454
6.90148e-10
3.43661e-05
4.84684e-09
1.67518e-09
1.11801e-08
2.28996e-08
7.93726e-09
3.60763e-08
3.59383e-08
6.49145e-09
-1.504e-09
6.17516e-09
5.87708e-05
9.67968e-08
3.13222e-05
-0.00237311
1.05511e-09
4.328e-05
-1.54362e-08
8.84558e-09
2.11679e-08
1.16589e-07
2.53666e-05
1.55155e-08
-2.07874e-07
0.00021845
0.000218135
-2.60154e-08
3.49606e-09
3.216e-08
1.74079e-08
1.04585e-08
7.33027e-09
-6.04536e-08
5.27076e-11
2.43197e-09
3.46481e-10
8.35046e-06
2.96673e-05
4.91352e-05
1.15104e-05
3.35711e-08
1.74339e-09
9.12428e-05
-3.00076e-05
1.31382e-07
4.20515e-09
1.52307e-08
3.37984e-10
2.21686e-08
2.462e-08
1.67515e-07
1.09733e-08
4.28758e-09
-1.72982e-05
1.48236e-08
1.49635e-08
-2.43706e-08
-2.38346e-07
2.42368e-11
1.65575e-05
1.26935e-08
5.17641e-05
2.26719e-09
2.9213e-05
-2.99977e-06
4.66822e-07
3.8538e-08
4.31876e-09
1.45414e-08
1.71475e-10
1.34929e-09
7.40557e-09
0.00285783
1.05527e-05
1.10983e-08
-1.96169e-06
1.28297e-07
1.86155e-08
3.0922e-09
-0.00661016
2.30604e-08
-0.00189851
2.60113e-05
4.45811e-05
-1.13914e-07
2.04645e-10
1.07632e-08
6.84277e-05
9.1174e-09
1.7424e-09
2.59106e-08
7.94542e-07
5.86594e-09
4.90436e-11
6.51346e-07
8.18715e-07
-1.14537e-06
7.30402e-05
0.000117584
9.88852e-09
1.18284e-08
-2.9532e-06
5.86636e-09
4.69688e-09
2.38825e-09
2.34601e-05
-9.95937e-07
1.49088e-08
2.5676e-08
2.61542e-05
1.09534e-10
3.93956e-08
1.79754e-05
5.56608e-11
7.17375e-09
1.85835e-07
-1.43073e-07
2.74432e-08
3.26962e-05
1.24538e-07
1.45692e-09
1.01262e-08
3.48166e-09
7.16506e-05
1.99452e-09
7.49768e-05
1.87498e-09
6.9277e-05
1.06794e-09
1.5291e-08
3.29946e-09
-8.64344e-09
-2.85066e-06
7.2382e-05
-0.000160152
4.17146e-08
5.32438e-10
3.32239e-08
-1.33408e-09
1.11579e-08
-1.90523e-05
4.99815e-09
-2.01807e-08
1.41339e-08
3.8415e-09
1.42344e-08
9.10408e-05
2.41833e-07
6.64599e-11
1.1772e-08
1.65868e-07
-1.10977e-09
-1.41594e-06
-0.000184717
4.4836e-05
-0.00222125
1.53532e-08
4.92341e-08
2.20405e-09
3.09052e-05
2.39808e-08
1.25314e-08
8.01281e-05
2.30304e-08
8.57841e-05
4.11243e-10
1.22587e-07
3.33751e-08
1.49154e-13
3.02607e-05
2.20662e-05
2.77966e-08
-2.55103e-05
0.000899541
7.77993e-05
2.74139e-08
0.00033232
1.59464e-10
-1.09875e-09
-5.17041e-07
5.34969e-05
3.60325e-08
2.79727e-11
7.64501e-09
2.74843e-11
5.34308e-10
1.83229e-10
0.000105497
8.7545e-05
5.25593e-10
-2.50699e-06
3.41036e-10
3.27846e-08
0.000111534
4.11401e-05
7.95277e-09
4.3543e-09
5.62383e-08
3.28862e-05
1.41621e-08
-0.0019939
9.55117e-09
4.50507e-09
2.44649e-08
6.43742e-09
-0.00165915
8.29398e-09
0.000127512
3.21781e-05
8.20264e-09
2.07856e-08
5.01054e-09
7.31851e-09
3.17399e-10
1.9073e-09
3.51315e-05
0.000107607
3.16962e-10
-1.92266e-07
2.86245e-09
1.93046e-05
2.29694e-06
1.51935e-08
6.36201e-09
5.20073e-05
0.000108845
-1.58119e-05
1.48795e-09
2.51956e-09
3.92417e-05
5.74015e-05
1.8937e-08
-1.89137e-08
-9.49246e-05
-2.00498e-07
1.49126e-08
1.41843e-05
2.05984e-07
-1.93872e-05
-0.00062591
-1.80427e-09
-2.51157e-10
1.41691e-08
0.000108349
1.5111e-08
3.33448e-09
-1.66208e-05
-1.40129e-11
6.00093e-10
8.77588e-11
3.12898e-07
6.68797e-11
1.34649e-05
-1.45443e-10
-1.41648e-07
2.2006e-08
2.33881e-08
7.00592e-09
-1.23697e-07
1.81108e-08
-1.19602e-06
3.10387e-05
0.0082421
5.71833e-09
1.30492e-05
1.74366e-08
4.10296e-07
1.6403e-08
9.84374e-08
1.38801e-11
1.82171e-08
1.76605e-09
3.22321e-05
-1.65785e-05
7.88924e-10
1.61102e-09
1.157e-08
2.39346e-07
8.82054e-09
2.59989e-08
0.000113962
8.1822e-10
3.39083e-08
1.94296e-05
0.00632576
2.5187e-08
0.000651424
3.63887e-11
3.58986e-09
-5.88629e-10
4.09056e-08
3.71108e-10
4.33057e-10
6.31302e-09
-4.40859e-11
4.60667e-09
3.11863e-05
5.20459e-09
5.03176e-05
-2.50888e-05
7.67975e-10
-4.25469e-07
7.47196e-09
1.33717e-08
2.0024e-05
0.000829191
0.000128054
1.37293e-09
3.30349e-08
7.01104e-09
8.81282e-09
1.58043e-05
2.24639e-08
-3.87877e-06
4.85141e-09
1.2958e-08
2.50571e-10
2.00071e-08
-7.33857e-05
2.49299e-07
1.18369e-08
4.36133e-12
1.49944e-08
-0.0117287
2.44163e-07
1.01534e-09
0.00107921
-0.0111435
0.00154207
-3.75521e-08
-2.14255e-08
2.1262e-07
1.20841e-08
1.52176e-08
4.94413e-11
1.43319e-08
-0.0240855
0.00011464
-2.13231e-07
2.01427e-08
-2.62617e-06
1.71469e-05
2.60595e-08
5.41645e-11
3.08277e-10
3.33131e-05
2.75387e-08
3.69481e-08
2.17375e-08
2.65881e-09
1.71103e-08
1.94833e-08
1.51043e-08
8.37885e-10
-3.83935e-05
2.79048e-05
8.44356e-09
-4.71117e-07
6.65936e-10
3.93206e-09
4.67853e-09
3.49523e-05
4.36216e-10
-9.22201e-07
2.25031e-08
-1.66609e-11
1.05762e-08
3.43561e-10
7.35201e-05
-6.97869e-10
-1.09675e-07
4.54556e-05
-3.63102e-05
6.61844e-09
1.35858e-08
5.42413e-10
9.40717e-09
2.00933e-09
2.24095e-09
-4.80413e-10
1.49079e-07
9.89364e-09
-0.000831984
5.61241e-09
3.60172e-10
6.76602e-09
4.6747e-08
2.8483e-08
1.33848e-08
1.73567e-08
2.59059e-08
4.31734e-09
3.81679e-09
4.07412e-08
1.52999e-08
0.000310392
2.47303e-11
3.77929e-08
0.000117299
-4.56324e-06
3.42872e-09
-1.06238e-06
4.34206e-07
-4.14884e-05
7.84623e-05
-1.82695e-05
3.77229e-05
7.14906e-09
9.59255e-05
6.57288e-09
5.82222e-09
-1.78493e-07
4.13063e-05
2.50185e-08
0.00613391
3.97804e-09
8.40087e-09
-6.10376e-07
-2.20414e-06
-3.05608e-05
0.000240836
8.00876e-07
2.32767e-08
5.05017e-06
2.83137e-09
-2.021e-05
1.86584e-11
6.8428e-08
-1.23321e-06
1.84258e-08
5.24036e-08
2.83555e-09
9.51067e-11
2.36582e-07
-2.90122e-11
4.96814e-05
2.33198e-08
1.8605e-11
1.9997e-05
5.27718e-05
1.11457e-08
-1.41019e-05
3.47857e-09
1.33024e-08
5.4594e-05
0.00010522
7.96656e-10
1.59642e-09
5.07895e-10
2.08774e-07
3.60613e-09
2.25032e-05
4.64377e-05
-3.09542e-06
-8.3514e-06
5.92201e-11
-2.81468e-07
9.31038e-09
4.86733e-05
-8.48992e-11
-8.53435e-06
0.000106644
-5.65988e-07
9.81374e-05
3.86277e-10
2.0012e-09
3.53784e-09
7.1599e-10
1.88543e-11
2.63853e-08
9.22563e-05
2.06702e-08
3.78018e-08
-9.61963e-06
2.98679e-05
-1.45564e-05
4.02748e-05
1.18059e-08
1.52621e-09
2.61762e-08
-5.05846e-10
4.69877e-05
3.69188e-08
8.77841e-09
2.36038e-05
9.72258e-05
5.66347e-09
7.33692e-09
4.59642e-09
8.62188e-05
2.08997e-09
9.86082e-10
3.40441e-09
-1.37323e-09
-6.65902e-10
6.71618e-10
7.68985e-09
-1.52115e-06
3.76155e-09
1.71764e-05
6.7013e-08
1.25158e-09
1.7035e-08
7.75672e-09
-2.36855e-10
3.02491e-07
-1.02732e-09
1.3549e-11
1.45592e-07
-8.81207e-05
1.31156e-09
-8.1558e-08
1.30117e-08
-9.40599e-08
-7.51076e-06
3.65406e-09
-1.01687e-07
4.78439e-10
-0.00659512
6.26753e-09
3.69378e-05
-0.00348583
0.00015964
8.51377e-05
-0.000402481
-7.60333e-08
0.000511723
0.000138181
8.2566e-09
0.000104947
2.78065e-09
1.02309e-06
-3.03998e-05
6.89594e-08
3.94932e-09
1.30835e-08
1.30318e-08
6.87967e-05
-1.57448e-06
7.13741e-09
1.02858e-08
1.67647e-09
1.00944e-07
1.62098e-06
3.68398e-10
5.38216e-08
1.25401e-05
3.11272e-09
4.77762e-08
1.14104e-08
3.77404e-09
8.1247e-09
1.71736e-08
9.25042e-05
-1.32439e-05
-1.3691e-06
-7.24461e-07
0.000130036
9.80624e-07
0.00958432
-0.00125533
0.000525601
-6.67139e-05
1.07432e-08
-9.02081e-08
2.95735e-11
-1.24175e-09
4.95631e-11
1.56967e-08
-2.32209e-10
5.84681e-10
-0.00332081
1.8375e-08
1.6167e-08
1.83318e-08
2.2167e-08
1.19378e-09
-1.92085e-06
-5.9968e-10
1.49045e-08
2.88383e-07
3.68752e-08
-4.49321e-06
-2.92185e-08
6.01747e-09
4.07492e-08
2.17137e-05
-0.0238764
1.49406e-08
-2.4794e-06
1.35294e-08
-1.83742e-07
-5.57207e-11
1.49829e-08
2.06158e-08
5.61938e-05
3.03106e-08
0.00131885
8.06793e-09
0.0147575
-6.75129e-05
-4.79864e-05
5.37733e-05
7.43055e-10
1.39288e-08
0.000177196
3.74678e-08
3.21607e-07
9.62553e-05
1.32356e-10
2.62053e-09
-1.62285e-10
2.48135e-09
1.58827e-07
3.1403e-05
5.93003e-08
4.24957e-09
1.01114e-08
2.88659e-09
-1.9452e-07
-4.17898e-05
2.07942e-09
1.42496e-08
4.44337e-08
2.65854e-10
2.57682e-08
3.84679e-06
3.08228e-05
0.000178375
4.97213e-10
4.21336e-08
9.91227e-06
-3.65387e-07
1.02236e-08
-1.50135e-07
-1.30406e-05
1.08706e-08
2.89531e-09
8.30565e-09
2.62326e-09
1.08667e-08
1.88944e-05
3.39199e-09
-7.29925e-10
3.53874e-08
2.12967e-08
3.79463e-05
2.03248e-08
1.38975e-08
1.44944e-08
1.94861e-07
1.47356e-08
-3.74478e-05
1.07841e-08
-1.56022e-10
1.95953e-07
1.49455e-08
1.5197e-09
6.27158e-09
3.62231e-08
3.40407e-05
8.79161e-09
1.44737e-08
-2.03446e-07
-2.82323e-07
1.05265e-08
2.76424e-05
9.72629e-05
2.76562e-08
-4.40035e-10
1.04322e-09
2.34535e-05
-9.22374e-06
1.26394e-08
5.38525e-08
3.23095e-09
8.14764e-08
1.65922e-09
5.96703e-09
-1.15778e-05
5.85894e-09
4.75437e-08
1.67108e-09
0.00227627
6.03908e-08
5.71803e-11
3.8673e-07
1.06586e-07
1.36578e-08
5.99028e-08
1.05055e-10
3.12153e-08
0.00541656
2.30132e-05
0.000527144
-1.40543e-07
1.00294e-05
4.96463e-06
3.92486e-08
1.35934e-09
-2.59558e-10
-4.10799e-08
1.58904e-07
2.03631e-05
1.39306e-08
1.2958e-08
1.46111e-08
0.000180693
2.64457e-07
9.09641e-06
1.25729e-08
1.05956e-08
2.17323e-05
0.000249339
2.78681e-09
1.32826e-08
1.23645e-08
1.56667e-08
6.95095e-08
1.30748e-08
1.58424e-08
2.2998e-08
8.01696e-09
8.49478e-05
9.86449e-09
5.81911e-09
-1.18429e-06
3.50214e-09
-1.90403e-07
3.91746e-09
2.59875e-08
0.000201571
1.70126e-08
1.83169e-08
1.95444e-09
7.54802e-09
-1.69816e-08
1.46729e-09
6.90265e-09
3.87311e-11
1.8947e-08
-2.92502e-08
1.78727e-08
4.52467e-08
2.73613e-10
1.86841e-09
1.4992e-08
1.96836e-05
5.11392e-06
2.61088e-08
3.43297e-05
1.91846e-08
6.11334e-09
1.62546e-08
0.0129118
3.05237e-09
-9.03896e-10
-4.12326e-10
1.72931e-06
1.57519e-08
1.10957e-07
-1.33499e-09
-2.94615e-10
1.80822e-05
5.42275e-09
1.10482e-08
4.28829e-05
8.51023e-09
8.93847e-09
3.14318e-09
2.30303e-08
0.00529895
4.90165e-05
1.48418e-09
9.20387e-09
2.05589e-08
1.60435e-09
1.707e-09
3.49752e-08
7.28099e-08
1.36263e-08
1.09735e-08
3.05048e-08
2.34679e-08
4.04326e-05
2.36292e-08
3.21629e-05
9.21504e-07
5.93853e-09
4.00461e-05
7.10461e-05
1.01511e-05
3.49743e-08
3.55954e-08
1.37582e-09
1.06333e-08
2.28504e-08
2.96186e-05
-2.65059e-05
-3.06915e-10
0.00022677
-2.34211e-10
2.37576e-08
1.86374e-07
2.84998e-08
1.18966e-08
9.28517e-06
-0.000589383
4.39273e-09
-4.70968e-11
2.0348e-08
1.49383e-09
1.14738e-08
3.90484e-08
-0.00841046
1.96126e-08
1.37715e-10
7.27658e-09
-1.35324e-07
2.60157e-08
-2.27938e-07
-1.56917e-09
-5.47424e-07
9.23363e-08
-1.4675e-07
-8.54918e-08
-1.09859e-05
-4.04808e-07
4.72819e-08
5.75364e-07
6.90423e-05
1.81244e-08
-0.00231682
2.36012e-08
1.54965e-08
2.88698e-09
2.0168e-09
-2.86384e-07
2.07873e-09
6.33862e-08
-2.63754e-05
2.83831e-08
2.13948e-08
0.000126692
3.18102e-08
-7.47359e-09
4.63766e-05
1.90141e-09
-3.96291e-05
-5.74309e-07
9.94366e-12
0.000142578
-2.45976e-07
-2.47047e-07
7.75301e-08
8.71765e-05
2.83268e-08
3.19878e-11
1.20351e-07
3.74491e-08
1.77708e-05
2.98218e-07
2.31196e-08
3.29636e-08
2.25762e-08
3.02207e-08
6.52333e-08
2.77147e-05
7.45655e-07
1.81558e-08
9.89922e-09
7.13747e-09
4.71623e-05
3.28795e-08
1.27756e-09
2.47598e-08
-0.000680435
1.48933e-08
-1.55764e-09
3.35514e-08
1.17971e-08
-6.43751e-10
2.4947e-08
5.85789e-08
3.09574e-10
2.75976e-05
2.175e-11
1.43911e-09
-1.31168e-07
3.20433e-08
6.45323e-05
3.88472e-10
-9.22519e-10
0.00018441
3.39979e-08
-2.04151e-10
5.37449e-05
3.6959e-05
2.41043e-08
2.36441e-06
4.89883e-09
2.5284e-08
-1.69978e-05
3.36504e-08
0.00215495
6.89128e-07
4.10561e-08
3.04898e-08
2.37163e-08
4.98068e-09
1.20617e-09
1.11132e-08
3.44648e-08
1.77128e-05
0.000117629
2.5829e-08
9.29744e-08
1.20471e-09
4.89301e-09
5.44509e-09
0.000126009
1.91965e-08
1.77644e-08
4.20967e-09
-4.36944e-10
2.05632e-05
1.3494e-10
4.61961e-09
-7.90838e-06
4.63681e-09
2.88752e-09
3.34001e-09
1.10409e-08
9.82902e-09
6.22716e-05
8.01046e-09
3.67514e-10
4.24756e-09
4.10389e-08
1.28914e-08
1.85223e-08
4.04574e-05
-0.000453664
0.000158392
3.37091e-09
-6.4061e-08
-3.01899e-05
0.000195177
1.4877e-05
-0.0158035
2.37768e-08
2.55103e-10
5.04642e-05
3.13093e-08
7.06588e-05
1.339e-08
5.48474e-09
1.30616e-08
7.49506e-10
3.83842e-05
6.57494e-05
1.53915e-08
2.10543e-08
-6.00619e-06
3.00953e-09
-0.00575651
0.000149588
1.29552e-08
5.12355e-08
0.00041567
1.42385e-09
2.39864e-07
3.3733e-05
8.7105e-09
3.88672e-10
0.000173098
7.87954e-09
-2.41676e-10
3.78416e-09
0.0116933
3.76669e-05
3.77224e-09
3.24028e-08
3.66878e-10
0.000120606
5.05347e-07
-5.28226e-10
3.30418e-09
0.0001117
1.117e-06
-1.91359e-06
5.3135e-09
4.40061e-09
7.09176e-09
4.80797e-09
3.32801e-08
2.26832e-08
1.35546e-08
2.53326e-08
4.01586e-06
6.18473e-08
4.46004e-09
0.000110897
2.40053e-08
1.2603e-08
-3.70431e-10
7.69113e-09
3.3035e-11
2.81408e-07
2.16511e-08
3.31262e-05
3.23173e-08
3.41299e-08
3.53727e-05
5.46183e-08
3.85366e-07
5.2162e-05
-2.29625e-07
1.09726e-05
3.4082e-08
0.000159031
6.82052e-05
3.67791e-05
3.44932e-08
0.000248856
5.24383e-07
1.01914e-08
6.39099e-09
-1.14337e-08
-1.33957e-07
-1.38764e-07
0.000229934
-1.55774e-08
3.77288e-09
-3.66855e-08
3.02757e-09
7.90845e-10
8.79306e-09
1.31336e-07
-5.78389e-07
2.61315e-08
2.57698e-06
1.40129e-08
1.78968e-08
1.10235e-09
1.52872e-10
1.31914e-07
1.60158e-08
-2.73193e-08
1.36457e-08
-2.23489e-10
6.45041e-06
1.75954e-09
-7.60541e-10
4.78306e-08
1.76902e-08
5.01511e-05
9.23092e-08
-5.08666e-06
2.68651e-08
1.48359e-08
7.81213e-09
-9.22959e-08
2.73578e-09
-0.000967435
5.23532e-05
1.74346e-08
-5.20367e-10
5.86282e-05
8.74121e-07
1.82352e-06
3.6748e-05
4.02439e-09
9.55111e-09
1.32448e-08
-0.000184767
1.76326e-08
1.22876e-09
3.00233e-08
3.08018e-08
2.80741e-05
3.50432e-06
0.00528684
5.54165e-08
8.37212e-09
0.00054289
1.72312e-08
1.72014e-08
1.08227e-09
1.63794e-08
3.91302e-08
1.54371e-08
-5.90882e-05
1.5079e-08
2.17012e-08
1.51999e-08
4.28772e-09
3.23595e-05
3.20114e-08
2.3957e-08
-0.000465543
0.00031656
7.97561e-10
3.61472e-09
2.41384e-08
4.34651e-06
2.75553e-09
5.19029e-08
2.64294e-08
5.70737e-09
4.59095e-07
3.03315e-07
1.24473e-08
0.00109078
2.60843e-09
3.36437e-08
3.25927e-08
1.59312e-08
2.32649e-08
9.76247e-09
7.35322e-06
-1.88869e-08
-1.14302e-09
2.89718e-08
3.09946e-08
4.56013e-09
2.53085e-08
3.29583e-08
0.000113122
5.12497e-09
0.0126006
3.31216e-09
1.46638e-07
3.26741e-08
4.28213e-09
2.36097e-05
-3.50946e-08
7.94995e-09
4.7398e-08
-1.21316e-10
1.28683e-08
1.07584e-09
5.84925e-09
2.01069e-08
3.74827e-08
-2.96682e-10
1.23312e-08
1.94236e-07
-4.24348e-07
6.89842e-09
4.1378e-08
1.36411e-08
1.56789e-08
1.88749e-09
1.01106e-07
1.54142e-09
9.83111e-09
9.70162e-08
-1.88241e-07
2.81445e-09
-4.34717e-10
1.16058e-09
-1.17087e-07
-1.27742e-10
2.83404e-09
-2.16053e-06
1.9251e-08
0.000737626
-1.01765e-06
6.9723e-09
-1.58675e-07
0.00173956
1.47343e-10
7.31905e-10
1.28545e-06
4.0393e-08
3.54046e-08
2.39591e-10
1.99242e-09
4.12732e-09
1.20913e-08
4.57938e-05
3.66306e-05
4.51834e-09
2.32714e-07
4.09924e-08
2.51169e-08
3.56513e-09
2.91098e-11
9.40428e-05
1.47754e-08
9.30598e-09
0.0107835
-0.00464082
3.50013e-09
4.08152e-09
3.2316e-10
7.58143e-05
2.39605e-09
2.50747e-10
5.38138e-05
0.000123781
3.63649e-09
-3.56625e-07
1.03621e-08
3.24169e-07
1.22314e-06
2.23582e-10
1.74704e-05
1.84762e-08
2.51252e-08
2.71441e-09
0.00094519
3.94043e-05
-2.97871e-08
5.26643e-05
-3.23815e-06
3.85979e-09
5.31954e-05
9.79294e-12
1.72574e-09
3.52297e-05
2.05543e-09
-4.3878e-07
1.02042e-07
-0.0241293
1.27605e-09
1.95463e-05
-1.27009e-06
4.61595e-09
7.1521e-11
3.18716e-06
3.64588e-05
2.00373e-08
1.37808e-10
2.84397e-08
-1.70249e-07
2.47391e-08
2.36082e-09
-2.31671e-05
1.41207e-08
1.84115e-08
1.33904e-08
2.01832e-07
-1.19462e-05
1.57809e-09
3.74082e-05
-5.71696e-10
3.4473e-06
2.38773e-11
3.7287e-09
-2.19293e-07
5.25941e-07
0.00011806
1.11224e-09
9.10281e-10
2.8141e-09
0.00316185
3.14108e-07
3.39843e-05
5.77979e-05
1.32502e-07
2.58098e-09