/*--------------------------------*- C++ -*----------------------------------*\
| =========                 |                                                 |
| \\      /  F ield         | OpenFOAM: The Open Source CFD Toolbox           |
|  \\    /   O peration     | Version:  v2012                                 |
|   \\  /    A nd           | Website:  www.openfoam.com                      |
|    \\/     M anipulation  |                                                 |
\*---------------------------------------------------------------------------*/
FoamFile
{
    version     2.0;
    format      ascii;
    class       volScalarField;
    location    "100";
    object      ddt0(omega);
}
// * * * * * * * * * * * * * * * * * * * * * * * * * * * * * * * * * * * * * //

dimensions      [0 0 -2 0 0 0 0];


internalField   nonuniform List<scalar> 
14804
(
0.000105171
1.24321e-07
0.00021408
2.32231e-05
3.75403e-05
9.88226e-05
3.60339e-06
3.56344e-08
-7.66174e-05
4.34912e-10
-0.396026
5.54124e-05
-7.8513e-09
3.90795e-05
0.0374106
-0.00719662
3.94065e-05
1.96722e-05
0.00429475
7.54778e-05
-2.27486e-09
5.64228e-06
0.000249973
2.71676e-06
-0.0617848
2.7181e-06
4.01202e-05
3.60378e-05
0.0012047
3.23385e-06
1.13284e-06
-4.65607e-05
6.99946e-05
5.46793e-05
-6.81902e-05
3.65262e-06
-0.0735186
3.18551e-09
0.017019
6.65504e-05
0.000245243
1.88975e-05
0.0307033
1.6183e-07
3.44905e-05
9.26086e-07
-0.0950061
4.86939e-07
6.13974e-06
0.0109313
5.01304e-08
9.02974e-07
2.31308e-08
9.03283e-06
0.018022
0.0124495
0.0714101
0.00146046
-5.38354e-08
9.17952e-07
-0.00184013
5.54508e-08
2.34914e-07
0.00605416
2.11943e-07
1.94407e-08
-5.21017e-09
2.97807e-06
5.76338e-09
-5.3169e-05
1.41633e-06
3.61829e-05
-0.196751
-0.00270639
3.4727e-06
0.000352581
-0.010524
1.16931e-07
-0.000520129
3.97217e-07
-0.00705994
1.74738e-08
4.24556e-07
3.48937e-06
1.55538e-09
0.00269554
1.2788e-07
5.68837e-06
1.13459e-07
3.53097e-05
3.32232e-05
3.46439e-06
0.000100733
1.24243e-06
0.0121013
-0.0116928
0.0010189
8.03793e-05
2.04286e-06
0.163145
0.00124649
-0.000895623
9.63427e-10
4.80135e-05
-0.00275956
-0.00161446
1.27941e-05
-0.00817587
-3.99379e-08
1.18583e-06
4.07501e-08
1.43332e-05
8.11653e-05
-0.00333066
-3.98855e-05
-0.0059134
-0.0130478
4.07102e-05
1.16257e-09
2.05039e-05
-0.0101329
1.1054e-07
5.74407e-06
5.28173e-05
-4.50021e-08
1.95073e-09
0.00924196
4.20952e-05
0.000351707
3.31251e-05
3.1108e-05
-0.0012112
-0.00245193
-0.100101
-0.0270734
5.28847e-05
1.6238e-07
0.178871
2.87801e-06
4.74301e-05
7.3931e-08
-0.0268478
1.78867e-06
-0.00245567
-0.00264625
8.08052e-09
-0.00209205
-3.85972e-08
-0.0154266
0.0111503
-3.40332e-05
0.000420627
7.1441e-05
4.61659e-05
3.96037e-07
0.000898121
3.49602e-05
-0.548288
-0.00223691
-0.171024
5.44533e-08
2.05784e-08
-0.00239173
0.0125379
1.06108e-05
0.000735737
5.32418e-07
-0.00152446
3.11403e-06
2.30942e-08
0.00479744
5.56108e-06
0.000712334
0.00679747
-0.0436032
0.595951
-0.00208767
5.74373e-05
2.35375e-07
0.0471594
0.000106344
-0.0108512
3.28509e-06
0.00010975
3.33983e-06
-0.0101885
7.3701e-05
3.7997e-05
1.43167e-05
3.2761e-07
0.0210271
0.927618
1.0669e-06
1.75802
0.00298114
1.89789e-07
0.00345077
-7.64582e-09
3.26656e-05
0.000362455
-0.00744998
3.27495e-07
6.36513e-06
-6.47088e-06
-1.8481e-07
-0.00158321
3.28718e-05
-0.840465
5.38937e-05
3.62839e-06
3.1278e-06
-0.00121349
3.15357e-06
5.07911e-08
1.966e-06
2.99979e-06
4.24853e-05
2.85302e-07
1.22371e-09
1.66579e-07
2.10776e-05
0.000212514
2.2276e-05
4.72711e-06
1.0634e-06
0.206199
5.45564e-05
-0.000550651
-0.00210529
5.30289e-06
1.1926e-06
5.75505e-06
-1.98896e-09
-0.00239491
-0.00306689
1.5658e-09
9.87735e-07
0.00274271
-0.00245442
1.02413e-05
-0.0155389
0.00530993
2.01263e-06
1.58275e-07
5.77237e-07
0.00370019
1.82047e-05
1.04714e-05
0.000766057
1.25397e-06
-0.0832033
1.75731e-07
3.6576e-08
1.10199e-07
-0.00191234
1.46725e-07
2.95563e-07
7.98254e-06
1.3623e-06
1.56791e-08
-0.0222862
1.43302e-05
0.00115753
1.61357e-08
-1.42245
2.48221e-06
3.12249e-05
5.33697e-07
-0.00232013
-0.00080063
-0.0104792
-0.00629655
9.53322e-10
-5.55955e-09
-0.0287041
0.0136746
5.82799e-06
-0.00196599
0.00297703
-0.00240465
0.00240822
4.69088e-08
-0.000953813
-0.00169433
-0.00770107
-2.63439
-0.00102015
5.86465e-06
1.31483e-05
-0.00323336
2.63647e-07
2.2176e-06
5.54518e-06
3.58835e-06
6.72431e-05
0.0474004
-0.0162254
0.000229383
2.87974e-07
1.08408e-06
3.30584e-07
9.67633e-08
6.12065e-06
5.87039e-05
-0.00405051
3.01557e-06
0.186941
0.00143424
-0.00081423
-0.00120695
-0.000954642
3.62727e-06
5.35359e-06
9.72808e-06
-0.00232186
1.92266e-06
-0.0099703
-0.0780929
3.16172e-07
0.00130357
0.000498737
-0.0115426
-0.0101548
-0.00124452
3.2148e-06
6.966e-05
-0.0492861
-1.80959e-08
-1.83064
-0.00340807
4.83366e-05
3.79193e-05
1.99892e-07
4.48884e-06
1.25064e-08
1.08471e-06
9.08606e-08
-0.002528
8.14185e-07
0.000550205
5.13179e-06
2.83963e-06
1.92003e-05
1.89325e-08
1.23104e-06
0.000384177
-0.00839434
-0.00104761
-0.000131894
-0.00505902
-0.00324499
7.95731e-06
2.16484e-08
5.09821e-07
8.21552e-07
0.000696234
1.6807e-06
0.00824596
6.10975e-07
3.90631e-08
8.60144e-07
1.48389e-05
0.000135
0.000206938
-0.00878868
-0.00306365
5.40375e-06
2.9483e-05
-1.98416e-06
1.28065e-07
5.7382e-06
-5.22518e-09
-1.27051e-05
3.24457e-06
1.03247e-07
-0.0101629
5.62928e-07
9.65873e-07
-0.00249624
0.281716
-2.59111
2.09478e-05
8.6117e-05
-0.00865715
1.82894e-05
1.50013e-07
-0.0095701
9.37359e-07
1.33288e-08
-0.0077085
-3.4134e-06
8.5984e-07
8.53249e-07
8.88547e-06
0.0124219
5.95706e-06
0.0603278
3.59201e-05
-0.00841491
-1.50499e-08
-0.00176909
6.05314e-08
-0.00705319
-0.00346884
2.35157e-05
2.20586e-06
-0.00554093
6.4215e-08
6.22063e-05
3.8453e-09
1.13395e-06
4.48629e-06
0.0768356
1.02602e-09
3.62709e-06
-1.55387
1.90194e-08
2.0836e-05
2.65746e-06
0.000515123
0.0890651
2.77194e-05
9.41424e-07
-0.00342217
2.17154e-06
4.15035e-05
-0.0100796
0.00161141
1.64879e-05
1.05999e-06
5.09659e-06
1.45449e-06
-1.16176
1.58085e-08
3.55959e-06
-1.81125e-08
3.16319e-07
0.000879202
2.56839e-07
8.38841e-07
6.22946e-05
-0.00736157
6.67631e-07
2.49365e-06
2.24993e-07
1.51016e-05
-0.00298689
-0.13586
-0.00250668
5.71713e-06
-0.00177975
5.63104e-06
2.98517e-06
-1.62306e-10
1.65327e-06
3.34272e-07
5.2236e-06
-0.141385
8.45347e-06
7.05706e-10
-1.06642
2.23927e-07
0.216853
-0.0776945
3.95219e-05
4.9064
2.11135e-05
0.000420885
1.07868e-05
2.30501e-07
1.12624e-09
4.51773e-06
1.37801e-06
5.98067e-07
-0.00371231
2.26164e-05
-4.4036e-09
2.64063e-05
-0.0023995
8.39221e-05
5.40082e-05
1.8663e-05
9.19381e-06
0.000188762
3.35322e-06
3.97752e-06
-0.00453742
1.07464e-07
6.74385e-07
2.80117e-05
2.99207e-06
-0.0888123
5.66522e-05
5.45899e-07
3.4453e-05
2.77575e-09
-2.36284e-08
-0.00128347
5.00679e-05
2.95314e-07
-0.000322629
8.19963e-07
7.17256e-08
0.000121265
-0.000378074
-1.37538e-08
5.26715e-08
1.28575e-07
1.04765e-06
-0.00100206
-4.85405e-09
2.3964e-07
-0.668171
7.7312e-07
1.79877e-06
-0.0185894
5.00092e-09
3.91327
3.7123e-07
-0.00356298
0.00082404
0.357052
-5.32911e-09
-1.37522e-08
3.38677e-05
6.25071e-06
3.37566e-07
2.2505e-06
1.77486e-07
4.56147e-05
1.04496e-06
2.50675e-05
3.88955e-05
3.48706e-06
-0.00842857
0.000209016
0.0154904
5.59419e-06
4.30682e-07
-5.37156e-05
2.47443e-08
1.7747e-05
-0.00564646
1.02742e-05
-0.00404824
-0.00124309
2.29658e-08
-0.0121954
0.000153983
8.26505e-06
2.20832e-06
-0.00956764
-0.00823861
3.88073e-07
5.73417e-08
8.33123e-08
-0.00435828
-3.88838e-05
-0.011732
-0.00915632
5.19583e-08
0.000110253
0.0184048
-0.0173393
3.89224e-05
1.37104e-05
1.52957e-05
1.03082e-06
-0.00327561
-0.0100027
3.33661e-05
-0.00167253
3.30762e-07
7.58924e-08
1.34037e-06
2.49147e-05
1.21402e-07
0.00448988
1.45095e-08
-0.00152517
-0.0205063
2.51195e-05
0.0128764
1.03294e-06
1.66512e-07
-0.00204167
5.11448e-06
-0.00420686
1.07799e-07
1.35861e-06
3.34638e-07
1.56944e-10
0.000111591
2.12355e-05
-0.00441743
-0.00757339
-1.19845e-09
2.8389e-06
1.72709e-05
4.47381e-05
0.000344433
2.52753e-05
1.15016e-06
0.00964411
3.79023e-06
-0.251585
5.61539e-07
-0.0961168
0.000453364
1.24662e-07
1.85406e-07
-3.94014e-05
-6.95363e-09
3.40361e-07
3.50887e-05
3.06358e-06
-0.000433947
7.74075e-05
-0.675324
2.39413e-07
-0.597808
0.818739
0.000217984
-6.87958e-09
-0.000810259
4.64682e-07
-0.0203711
-3.38604e-09
1.90703e-08
-0.00152952
0.000515825
-0.0243313
0.000102496
2.27226e-05
6.21551e-07
-0.00225102
1.08283e-07
-0.551329
-1.34752
1.85879e-05
1.24411e-07
8.85266e-08
3.50716e-05
1.71819e-05
3.17467e-09
0.000298898
-0.00659439
3.56382e-05
-2.46835e-08
-0.00905824
-0.00145434
0.0218657
1.20326e-07
0.00013093
4.21215e-07
2.47962e-06
1.05268e-05
-0.000523908
-1.56324e-05
-0.00222109
-7.03792e-05
0.00930771
-0.0032419
1.39915e-06
-0.00884537
3.23744
6.58449e-08
2.28627e-05
0.00130418
1.89365e-05
5.24903e-05
8.26213e-06
-4.33864e-05
0.0187294
1.32873e-07
5.45553e-05
7.77503e-08
2.12171e-06
0.00106251
-0.00678792
-0.000161906
-1.10995e-08
2.08606e-07
3.55033e-07
3.81859e-06
0.00157173
-0.0105265
-9.19378e-06
-0.059318
-0.00810394
2.87523e-05
1.31208e-05
-0.00181569
1.03136e-06
-0.0031464
3.84753e-06
3.30845e-08
6.22585e-08
2.02689e-05
0.00013617
1.23253e-07
1.7709e-06
3.6528e-05
-0.000181189
1.21471e-05
0.0027139
9.50644e-07
0.00275733
6.92853e-05
5.14527e-05
4.50143e-05
1.69733e-09
4.09102e-07
-0.00270096
-0.00208329
7.69934e-07
0.000567104
1.47997e-09
3.09362e-07
-2.88335e-08
4.18698e-06
-0.00217241
5.37366e-07
-0.000456065
1.14935e-06
9.68418e-06
9.99098e-08
5.58542e-05
5.10782e-06
1.22665e-07
-3.15745e-08
0.000134238
6.54791e-05
7.65446
0.183731
5.95028e-08
6.28567e-08
4.3605e-08
4.29513e-05
-9.18786e-07
-1.02331e-05
-0.0053699
5.32958e-06
1.5859e-05
0.000764217
3.6772e-07
9.81122e-08
1.55599e-08
1.15066e-06
4.37906e-05
8.33835e-07
2.55095e-07
2.41464
0.00158677
3.98802e-06
1.30322e-06
0.000218652
-0.01875
2.04493e-05
8.88629e-06
2.13246e-05
0.0298371
-2.6666e-05
0.0449363
-0.0933451
-0.000170468
-0.00231512
3.81488e-06
7.54561e-05
-0.0376575
1.07683e-07
1.00215
4.00038e-06
1.92077e-10
-0.010422
3.25235e-05
-0.00762254
-0.000549108
-0.005691
2.29475e-07
-2.17598e-05
1.09782e-07
2.17335e-06
9.33258e-06
4.93296e-06
-2.38541e-08
-0.0105181
-0.00994419
4.09368e-05
-0.000238299
7.12776e-06
-0.000613399
0.123161
-4.02261e-05
-0.00317293
4.01071e-06
8.81518e-08
4.47335e-07
1.82635e-08
1.24982e-07
0.00548036
2.33031e-05
-0.00827782
-0.00154997
1.06112e-06
7.10871e-05
3.36826e-05
1.40164e-06
1.99016e-06
-0.0102124
-0.0137339
2.9061e-06
3.39507e-05
1.65715e-06
6.1319e-08
6.91692e-05
8.92586e-06
-0.00052051
-0.0115544
0.024072
0.04998
9.59506e-06
-0.00244686
1.16509e-08
-0.0465991
-0.000159656
1.2385e-06
1.73983e-05
-0.0113703
1.0619e-07
-0.000532037
6.62085e-07
0.00797043
-0.000399381
9.72612e-07
1.68405e-06
1.14677e-06
3.37744e-07
8.00518e-06
-0.0275301
4.96767e-07
1.27297e-06
1.96047e-05
8.52464e-07
-0.00468327
-0.000240807
2.47021e-08
2.71518e-07
9.5353e-08
0.00265949
8.50439e-07
3.48833e-08
0.00273336
-2.26734
3.68172e-08
5.84566e-07
6.69516e-05
-0.00170844
2.74893e-08
1.66861e-06
1.08675e-06
0.000724649
2.67963e-07
0.00493809
6.67435e-05
0.000115458
0.0207481
-0.26455
1.22109e-06
-0.375453
2.87906e-07
8.78742e-05
2.92674e-05
1.53138e-05
-1.87288e-09
6.77712e-08
-0.0120482
3.41487e-10
0.0104702
5.72412e-08
9.60894e-05
-0.00182081
-0.00507905
0.00675079
9.74301e-09
-0.00117984
-1.45384e-11
5.11592e-07
1.91429e-05
-0.239191
3.01273e-07
-0.0808583
5.71595e-05
1.00874e-06
2.28504e-05
1.75887e-09
1.62991e-06
1.32296e-07
7.18069e-07
3.37672e-08
0.000999131
-2.1217e-08
3.62609e-05
5.72526e-06
-0.0429171
-8.23179e-09
1.30984
4.64704e-07
0.00179275
3.03857e-05
-0.00233106
5.34184e-05
0.000126801
1.83293e-05
1.36932e-05
5.74153e-08
2.02323e-05
-0.00212222
4.06913e-06
4.37921e-07
2.91323e-07
-0.0159134
2.09282e-05
6.63217e-05
1.01538e-06
7.47844e-08
-0.00189634
4.14775e-05
0.000137791
-0.00257495
0.00163968
1.87905e-05
-0.0109248
5.58207e-07
6.11238e-10
-0.00871335
3.08056e-05
-0.0320083
0.000100143
7.09888e-09
1.15836e-06
1.5094e-05
4.14338e-07
-0.000430781
8.31153e-06
6.33127e-05
5.68339e-07
-0.000138241
3.36703e-09
0.553231
1.20427e-06
8.15845e-07
-0.00350917
-0.00266212
-0.00232205
-0.00354936
-0.00149938
-0.0109798
3.06842e-05
-0.000178137
-0.000107958
3.81429e-05
-0.0145864
1.26183e-07
6.53847e-07
1.06046e-05
-0.00429261
0.000128554
8.43874e-06
2.88203e-07
8.11803e-05
2.78103e-06
0.000324651
9.90694e-05
1.44534e-07
2.34302e-07
1.14912e-07
1.17439e-05
-0.924236
8.86074e-07
-0.000122235
-0.0457398
-0.00202455
3.85374e-05
3.00313e-06
-1.21171e-08
0.201885
3.17507e-07
-0.930313
2.46587e-06
3.97251e-05
3.19524e-08
1.74061e-08
0.000125969
6.92899e-06
-0.0208719
0.0221639
-0.000266695
3.77379e-07
3.1712e-09
4.84351e-07
-0.0006552
0.000114161
1.4979
-8.46676e-09
-0.00186787
-0.00215702
0.000102494
2.58661e-06
3.2266e-06
9.28771e-07
2.53094e-06
-0.00306549
4.86027e-05
4.58559e-07
0.000619729
-0.914381
2.00372e-05
2.00264e-05
1.09852e-05
1.24078e-07
0.874809
1.52249e-06
4.16722e-05
6.99318e-07
6.65981e-05
6.3862e-05
1.04425e-07
-0.00295089
3.81404e-06
-0.00187675
2.86541e-07
-2.70555e-08
4.54045e-07
0.00103773
4.15197e-05
2.91334e-05
0.075652
0.000861057
1.04247e-07
5.08178e-06
8.32768e-07
-0.0154162
-0.00184494
0.00183423
0.0884707
-8.07995e-09
6.21231e-06
0.00041496
6.51937e-06
1.74627e-05
0.0892715
4.58676e-06
7.6274e-06
-0.00287229
0.000194624
-0.0196441
5.67005e-06
-0.000837553
5.16619e-06
-0.0478504
-0.00216725
8.84763e-07
4.98959e-06
-0.00223766
0.00633648
9.19901e-05
2.70334e-06
9.29956e-05
-0.00298881
-1.35797e-08
4.93526e-05
3.52099e-07
4.11634e-08
0.140068
3.05503e-08
5.71034e-05
2.75317e-05
-0.00268822
-2.96238e-09
1.59046e-08
4.83607e-07
0.000268799
4.71927e-06
0.00416839
-0.01445
0.00577975
0.184482
4.86208e-07
4.87348e-07
2.0079e-06
2.30197e-08
-0.000120008
1.79203e-05
-0.00186524
3.99693e-05
6.46252e-07
0.000170244
6.6139e-07
1.19139e-06
9.93411e-07
0.0920203
-0.00257713
-0.0016783
1.20422e-07
4.35841e-05
-0.000690218
2.47707e-08
2.11174e-07
4.08272e-06
-0.00686705
0.00024048
3.17919e-06
-4.09761e-06
5.9445e-05
6.56475e-06
8.6665e-06
8.98902e-07
1.69377e-05
7.88702e-05
4.26866e-05
0.0206191
-7.96445
5.95162e-09
1.61391e-08
6.78991e-05
4.99944e-08
3.90235e-05
6.20507e-06
1.59787e-05
-9.42834e-08
-0.000946979
-0.0011072
2.79662e-06
2.66318e-08
5.52771e-06
6.59506e-07
0.000686646
1.9012e-07
9.36025e-10
1.16673e-06
-0.00142552
2.37608e-08
0.0526072
-2.41564e-08
4.09013e-09
-0.216071
3.35607e-05
1.87633e-08
0.00306482
-0.00516699
0.167048
5.35578e-08
-0.00953252
7.85344e-07
1.30074e-07
2.76993e-06
2.77661e-05
5.18262e-06
0.000446626
5.00568e-05
9.91999e-06
-1.36972e-07
4.88939e-07
-0.00285972
6.53479e-05
-0.00241739
2.81174
8.43334e-08
-0.00725264
0.000139083
4.21083e-06
1.9995e-06
0.0012506
-0.00175554
1.68831e-06
-0.0383792
-0.0103457
-0.00623222
3.59971e-05
7.48858e-07
3.39335e-05
9.36583e-06
2.23384e-06
5.71042e-07
6.90865e-05
4.07158e-09
1.90175e-07
-1.1096e-08
-0.0148271
-0.00454232
0.000188488
-0.0207694
3.32972e-05
1.36933e-07
-0.00254114
-0.308712
0.000269464
3.30366e-07
1.74295e-06
2.55455e-08
2.12836e-05
1.33502e-05
-0.00151063
8.44374e-07
9.42756e-05
-0.00342637
1.4473e-05
1.452e-05
-0.00185125
-0.000481338
1.37184e-09
0.00166716
9.88177e-07
-0.00294003
1.73452e-07
-0.000568415
-0.0038469
0.000461042
0.000113543
3.39734e-07
1.12832e-06
1.16477e-08
1.0034e-07
5.71748e-07
0.538769
-0.00619681
2.42322e-06
-0.00164415
0.000240428
9.25611e-06
6.80945e-07
-3.27689
1.31403e-05
0.00141615
-0.000733362
-0.00426505
-7.83585e-05
1.57479e-08
8.15416e-07
-0.00700664
6.94211e-07
2.44876e-07
1.7459e-05
-0.00146226
6.18363e-06
3.82467e-09
-0.000325547
-0.00327286
0.00453518
-0.000401819
-0.00698706
7.72949e-07
9.31628e-07
0.00195518
4.63328e-07
9.35915e-07
1.81511e-07
0.035621
0.0300369
2.82727e-06
1.96906e-05
-0.00180367
1.0591e-09
7.56654e-05
-0.105568
4.57232e-09
1.53679e-06
0.000131165
-1.76199e-06
5.43205e-05
-0.000759215
0.00300727
-4.90097e-08
2.01539e-06
2.68345e-07
-0.00199084
1.55232e-07
-0.00324275
2.56266e-07
0.0336682
3.91248e-09
3.22398e-06
4.46789e-06
-1.58596e-06
-0.00654146
-0.000780432
0.44403
6.56725e-05
4.10176e-08
5.60333e-05
-5.51782e-08
-3.5621e-05
-0.0681733
3.83488e-07
0.000163717
2.71805e-06
2.75461e-07
2.65229e-06
-0.00229279
-7.88676e-05
5.36992e-09
5.09163e-06
3.52363e-05
9.15358e-09
-0.00058153
-0.679195
-0.00195412
-1.24517
4.75455e-06
0.000178406
3.37847e-07
-0.00157757
1.23551e-05
2.53701e-06
-0.000272105
1.38365e-05
0.00456904
1.88067e-07
0.0108878
7.35535e-05
1.18101e-11
-0.00266222
-0.00200558
4.27594e-05
-0.00442335
0.0369104
-0.00162142
1.95166e-05
0.218312
1.2377e-08
-9.57166e-08
0.0045143
-0.0038012
5.0327e-05
2.26105e-09
5.97422e-07
-4.61522e-10
3.38708e-10
1.40188e-08
0.00103244
-0.00193633
4.06378e-08
0.0410137
2.12087e-06
2.76293e-05
-0.00218844
-0.000612804
6.03591e-07
3.57411e-07
-0.000346457
-5.9388e-05
2.8135e-06
0.0640937
7.36404e-07
3.45184e-07
1.57118e-05
4.90244e-07
-1.98758
6.51033e-07
-0.00728578
-0.00135233
5.62387e-06
8.9403e-05
3.51038e-06
6.57207e-05
2.38419e-08
1.35021e-06
-0.000526112
0.932222
2.44117e-08
-0.00107465
1.11819e-06
-0.0022753
0.0204655
1.16756e-06
2.66096e-05
-0.0108967
0.000301138
-0.302969
1.13562e-07
3.19048e-06
-0.0117514
-0.0102262
1.39549e-05
4.33202e-06
-0.237018
-0.00019566
7.69253e-06
-0.00505718
9.18241e-05
0.00136241
-0.78939
-6.11517e-08
2.5205e-07
1.10058e-06
-0.00107267
4.50115e-06
1.33432e-06
-0.0149608
2.27945e-07
2.44547e-07
6.86104e-09
0.00157469
4.64013e-09
-0.00756311
-8.0966e-09
2.77788e-05
1.55927e-05
5.48729e-05
8.77258e-06
-0.000181341
9.37957e-06
-0.0295262
-0.00201717
0.462835
9.67481e-07
-0.0102949
1.38107e-05
-0.0134338
1.33284e-05
1.36751e-05
3.90817e-09
1.40674e-05
1.4484e-07
-0.000283582
-0.00814801
5.58083e-07
1.23498e-07
2.78269e-06
0.000331271
6.97557e-07
2.03524e-05
0.0164821
5.70828e-07
3.146e-05
-0.00218833
-2.81404
1.48478e-05
1.04604
4.97146e-09
2.77428e-07
-5.08199e-08
6.03623e-05
2.87615e-08
3.36132e-08
4.7751e-07
1.57913e-08
3.58259e-07
-0.000501098
5.57135e-06
-0.00331653
-0.00468868
4.2528e-08
9.11367e-06
1.40152e-06
1.36797e-05
-8.9478e-05
2.51458
6.51093e-05
9.96488e-08
2.89243e-05
5.36182e-07
6.99019e-07
-0.00113607
3.41787e-05
-0.0151526
3.7818e-07
1.03164e-06
2.33328e-08
7.81309e-06
0.0803016
0.000679995
9.7215e-07
6.95109e-10
2.92642e-06
-2.66606
-0.0124637
7.76019e-08
-0.144915
9.17248
-0.283998
4.74424e-06
0.000147708
0.00035595
9.36389e-07
1.16265e-06
3.77085e-09
1.20629e-06
0.487797
-0.00945988
-0.000776202
1.87388e-05
-0.000776189
-0.0413292
1.61068e-05
1.52616e-09
2.37377e-08
0.029084
1.95898e-05
5.27238e-05
1.91954e-05
4.05626e-07
2.29473e-05
1.81977e-05
7.31322e-06
7.71871e-07
-0.0144646
-0.0020346
6.7796e-07
-9.28513e-05
7.66175e-07
2.98397e-07
1.48708e-06
0.00122483
3.09536e-08
0.000710674
2.82648e-05
2.06168e-08
2.18035e-06
2.50733e-08
0.00567053
3.36181e-08
0.000224588
-0.0110413
-0.00700152
5.28899e-07
0.000146024
7.3625e-07
2.34898e-06
1.5711e-07
3.11452e-06
-1.1411e-08
0.000180908
1.38317e-06
-0.134254
6.61673e-06
2.7676e-08
3.08767e-06
-0.000319732
1.95282e-05
1.37191e-05
1.67394e-05
1.76655e-05
3.34199e-07
3.05674e-07
6.36956e-05
1.39936e-06
2.72098
1.44153e-09
7.40194e-05
-0.00184852
-0.00403199
2.70199e-07
0.00321059
0.00336042
-0.0090072
-0.00396871
0.0249589
-0.000914097
5.50634e-07
-0.00858977
2.79399e-06
4.19741e-06
0.00332131
-0.00403084
3.57858e-05
-4.73516
3.0148e-07
7.32675e-06
0.00687061
0.00175289
-0.0051942
0.169948
0.000128147
1.29505e-05
-0.0135908
3.61456e-06
0.0346462
1.50658e-09
0.000152525
-0.00678402
6.47104e-06
0.000102414
2.20389e-07
7.31308e-09
-4.76225e-06
2.66856e-08
-0.001102
1.86507e-05
3.69915e-08
0.00943443
-0.00163467
8.77404e-07
-0.00527642
4.01858e-06
1.02798e-06
-0.00218143
-0.000107536
7.43487e-07
1.22881e-07
-3.82256e-08
0.000121998
3.88833e-06
-0.00908434
-0.000937258
0.00297191
-0.0104399
4.57598e-09
-0.000197238
2.31283e-06
-0.00155527
-3.9056e-10
0.0184436
-0.00224897
-0.0095076
0.00271942
3.0063e-08
1.60826e-07
2.76077e-07
1.08874e-07
2.07412e-09
2.13898e-05
-0.00902766
8.88818e-06
6.21915e-05
0.0402049
-0.00241533
-0.00818983
-0.000891248
1.00932e-06
1.1805e-07
3.36111e-05
5.8884e-08
-0.00129257
4.92996e-05
6.87624e-07
-0.00947963
-0.00150533
1.81262e-06
1.38807e-06
3.48848e-07
0.0186917
1.06776e-06
7.6432e-08
3.50862e-07
-1.60786e-07
-4.42685e-08
5.66935e-08
5.64322e-07
0.000497738
2.90697e-07
0.0694058
7.70612e-05
2.00639e-06
1.701e-05
5.37591e-06
-1.27605e-08
0.000227544
1.93992e-08
1.19673e-09
-0.000290217
-0.0449689
9.83369e-08
-7.02842e-05
5.08349e-06
-2.15587e-05
-0.013361
2.87504e-07
-0.000526375
3.50215e-08
0.358561
2.84983e-06
-0.00336034
-2.90109
0.0495376
-0.00561956
0.152734
0.00174978
3.81958
-0.00579158
3.19764e-06
-0.00800362
4.88159e-07
0.00518556
-0.00614734
2.991e-05
2.63417e-07
2.57843e-06
1.01251e-06
-0.00510527
-0.00932417
5.51006e-07
7.89677e-07
1.31427e-07
0.000108181
-0.00360763
1.11485e-08
0.000127123
-0.00899775
2.2211e-07
0.00169208
8.8777e-07
3.54938e-07
1.09583e-06
1.49962e-05
0.000612849
-0.00410956
-0.0161304
0.00247947
0.000960537
-0.00029555
1.36429
0.0126517
-0.533959
-0.0149881
8.48414e-07
0.000158724
2.18974e-09
-9.67929e-08
-1.72631e-08
5.50548e-05
-7.99781e-09
7.79487e-07
-0.295528
6.46316e-06
8.42679e-06
9.20986e-06
2.1561e-05
9.29209e-08
0.000428876
4.06379e-08
3.27774e-06
0.000511585
5.17457e-05
-0.00282753
-6.81666e-06
3.90522e-06
5.80468e-05
-0.00366532
0.265331
2.92183e-06
-0.0104618
5.51126e-06
-6.49224e-05
-2.54749e-08
3.02872e-06
8.45613e-06
0.00325844
3.61944e-05
-0.100572
1.1682e-05
0.366123
-0.00485461
-0.012753
-4.95451e-06
5.65091e-08
1.06559e-06
-0.00552406
6.75299e-05
0.00428717
-0.00125866
-2.08321e-08
1.88678e-07
1.67076e-07
1.76525e-06
6.53813e-05
-0.00104324
0.000151469
3.27657e-07
7.67488e-07
6.3814e-07
-8.17017e-05
-0.0116383
2.99915e-07
-2.83573e-05
7.28247e-05
1.99524e-08
0.000572665
-0.00276217
-0.00281409
0.0138389
3.69964e-08
5.6616e-05
-0.00549457
-0.000185558
1.6144e-05
-0.00141513
-0.00571465
2.22234e-06
2.20341e-07
6.51724e-07
1.99892e-07
4.31923e-06
-0.000956825
3.37919e-07
-4.66961e-08
5.84635e-05
1.59792e-05
-0.000818779
8.25515e-06
1.09246e-05
9.29948e-06
0.000785616
2.69829e-06
-0.00727288
2.21925e-06
-3.59828e-09
7.57565e-05
2.61624e-05
1.17664e-07
1.87575e-06
5.27912e-05
-0.00492123
8.7039e-06
7.94824e-06
0.000141197
-0.000503942
7.90681e-06
0.00252655
-0.00084284
1.79609e-05
1.52099e-07
7.02815e-07
0.000338856
-0.0228662
2.54216e-05
-4.44871e-05
2.54828e-07
0.000102512
1.27983e-07
8.07723e-06
-0.00272179
8.31093e-06
2.89618e-06
2.39502e-06
0.946753
0.000175225
4.32671e-09
0.00188053
1.7718e-05
2.89608e-06
0.000132801
8.41439e-09
5.98777e-05
-0.30318
0.000658952
-0.110161
0.00033908
0.397075
0.00183466
0.000118873
2.19465e-07
1.18616e-09
-5.43304e-06
0.000537503
-0.0101987
1.81084e-05
3.17726e-06
2.50357e-06
-0.007849
0.000136084
-0.0117283
4.53229e-06
8.17246e-07
-0.00116476
-0.00562936
4.27024e-07
2.72923e-06
1.08021e-06
2.23914e-05
5.71149e-06
4.08108e-06
1.28251e-05
2.9414e-05
1.5615e-05
-0.000371854
1.38738e-06
6.52533e-06
-0.00485105
2.70378e-07
0.000135416
3.09032e-07
1.5799e-05
-0.00303033
1.34051e-05
1.98034e-05
1.51671e-07
5.8472e-07
0.000123038
4.78222e-07
1.07197e-06
-3.28213e-09
2.4763e-05
0.000419086
1.36961e-05
3.95504e-05
2.10309e-08
1.4622e-07
2.24146e-05
0.00650051
-0.00507707
1.57213e-05
-0.000775857
1.42743e-05
5.57006e-06
8.06585e-06
0.111342
3.20165e-06
-4.8909e-08
-1.92446e-08
0.0136618
2.00854e-05
0.000129998
-5.45609e-08
-4.42127e-09
-0.002127
2.52738e-06
2.56318e-06
-0.0018561
9.69426e-06
1.59339e-06
2.46855e-07
3.12074e-05
0.208859
7.89652e-05
1.08345e-07
-9.34785e-06
8.70703e-06
1.23807e-07
1.33614e-07
3.31089e-05
1.10789e-05
0.000150202
8.71246e-07
3.60035e-05
3.82847e-05
-0.000167084
1.73342e-05
-0.0110866
-6.35966e-05
2.80582e-06
-0.00107415
0.117888
-0.0138944
3.57014e-05
3.5453e-05
4.08585e-07
2.02246e-06
1.81564e-05
-0.00226628
0.035063
-5.05503e-08
-0.00488932
-4.51393e-08
2.75308e-05
-0.000479803
1.98863e-05
2.26839e-06
-0.36876
-0.0548219
3.45931e-07
-5.3136e-09
2.97926e-05
1.27676e-07
2.06421e-05
0.000142991
1.77597
2.29416e-05
1.69578e-09
5.59572e-07
2.30596e-05
2.73215e-05
0.00065719
1.46573e-06
0.00693545
3.14503e-05
0.00125237
-9.60033e-07
-0.00539952
0.00970277
0.000102647
-0.0194122
0.000404672
1.24768e-05
-0.961432
1.35359e-05
0.000228148
5.7268e-07
1.5842e-07
-0.000298357
1.97462e-07
0.000158295
0.604215
5.37928e-05
1.4335e-05
-0.00601463
3.57301e-05
6.98127e-06
-0.00307217
1.41192e-07
-0.804044
-0.00741183
-4.96115e-10
-0.00607633
0.00238807
-0.00726698
0.000181874
0.00107189
-1.94263e-05
3.90483e-09
0.000131267
4.0578e-05
-0.00171714
0.000271694
2.93597e-05
3.28205e-05
1.58537e-05
9.96374e-05
1.17027e-05
0.737353
-0.0234336
8.31096e-06
7.56053e-07
2.23728e-06
-0.000312433
2.90202e-05
1.91024e-06
1.44451e-05
0.468411
1.82488e-05
-4.60956e-08
3.20679e-05
9.22613e-07
-4.18699e-08
1.41311e-05
-0.000660166
2.41964e-08
0.000482233
2.81086e-09
1.11828e-07
-8.61852e-07
2.64761e-05
0.000507845
3.01456e-08
1.31891e-06
-0.00127659
3.12196e-05
-2.93921e-09
-0.0022796
-0.000351302
1.5518e-05
-0.0281916
5.58467e-06
2.85787e-05
0.00486109
2.97114e-05
0.771008
0.000577731
5.94954e-05
3.37165e-05
3.08015e-05
3.92912e-07
1.72868e-07
8.57146e-07
3.75952e-05
0.00423412
0.00289157
5.20819e-06
0.000129112
9.88774e-08
3.89114e-07
3.45431e-06
0.00301596
1.24095e-05
2.34121e-05
4.59408e-06
-3.41081e-08
0.00049829
1.0031e-08
3.88147e-07
-0.0251859
1.38126e-06
4.45243e-07
2.52885e-07
2.49143e-06
5.50047e-06
0.00022583
-0.000194094
1.41059e-07
3.30707e-07
5.83357e-05
6.1194e-06
8.69936e-06
-0.000866937
-0.511818
0.0030971
5.65622e-07
-2.89784e-05
-0.00490414
-0.0141235
-0.0282284
-2.43673
1.2179e-05
1.98845e-08
0.000813304
3.12348e-05
-0.000839483
5.06432e-06
8.23905e-07
4.88171e-06
1.50417e-06
-0.000613981
0.000358136
8.36968e-06
2.60409e-05
0.00288879
9.06079e-07
-0.372194
-0.00447936
4.55336e-06
0.000159654
-0.00937515
1.04859e-07
0.0013621
-0.00386424
2.30425e-06
3.03183e-08
0.0070445
1.09217e-06
-2.66341e-08
4.71164e-06
0.732406
-0.00048894
2.98419e-07
3.01205e-05
5.77134e-07
0.00131745
-0.000924999
-4.24472e-08
2.54479e-07
0.000845139
-0.00397341
-0.00556659
4.26832e-07
3.48471e-07
1.23353e-06
-4.31198e-05
3.46804e-05
1.58063e-05
1.06058e-06
1.45006e-05
-0.00485209
-7.48725e-05
3.52738e-07
-0.00485234
2.95212e-05
9.82675e-07
1.62903e-06
1.21747e-05
4.09561e-08
0.000198693
3.30072e-05
-0.00423153
0.000179832
3.31927e-05
-0.000793104
-0.000274588
0.000609608
0.000140183
-0.000200316
-0.00564064
3.07294e-05
-0.00280395
-0.00195306
-0.000287949
3.2292e-05
0.00481107
-0.000400314
7.7197e-07
7.72026e-06
0.00022633
-0.000743969
0.000344645
-0.00276836
1.16637e-06
2.97984e-07
-3.74159e-06
2.34883e-07
5.91064e-08
8.15192e-06
0.000104542
-8.55279e-06
2.84158e-05
0.00593161
2.42988e-06
7.83583e-06
8.65471e-08
4.16614e-08
-2.98698e-05
5.92646e-06
1.06716e-05
2.89807e-06
1.4326e-08
0.0803069
1.33311e-07
-2.20944e-08
8.3633e-05
7.24501e-06
-0.000448462
0.00116863
0.0399184
2.97225e-05
6.86793e-06
2.67076e-06
0.000253052
4.29892e-07
-0.0496487
2.46081e-05
5.45232e-06
-3.26947e-08
-0.00290693
0.000798965
-0.00207887
-0.00163971
3.11336e-07
1.39472e-06
1.03463e-05
-0.126086
7.45841e-06
3.38801e-07
6.24869e-05
3.22859e-05
-0.000380915
-0.00473913
-2.64646
1.94254e-05
2.02557e-06
0.179642
5.04987e-06
1.22771e-05
8.01741e-08
1.20196e-05
3.73869e-05
0.000196291
0.023322
1.45288e-06
1.42492e-05
1.15181e-05
6.9527e-07
-0.00151046
3.09331e-05
1.31971e-05
-0.160843
0.543019
6.54021e-08
2.48708e-07
1.29064e-05
-0.00554101
2.16462e-07
-2.75929e-05
1.63286e-05
2.5669e-06
0.000982707
-0.000383827
5.51966e-06
-0.0129488
8.06266e-07
-0.00264003
2.99629e-05
8.95624e-05
-0.000122932
5.32987e-06
0.0020888
-0.00255352
-8.30781e-08
2.11427e-05
0.000136722
3.70474e-07
3.71238e-05
2.86762e-05
9.74388e-05
1.47658e-06
1.64013
5.01438e-07
0.000278789
2.74206e-05
3.48335e-07
-0.00268405
0.00118765
6.24807e-07
9.38929e-05
1.00348e-08
2.39645e-06
8.33095e-08
3.52878e-06
1.38787e-05
5.09425e-05
-6.78571e-08
8.98643e-06
0.00019139
-0.000432662
4.31544e-06
7.74607e-05
1.03206e-06
3.76195e-06
1.47617e-07
0.00106413
1.18062e-07
7.25093e-06
0.00116056
9.72569e-05
4.98047e-07
-3.06893e-08
9.14284e-08
0.000225921
7.40114e-09
3.20355e-06
0.0301874
1.62321e-05
-0.163188
0.000505393
1.97578e-06
0.00284091
0.163755
1.13448e-08
1.12485e-07
-0.00406305
6.13421e-05
4.73269e-05
3.65705e-09
1.55503e-07
3.24694e-07
4.74767e-06
-0.0012156
-0.00545345
7.19607e-07
0.000247676
5.75379e-05
1.3981e-05
2.82594e-07
2.27819e-09
-0.00127896
2.69798e-06
1.25971e-06
0.576625
16.1562
2.70583e-07
3.12835e-07
2.61554e-08
-0.00124044
1.76165e-06
5.06363e-07
-0.00174821
-0.000794417
2.9358e-07
-3.4623e-05
1.97985e-06
0.0373939
-0.000414752
1.72333e-08
-0.01146
1.0544e-05
0.000108841
2.13304e-07
0.531297
5.94188e-05
0.000176934
-0.00166616
-0.00567406
3.07624e-07
-0.00132902
-5.99891e-09
1.46125e-07
-0.000619836
7.19077e-07
0.00354634
5.14525e-06
-12.6259
1.69986e-07
0.00478028
-0.00407333
6.48242e-07
1.21104e-09
0.0184005
-0.000437998
9.21924e-06
1.04547e-08
2.02355e-05
6.21451e-05
2.13528e-05
1.89911e-07
-0.0117205
3.9661e-06
1.59804e-05
4.89929e-06
0.0013137
0.000997491
1.24163e-07
-0.0020927
2.39511e-06
-0.0020155
1.9876e-09
2.22289e-06
0.000160934
0.000261127
-0.00271013
8.71735e-08
1.35931e-07
2.11245e-07
2.42666
0.00109413
-0.00584753
-0.0143157
0.00260375
2.01062e-07
1.1145e-07
3.13154e-07
0.00220464
2.93325e-08
0.00157822
-0.0032658
2.27626e-06
0.000462586
4.94785e-05
0.000720745
0.00147225
2.18621e-08
1.50874e-07
-0.00825353
0.00152676
2.92171e-07
3.62942e-06
0.00172454
-0.370137
7.5327e-06
-0.886804
6.17155e-07
1.24778e-06
-0.0116777
-0.00967959
1.27366e-08
4.76972e-06
1.08949e-06
-0.000718189
-0.00817372
6.92103e-07
5.48713e-08
-9.39829e-06
2.24892e-07
5.39182e-06
3.99478e-06
1.28723e-07
-0.00461055
0.00037402
1.85391e-05
4.73842e-06
5.17023
9.67529e-08
-2.86109e-08
8.73228e-08
-0.00740767
0.000437951
2.51593e-06
8.20514e-08
-0.00030722
1.62944e-05
-0.00694099
7.59399e-07
-0.00602117
-0.00135997
-0.00753108
9.59212e-08
-1.70573e-07
1.06716e-07
-0.000215794
-0.0196609
0.0264083
1.03002
0.000157457
5.35734e-08
0.0600919
-0.447517
0.0472959
-5.99153e-05
4.47125e-08
6.03423e-07
3.31487e-07