/*--------------------------------*- C++ -*----------------------------------*\
| =========                 |                                                 |
| \\      /  F ield         | OpenFOAM: The Open Source CFD Toolbox           |
|  \\    /   O peration     | Version:  v2012                                 |
|   \\  /    A nd           | Website:  www.openfoam.com                      |
|    \\/     M anipulation  |                                                 |
\*---------------------------------------------------------------------------*/
FoamFile
{
    version     2.0;
    format      ascii;
    class       surfaceScalarField;
    location    "100";
    object      ddtCorrDdt0(phi);
}
// * * * * * * * * * * * * * * * * * * * * * * * * * * * * * * * * * * * * * //

dimensions      [0 3 -2 0 0 0 0];
oriented        oriented;


internalField   nonuniform List<scalar> 
21991
(
-4.55284e-05
4.82701e-05
-2.74168e-06
1.87855e-05
-1.54397e-05
-3.34595e-06
1.79273e-05
-1.26263e-05
-5.30106e-06
2.13535e-05
-2.19403e-05
5.8672e-07
-1.25822e-05
2.97524e-05
-1.71708e-05
2.89528e-05
-1.39223e-05
-1.50307e-05
3.63152e-05
-2.13513e-05
-1.49633e-05
-2.19586e-05
2.50884e-05
-3.13109e-06
-1.6306e-05
8.52598e-06
7.78089e-06
6.77994e-07
-5.57406e-07
-1.20757e-07
7.01736e-06
1.27128e-05
-1.97504e-05
1.18104e-05
-1.72855e-05
5.4757e-06
3.44734e-06
1.95518e-05
-2.29983e-05
6.38625e-06
-2.40141e-05
1.7628e-05
3.27255e-05
7.05448e-06
-3.97822e-05
4.14418e-05
1.46332e-05
-5.6074e-05
7.72024e-06
-2.03027e-05
-2.47043e-05
2.40162e-05
6.88063e-07
-1.93981e-05
1.93982e-05
-1.703e-05
1.03035e-05
6.72613e-06
-8.96004e-07
8.94069e-07
-2.25095e-05
3.21339e-05
-9.61637e-06
-3.15603e-05
1.52812e-05
1.62789e-05
-2.96059e-05
3.5172e-05
-5.56511e-06
-4.88378e-05
9.8025e-06
3.90356e-05
-3.89008e-05
9.29554e-06
1.33978e-07
-1.40608e-05
1.39266e-05
-2.80169e-05
1.36105e-05
1.44062e-05
-4.47307e-05
5.18113e-05
-7.08051e-06
2.9329e-05
-1.63765e-06
-2.76918e-05
3.68007e-06
2.60197e-05
-2.97e-05
6.86695e-06
2.17699e-05
-2.86375e-05
-1.34413e-05
-3.589e-06
-3.42905e-05
2.68859e-05
7.40431e-06
3.87079e-06
-1.24459e-05
8.57515e-06
2.11755e-05
1.514e-05
1.69707e-06
-2.19585e-06
4.98517e-07
-4.01158e-08
2.07649e-06
-2.0362e-06
8.07893e-05
1.16309e-05
-9.24174e-05
-1.04612e-05
-3.19374e-06
1.36553e-05
1.07402e-05
7.18709e-06
1.28716e-05
-9.00073e-06
-1.75068e-05
2.6757e-05
-9.24016e-06
-2.63158e-05
1.43491e-05
1.19669e-05
1.10994e-05
1.86532e-05
-2.35304e-05
2.51567e-05
-1.62679e-06
-4.07312e-06
-5.4108e-06
9.48452e-06
-1.05542e-06
-2.1494e-05
2.25493e-05
8.74799e-06
-3.12558e-05
1.35845e-05
-2.90769e-05
1.55162e-05
-1.58549e-06
-2.38296e-05
2.54149e-05
2.78972e-05
-3.23831e-05
4.48555e-06
9.65535e-06
-1.57611e-05
6.10544e-06
-2.33261e-05
2.642e-05
-3.09365e-06
1.27531e-05
1.47934e-05
-2.75243e-05
1.07478e-05
-3.13399e-05
2.0592e-05
-2.34224e-05
3.12712e-05
-7.849e-06
4.61544e-05
-4.32559e-05
-2.89841e-06
-1.02908e-05
1.27456e-05
-2.45412e-06
-2.5922e-05
2.39075e-06
-2.7004e-05
2.5008e-05
1.99582e-06
-2.08828e-05
1.92974e-05
-1.63626e-05
2.17171e-05
-5.35484e-06
-2.59563e-05
3.67042e-05
1.05579e-05
-2.6921e-05
1.62428e-05
-8.13851e-06
-8.10461e-06
-9.81706e-07
8.6222e-08
1.32193e-05
1.74142e-05
-3.06331e-05
-3.10484e-06
2.63193e-06
4.72757e-07
4.90152e-05
-5.90915e-05
1.00755e-05
-6.8387e-06
2.63486e-05
-1.95097e-05
-1.64775e-05
1.66114e-05
-4.27244e-05
2.61725e-05
1.65332e-05
2.87656e-05
3.76473e-05
-6.64127e-05
-2.85461e-05
1.02013e-06
2.75264e-05
-1.15231e-05
6.05369e-05
-2.39659e-05
9.24875e-06
1.47182e-05
4.97143e-06
1.38139e-05
-2.1795e-05
-5.831e-06
2.76273e-05
-1.53182e-06
-2.48864e-05
2.64243e-05
-2.97332e-05
-3.7812e-06
3.35154e-05
7.7021e-06
8.54077e-06
2.58399e-05
1.88236e-06
-2.77229e-05
-2.74921e-05
-1.05412e-06
-1.17403e-06
1.05611e-06
1.17902e-07
-2.82483e-06
-2.56442e-05
2.84668e-05
1.76142e-05
-5.19202e-06
-1.24223e-05
-2.41123e-05
2.45035e-05
-3.91429e-07
1.76247e-05
-1.47219e-06
-1.61527e-05
-1.07686e-05
-1.72483e-05
-3.77734e-06
-2.71558e-05
3.09331e-05
4.91747e-06
-2.69552e-05
2.20381e-05
-1.77875e-05
9.64625e-06
8.14185e-06
-2.73996e-05
2.22008e-06
2.51794e-05
1.15826e-05
2.0049e-06
-4.33346e-06
-1.96321e-05
1.42379e-06
-2.43745e-05
3.12413e-05
-2.68925e-05
-2.78608e-06
2.9679e-05
-4.16832e-05
4.87328e-05
2.71934e-06
-4.59751e-05
-6.13119e-06
6.84689e-05
-6.23384e-05
-1.10098e-06
-7.3168e-08
1.3453e-05
-2.61392e-05
1.26859e-05
-1.87194e-06
-9.77715e-06
1.1649e-05
-6.43295e-05
5.81981e-05
-3.10028e-06
1.49107e-05
-2.82762e-05
4.10404e-05
9.7847e-06
-1.49619e-05
5.17693e-06
-2.46293e-05
2.8309e-05
1.92636e-05
-1.3265e-05
-5.99861e-06
2.61083e-05
-3.20668e-05
5.95838e-06
-1.3283e-05
-4.50499e-06
3.30579e-05
-3.35792e-05
3.21335e-05
-6.02528e-06
1.09447e-05
-4.0677e-05
-1.82291e-05
1.1702e-05
6.52708e-06
-2.58742e-05
2.20974e-05
-1.02785e-06
-6.8981e-08
1.09689e-06
-1.64083e-06
-2.30635e-05
9.10788e-06
-5.44846e-06
-3.65924e-06
1.5764e-05
1.86057e-06
-3.33661e-05
3.29833e-05
3.8302e-07
2.77505e-05
-4.88654e-07
-2.72621e-05
-1.23389e-05
2.04847e-06
-1.26828e-06
1.22815e-06
-1.03984e-05
6.38999e-06
4.00852e-06
1.98393e-05
1.40803e-05
-3.5356e-05
2.12756e-05
-2.64664e-05
-4.08046e-06
3.05466e-05
-3.07403e-05
4.27389e-06
1.0174e-05
-3.02315e-05
2.00572e-05
4.74237e-05
-3.87131e-05
-8.71043e-06
-3.68553e-05
4.1873e-05
-5.00932e-06
8.61654e-06
-6.9032e-06
-1.71358e-06
2.74449e-05
3.05552e-07
-1.06253e-05
-1.56903e-05
8.78162e-05
5.76396e-05
-0.000145268
-2.82838e-05
4.87148e-07
2.77965e-05
-3.26024e-05
-1.68813e-06
1.72121e-05
-9.05747e-06
-8.15488e-06
2.64293e-05
-6.36968e-05
3.72681e-05
2.83877e-05
-4.90541e-07
-2.50695e-06
-5.93453e-05
9.91813e-06
4.94276e-05
-2.0415e-06
-1.06344e-06
1.16221e-05
-1.34941e-05
-4.5465e-06
1.43309e-05
2.77845e-05
-4.00914e-05
1.23131e-05
3.67528e-05
-3.67534e-05
-7.91757e-06
-8.38614e-06
3.77782e-05
-3.77781e-05
-1.44364e-05
3.9754e-06
-4.79773e-06
-1.24115e-05
1.72092e-05
2.83724e-05
-2.53025e-06
-4.02422e-05
4.29616e-05
9.50519e-06
-1.50287e-05
5.52382e-06
0.000107761
-5.71831e-05
-5.0577e-05
4.92708e-05
-4.96227e-05
3.52117e-07
-2.32299e-05
5.10187e-05
8.46577e-06
-1.05358e-05
2.06988e-06
6.14306e-06
-2.20298e-06
-3.94023e-06
3.5185e-05
1.22388e-05
-4.88373e-05
-2.48363e-05
2.96553e-05
-4.81912e-06
-4.56541e-05
5.41182e-06
2.08032e-05
-2.18582e-05
-1.17047e-05
3.43907e-05
-2.26859e-05
-3.08044e-05
-9.0336e-07
3.17075e-05
-2.44649e-06
-1.95123e-05
1.44846e-05
-1.81049e-05
3.62054e-06
-5.21461e-06
2.97236e-05
-2.45122e-05
1.58068e-05
-2.28549e-05
7.04856e-06
3.90933e-05
-6.36944e-06
7.81843e-06
7.97679e-07
-6.56614e-05
2.8781e-05
-9.81424e-06
-1.51844e-05
2.49985e-05
3.28202e-05
-2.84098e-05
-4.41097e-06
2.34691e-05
-8.52294e-06
-1.49464e-05
-3.60452e-05
1.26228e-05
2.27466e-05
6.20637e-06
-5.14953e-05
-3.88571e-05
9.03467e-05
7.61883e-06
-2.95944e-05
2.19749e-05
2.35444e-05
8.26016e-06
2.21943e-05
-1.72767e-05
5.6944e-05
-5.50757e-05
-1.86814e-06
3.33967e-06
-2.5765e-05
2.24236e-05
-2.3128e-05
2.64673e-05
2.60566e-05
-3.2291e-05
6.23443e-06
3.33433e-05
-1.65322e-05
-1.68116e-05
-1.20617e-06
-1.62986e-05
3.09964e-05
-3.50695e-05
-2.72973e-05
5.49658e-06
2.18004e-05
-2.04546e-05
-0.000104298
0.000124827
-9.06394e-06
1.07611e-05
-6.82285e-06
1.90129e-05
-1.21902e-05
5.64691e-05
1.19998e-05
-6.58382e-06
-1.65883e-05
2.31724e-05
2.37896e-05
-3.5229e-05
1.14389e-05
3.02636e-05
-1.84245e-06
-2.84212e-05
5.97932e-05
5.86768e-06
-6.56646e-05
1.33353e-05
2.00075e-05
4.48176e-06
2.36e-05
-2.80818e-05
3.20849e-05
4.13608e-06
-3.62227e-05
-2.88939e-05
2.43371e-05
4.55703e-06
4.77318e-05
-4.59711e-05
-1.76065e-06
-2.47082e-06
1.19761e-05
7.43693e-05
-8.31853e-05
8.8251e-06
1.03161e-05
-3.61903e-05
-3.25719e-05
8.94274e-06
2.36295e-05
-3.06246e-05
-1.79959e-07
1.2334e-06
-2.16342e-05
2.04008e-05
3.08288e-05
-1.76092e-05
-1.14161e-06
9.60724e-06
-3.44142e-05
1.28027e-05
2.16115e-05
2.1891e-06
-3.0473e-05
1.50416e-05
1.24147e-05
9.97979e-06
-2.23944e-05
4.49554e-06
1.33063e-05
-1.78015e-05
-2.50389e-05
1.319e-05
1.18492e-05
-3.22504e-05
7.60294e-06
2.46482e-05
-1.64687e-05
9.19887e-06
7.27111e-06
-3.49436e-06
2.72838e-05
2.2479e-05
-2.76926e-05
-2.37747e-05
2.67781e-05
-3.00417e-06
-1.431e-06
4.4757e-05
-4.32226e-05
1.69022e-05
-1.39749e-06
-1.55046e-05
-1.35365e-05
1.24794e-05
1.05682e-06
1.76604e-05
-4.34549e-05
2.57946e-05
-2.31988e-05
3.32406e-05
-1.00401e-05
2.78795e-05
-2.95086e-05
1.62861e-06
-2.63708e-05
3.08527e-05
-1.32417e-05
1.7737e-05
-6.19558e-05
3.29583e-06
5.86598e-05
-6.32018e-05
4.77631e-05
1.54388e-05
1.13958e-06
-1.11517e-06
-2.45614e-08
-2.77249e-05
4.46462e-06
2.32604e-05
5.63105e-06
-8.01674e-06
2.3858e-06
2.10767e-05
-3.13202e-05
1.02379e-05
-1.45687e-05
-1.65099e-05
3.10789e-05
6.88112e-07
-3.73376e-05
3.66576e-05
2.39538e-05
-1.73348e-05
-6.50379e-06
6.93614e-06
-3.38299e-05
-1.06899e-05
-1.95782e-07
2.26304e-05
-2.24345e-05
2.26646e-05
-2.54905e-05
-3.35562e-05
2.79042e-05
5.65146e-06
2.23753e-06
-2.7074e-05
-1.74798e-05
-3.34372e-05
8.80773e-06
0.000323056
-0.000204659
-0.000118392
-2.0585e-05
1.37621e-05
-2.05792e-06
-6.45144e-06
8.50925e-06
1.81385e-05
-1.3167e-05
2.90015e-05
2.20975e-05
-5.1099e-05
-9.3503e-06
-1.95431e-05
-3.85489e-06
2.40166e-05
-2.01622e-05
-3.38743e-05
1.41982e-05
1.9676e-05
2.37456e-05
-3.05844e-05
1.13945e-05
-8.97222e-06
-2.42179e-06
-2.55723e-05
8.90857e-06
1.66633e-05
-4.00226e-06
3.00586e-05
-1.44805e-05
-2.08753e-05
-2.73247e-05
8.83639e-06
1.84914e-05
0.000159552
0.000126052
-0.000285577
-2.90631e-05
6.82047e-07
2.83809e-05
-1.73008e-05
1.48299e-05
-2.49266e-06
-1.92667e-05
2.17586e-05
2.5856e-05
-3.73163e-05
1.14601e-05
4.64276e-05
-4.65405e-05
1.12852e-07
-8.33958e-05
3.18994e-05
-5.51747e-06
6.65402e-05
-6.10214e-05
2.82057e-08
9.51369e-06
-1.25196e-05
3.00816e-06
9.00123e-05
-6.35978e-05
-3.4079e-05
4.11339e-05
9.34694e-06
1.38753e-05
-2.32223e-05
-8.39182e-07
-5.85059e-05
1.62635e-05
-3.10807e-05
1.48129e-05
-6.61137e-05
1.78315e-06
6.12814e-06
-4.97112e-07
7.87591e-06
1.605e-06
-9.48095e-06
-2.7254e-05
1.55492e-05
-2.09421e-05
-6.06179e-06
-2.58267e-05
4.71271e-05
-2.12952e-05
-5.7681e-05
5.63507e-05
2.6748e-05
-1.04837e-05
-6.89481e-06
-1.72176e-05
1.07968e-05
-2.76653e-05
1.68674e-05
1.36678e-05
8.16851e-07
-1.36034e-05
2.60179e-05
1.79726e-06
-3.16471e-05
2.98497e-05
8.93622e-06
2.67406e-05
-2.47441e-05
-1.99676e-06
7.69073e-06
-2.16129e-05
4.22666e-05
-7.72103e-06
-3.45496e-05
-1.33883e-05
2.35621e-05
-2.50665e-05
-1.79822e-06
2.68652e-05
1.62444e-05
-6.2647e-06
-2.32325e-05
-9.01794e-06
8.45007e-07
1.94754e-05
-2.03205e-05
-1.82221e-05
1.48815e-05
3.34054e-06
-3.03834e-05
4.36455e-06
2.60188e-05
1.41052e-05
2.79675e-06
6.38587e-06
-2.81804e-05
2.69315e-05
-1.93126e-05
-6.28054e-06
8.7069e-05
6.42475e-05
-7.77857e-06
3.16983e-05
7.39362e-06
2.04616e-05
-1.59641e-05
5.35463e-06
2.49089e-05
-7.51504e-07
5.56184e-06
2.16066e-05
-2.71687e-05
-3.41738e-05
1.96049e-05
-3.27524e-05
6.17538e-05
-2.12928e-05
-1.31215e-05
-1.09251e-05
-1.46474e-05
-2.37655e-05
1.12976e-05
1.24588e-05
1.98738e-06
-2.52758e-05
2.32889e-05
-8.15109e-05
9.31411e-05
2.4794e-06
2.12706e-06
-4.6063e-06
-9.55986e-06
-8.66928e-06
-1.41493e-05
6.12644e-07
3.27363e-05
-6.88049e-06
-2.61884e-05
2.61885e-05
-1.13271e-09
1.56146e-05
-5.31109e-06
4.71518e-06
2.49107e-05
-2.9631e-05
-2.8244e-06
0.000239339
1.24009e-05
-0.000251736
4.43889e-05
4.8821e-06
-1.51278e-05
-1.10114e-05
1.21679e-05
-1.7839e-05
5.67076e-06
1.59575e-05
-2.57719e-05
-2.1397e-05
2.6959e-05
4.89915e-06
6.49574e-06
-1.96315e-06
2.79826e-05
-3.1447e-06
-1.50773e-05
-4.09698e-07
-2.46777e-05
2.39995e-05
6.78381e-07
1.91235e-05
-3.31684e-06
-2.0368e-05
-1.07904e-05
3.11635e-05
3.25197e-05
-5.63918e-06
-2.68806e-05
-3.13194e-05
-2.23701e-06
-2.03816e-05
-2.34103e-06
-2.50588e-05
-6.86709e-06
-3.23862e-05
3.92532e-05
-7.39713e-05
3.2586e-05
4.13813e-05
4.42746e-05
7.40958e-06
-5.16842e-05
1.80466e-05
-9.52047e-06
6.18962e-05
-2.10404e-06
5.96791e-05
-5.80092e-05
-1.66923e-06
-1.12711e-05
-2.26034e-05
1.29029e-05
-3.24758e-06
2.03113e-05
-2.28039e-05
-1.10824e-06
-2.35696e-05
3.13955e-06
-6.60112e-07
-3.21742e-05
2.31202e-05
9.054e-06
2.5957e-05
-2.59569e-05
-3.57909e-06
2.70718e-05
-2.34934e-05
6.73795e-06
-8.79595e-06
-2.45313e-05
2.45737e-05
-4.20888e-08
7.30498e-06
2.14482e-05
-2.87564e-05
6.38833e-06
-1.25791e-05
6.19088e-06
3.15645e-05
-1.04901e-05
-4.18984e-05
-3.82661e-05
8.01757e-05
5.83917e-05
-2.96261e-05
-1.54387e-05
2.47856e-05
8.07576e-06
-3.52314e-05
-3.24458e-05
2.50598e-05
7.38523e-06
9.69873e-06
1.16462e-05
-2.13451e-05
2.65683e-05
-1.28051e-05
-1.37626e-05
-7.06587e-06
8.1648e-06
-1.09943e-06
-2.59052e-05
3.49527e-05
-9.0477e-06
-1.29572e-06
1.34598e-05
-1.752e-05
4.05985e-06
5.37329e-06
3.5738e-05
-4.11908e-05
-1.94623e-05
1.92443e-05
-3.57022e-05
1.64588e-05
-2.10526e-05
-0.000103827
6.11106e-05
3.01642e-05
2.57489e-05
-2.58193e-05
7.04782e-08
-1.99017e-05
3.41544e-05
-1.42529e-05
2.36164e-05
-4.94428e-05
-3.30252e-05
8.93255e-06
2.40922e-05
9.04198e-06
-2.12625e-05
1.22203e-05
1.1368e-05
4.55849e-05
-5.69489e-05
-2.56837e-06
-9.31505e-06
4.095e-06
5.21939e-06
3.59245e-05
2.92081e-05
-1.8411e-05
-3.16378e-05
-5.31657e-07
-2.33164e-05
-9.78248e-09
-4.48654e-05
4.40753e-05
7.91841e-07
-6.79754e-06
-3.36122e-05
3.47444e-05
-1.13148e-06
-4.67607e-06
1.68438e-05
-1.31008e-05
6.81786e-05
-5.50753e-05
-7.06961e-06
3.72819e-09
3.73139e-05
-5.61838e-06
-1.77136e-05
9.20995e-06
8.50321e-06
1.96552e-05
-4.79192e-05
-4.14216e-05
4.67806e-05
2.28065e-05
9.35069e-06
-3.21575e-05
2.94219e-05
-2.59429e-05
-3.47561e-06
-2.93125e-05
-4.30001e-06
1.88309e-05
6.63868e-07
-1.81202e-06
-6.54866e-08
1.87728e-06
-2.74775e-05
3.70221e-06
3.27463e-05
-2.37488e-05
-8.9976e-06
-3.30209e-05
0.000356095
6.63668e-07
1.41971e-08
-2.71444e-06
1.78694e-05
-1.51551e-05
5.57507e-05
-1.05908e-05
1.21821e-05
-1.58922e-06
2.43164e-05
-2.67004e-05
2.38434e-06
-2.05004e-05
-1.84e-05
-2.94845e-06
-4.25798e-05
-1.16736e-05
-1.20992e-05
2.34646e-05
-2.27796e-05
-6.85047e-07
-2.89275e-05
-5.83516e-07
-1.9232e-06
6.87863e-06
2.25431e-05
-4.31343e-06
1.46797e-05
-1.03657e-05
-6.84626e-05
2.65662e-05
-2.00906e-05
2.64765e-05
8.75632e-07
-1.81186e-05
1.72432e-05
-2.82152e-05
1.05915e-06
2.71557e-05
-2.16551e-05
3.39595e-05
-1.23043e-05
7.77928e-06
-7.77934e-06
3.87255e-05
3.54571e-06
-9.44621e-06
6.46821e-06
2.97743e-06
-2.31022e-06
-3.02614e-05
-2.06794e-05
1.79195e-05
2.75931e-06
-1.65386e-05
1.73835e-05
-4.43068e-05
3.74397e-05
1.05636e-05
-2.41672e-05
-2.02058e-05
2.56435e-05
-5.43744e-06
1.15291e-05
-1.47228e-05
3.02821e-06
-7.69989e-05
1.51421e-05
9.61424e-06
-2.47572e-05
-2.72658e-05
2.6251e-05
-9.8754e-06
-1.63765e-05
-1.65644e-06
-2.07742e-05
2.2431e-05
1.36298e-05
-2.95054e-05
1.5876e-05
0.000120269
7.99476e-06
-0.000127987
1.78232e-05
6.20057e-06
2.61306e-05
6.8524e-06
-4.43732e-05
-6.3735e-06
5.07467e-05
-2.75632e-05
1.47585e-05
-2.92218e-05
4.8793e-06
2.43423e-05
1.87239e-06
-1.67856e-06
-1.93943e-07
2.95134e-06
1.65776e-05
-1.95293e-05
7.40553e-06
1.68653e-05
-2.42707e-05
2.00918e-05
-1.71406e-05
5.37501e-06
1.76799e-05
-2.30239e-05
-1.88413e-05
2.6927e-05
-8.08573e-06
6.03361e-08
-0.000193235
-6.29552e-05
0.000256175
1.6499e-05
9.75177e-06
9.40652e-05
1.36907e-05
5.07344e-05
-4.56975e-05
-5.02881e-06
-1.54131e-06
-2.2473e-05
0.000219641
1.96713e-05
2.92911e-05
-3.54253e-06
6.24018e-07
6.36232e-05
1.98113e-05
3.65315e-06
2.42747e-05
-2.18463e-05
-2.42947e-06
3.85995e-08
2.49098e-05
7.83665e-06
-3.05059e-05
2.67592e-05
3.74652e-06
8.96569e-06
1.67054e-05
-2.56719e-05
1.158e-05
2.14796e-05
3.60194e-06
1.77519e-05
2.34924e-05
-3.93913e-06
-2.33686e-05
3.14446e-05
5.8953e-06
4.18365e-05
6.30366e-05
-9.3786e-05
3.07507e-05
-2.67513e-05
2.70987e-05
-3.47872e-07
-1.8199e-05
2.80633e-05
-9.86421e-06
1.72592e-05
1.68045e-05
-3.40637e-05
-6.82196e-06
6.75733e-07
-2.68644e-05
-2.72538e-05
2.54653e-05
1.78803e-06
2.45746e-05
-1.97547e-05
2.28158e-05
-3.06126e-06
2.55729e-05
-1.0431e-05
3.04908e-05
6.30256e-06
-3.67937e-05
-2.65801e-05
-6.7436e-07
3.47412e-06
3.35996e-06
-6.83392e-06
2.33518e-05
-3.42463e-05
1.08938e-05
-5.47535e-07
2.0937e-05
-2.03896e-05
3.45617e-05
-2.74922e-05
-7.06858e-06
-2.2583e-06
5.79835e-07
-1.65654e-05
-4.11309e-06
3.50836e-05
1.29892e-06
-3.63826e-05
6.93601e-07
-1.49528e-05
2.23584e-05
-2.75272e-05
-6.53143e-06
3.40574e-05
4.36783e-06
9.65796e-06
7.55407e-06
1.60777e-05
1.26045e-05
-2.86764e-05
-9.48398e-06
6.16588e-05
-5.21733e-05
1.10393e-05
-1.4341e-05
3.30132e-06
1.79369e-05
-1.21179e-05
-5.81882e-06
2.96674e-06
1.46474e-05
-3.00289e-05
1.6562e-06
2.83719e-05
4.24754e-05
3.95208e-06
1.34255e-05
-2.38658e-06
1.99473e-05
4.32658e-06
7.37538e-05
0.000145859
-5.98623e-06
-2.18582e-05
2.7844e-05
-1.28734e-05
3.00376e-05
-1.71648e-05
4.14532e-06
-6.23194e-05
5.818e-05
4.2587e-06
-1.4379e-05
1.01173e-05
-0.000101247
0.00011365
-1.41653e-06
-2.38544e-05
2.5269e-05
2.26969e-06
-3.31929e-06
1.04969e-06
3.56657e-05
-5.82622e-07
6.31902e-06
-2.84477e-06
-6.90409e-06
-2.04182e-05
1.15996e-05
-1.1154e-05
-4.46048e-07
-2.13887e-05
1.67125e-05
1.14771e-05
-1.8372e-05
-2.47812e-05
1.06714e-06
2.37134e-05
2.94782e-05
-2.53256e-05
-4.15255e-06
1.05825e-05
-1.64674e-05
5.88465e-06
1.84308e-05
1.61302e-05
-2.58413e-05
-2.37401e-06
9.73661e-06
2.0754e-05
2.04796e-05
-6.8691e-06
1.98514e-05
-2.25659e-05
-4.5722e-05
4.1943e-05
1.22434e-05
-5.85489e-06
5.72243e-05
-5.18368e-05
-3.12127e-05
1.08411e-05
-2.36472e-05
2.22286e-05
-2.54833e-05
-6.62909e-06
3.21094e-05
-8.05895e-06
-1.55588e-05
1.64339e-05
-2.12586e-05
2.59717e-05
-5.46855e-06
-2.49142e-05
-2.3655e-06
4.63529e-06
-5.05828e-05
6.20967e-06
5.63821e-06
5.04755e-07
4.77928e-05
-6.08918e-05
-2.40345e-05
3.43026e-05
-1.02705e-05
-2.51455e-05
6.30423e-06
-2.70309e-05
1.08749e-06
3.9823e-05
3.24523e-05
-7.22691e-05
1.40731e-05
-9.39061e-05
7.98368e-05
-2.56789e-05
2.41476e-05
8.6605e-06
-7.84684e-07
1.16599e-05
-1.48046e-05
1.18717e-05
2.6766e-05
-3.86361e-05
2.42216e-06
2.96613e-05
-5.38893e-05
5.37641e-05
1.29849e-07
4.77465e-06
9.85782e-06
8.07894e-06
-1.34673e-05
-4.93295e-07
1.39607e-05
1.38448e-05
1.29151e-05
1.93852e-05
-4.1366e-05
2.19773e-05
-1.30347e-05
8.72182e-06
2.30647e-05
-2.47209e-05
-1.10831e-05
3.21057e-05
-2.1023e-05
-2.34542e-05
2.91642e-05
-5.70946e-06
-1.18636e-06
1.23255e-05
-1.1139e-05
8.35882e-05
-5.95057e-05
-2.40807e-05
-2.46524e-05
3.43889e-05
8.55257e-06
-3.0356e-05
2.18033e-05
-2.27943e-05
1.39142e-05
-2.25438e-06
1.62227e-05
1.56084e-05
-3.18314e-05
-1.56782e-05
3.84847e-05
1.56099e-05
1.54188e-07
-3.93577e-06
-6.46251e-06
-5.52411e-06
-3.79104e-06
-2.65821e-06
-1.67399e-05
1.06463e-05
-1.69173e-05
3.53476e-05
1.05329e-05
1.5187e-05
-2.79814e-05
4.52673e-06
-1.1543e-05
-6.30814e-06
-3.43781e-05
1.89393e-05
-2.24415e-07
1.96228e-05
-3.8037e-06
1.72635e-05
2.46224e-05
-8.39982e-06
-5.28303e-06
-1.8293e-05
2.3576e-05
-3.1547e-07
6.72777e-08
2.48124e-07
-1.46197e-05
1.97815e-05
-5.16149e-06
-1.50298e-06
-1.63144e-05
3.34879e-05
-1.71545e-05
-2.78294e-06
-2.66551e-06
1.01058e-06
9.76295e-06
2.27567e-05
6.12976e-06
-2.43284e-05
1.43951e-05
1.2912e-05
-2.73081e-05
-3.26838e-05
2.33313e-05
9.35509e-06
-2.13354e-05
-1.29893e-05
3.43253e-05
-3.14206e-05
9.79086e-06
2.16295e-05
5.09511e-05
3.92349e-05
-9.00064e-05
3.38876e-05
-2.06147e-05
-1.32726e-05
4.00131e-05
8.00399e-05
-2.69292e-06
2.68124e-05
-2.41207e-05
1.28031e-05
1.33769e-05
3.62238e-05
-3.96301e-06
-3.22609e-05
1.65049e-06
1.39593e-05
2.37477e-05
2.35579e-05
-2.63322e-05
2.77361e-06
9.30756e-07
-2.27881e-05
-3.53439e-05
2.43662e-05
1.0977e-05
-2.60544e-05
-1.05547e-06
2.71099e-05
-2.35568e-05
2.47902e-05
1.49251e-05
-2.80225e-05
1.30969e-05
1.22263e-05
6.20889e-05
-1.30482e-05
2.36117e-05
3.62844e-06
9.07709e-06
-7.97845e-05
3.12535e-05
-7.6956e-06
-9.34986e-07
9.35027e-07
-6.17787e-06
-2.89613e-05
3.51391e-05
1.7914e-05
6.1139e-06
-2.40281e-05
-1.42793e-05
4.66097e-06
9.61858e-06
-6.03351e-06
1.37594e-05
-7.72677e-06
7.48621e-06
-6.60443e-07
-6.82561e-06
1.30221e-06
-2.29365e-05
-1.30324e-05
1.21209e-05
9.11428e-07
1.07469e-06
-1.53541e-05
5.74992e-06
-1.92171e-05
2.82658e-05
-3.50946e-05
6.82858e-06
1.86382e-05
-2.22179e-05
7.38516e-05
-3.62042e-05
1.2982e-05
-1.69938e-05
4.0118e-06
-0.00010415
5.93841e-05
4.47611e-05
7.13799e-05
-0.000128565
1.90568e-05
9.00672e-06
-1.40956e-05
1.56993e-05
-1.60392e-06
6.33019e-06
1.38159e-05
-2.01458e-05
-8.91471e-07
-1.55861e-05
-3.22034e-05
2.11203e-05
1.65883e-07
1.91077e-06
3.31241e-05
-2.89893e-05
-1.24557e-05
-1.25663e-05
2.50203e-05
-2.12095e-05
1.96684e-05
1.29346e-05
3.03237e-06
-1.52136e-05
2.98473e-05
-5.10667e-05
4.15826e-05
-1.42866e-05
1.37278e-05
-2.00594e-05
6.33119e-06
-5.37693e-06
2.14581e-05
3.48627e-06
-3.29131e-07
2.69719e-05
-2.66428e-05
-3.00152e-05
4.94864e-06
4.27971e-05
-4.47356e-05
1.9383e-06
-2.35609e-06
-2.37401e-05
2.60972e-05
1.10176e-06
-6.30578e-05
-1.63977e-05
2.89977e-05
-1.834e-05
1.04357e-05
-2.58062e-05
-4.69971e-06
4.61813e-05
3.74118e-05
-9.41063e-05
-1.00461e-05
9.34626e-06
1.486e-06
-1.08324e-05
2.23623e-07
-2.2164e-05
1.96725e-06
-2.74519e-05
-5.12114e-06
-2.67308e-05
-1.59522e-05
3.32112e-05
-3.09278e-05
9.59255e-06
5.12187e-05
-7.15465e-05
-1.56057e-05
1.58095e-05
-2.03973e-07
2.32665e-05
-3.41997e-05
1.09329e-05
-1.03566e-06
-9.06741e-06
1.0103e-05
-5.5465e-06
-1.78741e-05
2.34209e-05
4.88628e-05
-3.2224e-05
0.000106009
-7.37703e-05
-2.84406e-05
3.03591e-05
-1.91845e-06
1.92359e-05
-1.31791e-06
2.0377e-05
3.092e-06
4.51675e-07
2.35958e-05
-2.40446e-05
-2.12406e-05
3.11721e-05
-9.93214e-06
-2.36825e-05
-8.32713e-06
3.20102e-05
6.40968e-05
-2.4272e-05
-1.29721e-05
-1.94742e-05
-2.73797e-05
3.9251e-05
2.0337e-06
2.39233e-05
-1.00536e-05
2.99057e-05
-1.9851e-05
1.41751e-05
1.48852e-05
-2.90604e-05
-3.41663e-05
2.99398e-05
4.22657e-06
-7.58819e-06
-1.97095e-05
-4.8101e-06
2.40083e-05
-1.50653e-05
1.13713e-06
3.96708e-06
-5.10439e-06
1.82987e-05
-8.8912e-07
-1.741e-05
2.55803e-05
-2.19783e-05
3.36772e-05
-3.54358e-05
1.75689e-06
-1.33599e-05
8.16782e-06
-2.7358e-05
3.31976e-07
2.23509e-05
6.29524e-06
-2.8646e-05
-3.5981e-06
3.35195e-05
-2.99255e-05
-1.65366e-05
3.07117e-05
1.33203e-05
-1.69176e-05
3.59754e-06
-2.30151e-05
2.85114e-05
1.74779e-05
-4.15742e-06
-1.02025e-05
-2.03273e-06
1.22346e-05
-2.4266e-05
2.36616e-05
6.03895e-07
-1.5389e-06
-1.37996e-05
1.53379e-05
1.11999e-06
-3.03438e-07
-8.16705e-07
-9.67966e-07
2.19148e-05
-2.09471e-05
-2.72321e-05
4.59915e-05
2.25925e-05
-6.8584e-05
1.67814e-05
-2.83061e-05
1.15248e-05
-1.20702e-05
-9.62201e-07
1.9442e-05
-2.06753e-07
-2.03873e-05
1.53235e-05
-2.38938e-06
-3.21156e-05
1.08779e-05
-1.61144e-05
2.46669e-05
-1.92107e-05
2.81764e-05
-1.39795e-05
2.92604e-05
-2.68521e-05
2.83835e-05
-1.53163e-06
-1.73692e-05
-1.2938e-05
1.92684e-05
-3.96849e-05
2.64507e-05
1.32334e-05
-1.63037e-05
-1.80743e-05
-1.52853e-05
1.18966e-06
-2.98589e-07
1.49721e-05
-1.46737e-05
2.41491e-05
-9.22435e-06
-4.65155e-06
3.15374e-05
-5.28172e-05
-2.16277e-05
7.44439e-05
1.16414e-06
-1.17594e-06
1.05221e-05
-7.85585e-06
-4.89605e-06
6.0332e-06
2.97699e-05
-3.18853e-05
2.11558e-06
6.74837e-06
2.24589e-05
-3.43429e-05
7.47005e-06
2.68734e-05
-9.14966e-05
5.92746e-05
-2.96321e-05
-1.29534e-06
-2.26967e-05
2.88268e-05
4.44991e-05
-6.89281e-06
-3.76064e-05
1.61721e-05
-2.14554e-05
-7.57466e-06
2.05566e-05
2.71739e-06
-4.92035e-06
-2.91346e-05
-2.28632e-06
2.54533e-05
-1.10584e-05
1.48149e-05
-4.23266e-06
-5.33103e-08
2.08483e-05
-2.07955e-05
-6.87664e-05
3.10588e-06
1.56837e-05
7.42276e-06
-2.3106e-05
-2.69253e-05
2.44889e-05
2.43582e-06
2.59657e-05
2.02578e-05
2.80122e-05
-6.81317e-05
6.88232e-05
1.92484e-05
-8.43495e-07
-1.84057e-05
-4.41982e-06
-2.11944e-05
2.56106e-05
-2.65766e-05
-1.23823e-07
3.83892e-05
-2.37901e-05
-1.45987e-05
2.0103e-05
-3.01569e-05
-6.47423e-06
-1.6989e-05
2.34632e-05
-6.51243e-05
8.95661e-06
9.08998e-06
-4.8854e-05
2.54674e-05
1.24707e-05
2.14182e-05
2.83376e-06
-3.09593e-05
2.81258e-05
-3.0782e-05
-9.7543e-06
4.06716e-05
1.11547e-05
4.27977e-07
-1.15828e-05
-2.88497e-05
2.3666e-05
-2.56145e-05
1.94838e-06
-1.58349e-07
-1.57167e-07
1.74197e-05
4.75683e-05
-6.50165e-05
-1.74991e-05
1.66077e-05
2.60317e-05
4.61714e-06
-2.81738e-05
-3.68496e-05
6.02786e-06
3.08199e-05
1.03621e-05
-2.34104e-05
-2.29691e-06
6.75717e-06
1.13812e-05
2.94751e-05
2.91956e-09
2.7283e-05
-2.36386e-05
-3.64474e-06
9.92858e-06
-3.15836e-05
-4.47037e-06
4.58179e-06
-1.11628e-07
-3.54283e-05
-1.91009e-06
-4.54324e-05
2.58972e-06
-1.3705e-05
1.11148e-05
1.32685e-06
2.79384e-06
-4.12061e-06
2.26917e-05
6.65969e-06
-2.93558e-05
7.86035e-06
2.83635e-05
-0.000170126
-2.29849e-05
2.80484e-05
-2.52147e-05
9.01835e-05
-2.71473e-05
2.78058e-05
-4.13982e-06
1.01191e-05
-6.40042e-06
-1.97752e-05
2.6175e-05
1.95242e-06
1.02346e-05
-4.7568e-06
-1.36002e-05
1.83568e-05
7.82535e-06
2.89273e-05
2.49366e-05
-2.5552e-05
6.15049e-07
-3.4353e-05
1.55416e-05
-9.15157e-06
8.27533e-06
-4.9598e-07
-1.92659e-06
2.69862e-05
3.13592e-05
-1.86425e-05
-1.2717e-05
-1.62346e-05
3.35858e-05
-1.73515e-05
-2.76719e-05
2.2125e-05
-5.08093e-05
3.69391e-05
2.61982e-05
-2.78359e-05
-2.05598e-05
-1.3783e-05
-1.24037e-05
-1.97699e-05
6.69961e-06
-1.33563e-05
6.65644e-06
3.12635e-05
-7.9971e-06
1.09373e-05
1.54827e-05
2.59785e-05
2.89932e-05
-5.49697e-05
-5.89254e-06
2.58679e-05
-1.99756e-05
2.18476e-05
1.65417e-05
-2.14403e-05
1.4966e-05
-3.83069e-05
2.177e-05
-2.05633e-05
1.07861e-05
7.16636e-06
-5.98443e-06
-1.18221e-06
7.85145e-05
-4.37825e-05
-3.47757e-05
-2.6246e-05
1.96444e-05
6.60203e-06
-1.78289e-05
2.25797e-05
-3.94086e-07
-2.21853e-05
-3.68847e-05
-8.93249e-07
2.19387e-05
-8.21087e-06
1.9798e-05
8.60072e-06
-2.83991e-05
2.70418e-05
-2.45649e-05
-2.47584e-06
-1.59353e-05
-2.08189e-05
-8.91583e-06
2.87138e-05
3.08422e-05
-1.15977e-05
3.00565e-05
2.98106e-05
-1.93128e-06
-2.26261e-05
6.09484e-06
1.65311e-05
-2.87578e-05
2.43365e-05
8.1217e-05
1.31044e-05
-9.44055e-05
1.39824e-05
-2.33144e-05
9.33168e-06
1.61093e-05
1.24398e-05
-2.85493e-05
-1.45005e-05
-5.17334e-07
1.50177e-05
-1.83984e-05
-1.73031e-05
9.2861e-06
-2.7674e-05
1.84061e-05
-3.10542e-05
2.50813e-05
5.9754e-06
-8.04059e-06
1.41781e-05
-6.1371e-06
1.98296e-05
-2.00123e-05
2.575e-07
-2.17445e-08
-2.36611e-05
-2.86017e-05
1.71767e-05
1.14253e-05
-9.93283e-06
3.49184e-06
6.44091e-06
-1.01169e-05
1.61607e-05
-6.04323e-06
0.000107966
-0.000191148
9.71512e-06
3.4818e-06
-1.31971e-05
-1.14667e-06
2.8218e-05
1.47519e-05
1.80682e-05
2.55119e-05
-5.03931e-07
-8.3783e-06
1.31794e-05
-4.8015e-06
2.59874e-05
-2.63358e-05
3.48141e-07
-3.25091e-06
8.22686e-06
-1.67755e-05
8.54843e-06
2.13926e-05
-2.14461e-05
-1.04736e-05
-3.43918e-05
-1.24202e-05
-2.72652e-05
-1.68201e-05
2.20043e-06
2.01443e-05
1.63636e-05
-0.00014958
0.000133212
2.59001e-05
-9.5374e-05
6.75575e-06
8.86108e-05
-7.73805e-06
-2.2668e-05
2.5404e-06
2.76124e-05
-3.01526e-05
-2.57626e-05
-4.97784e-06
5.14648e-06
1.74669e-05
-2.26133e-05
-1.17021e-05
-1.11285e-06
1.2816e-05
1.84487e-05
-1.50145e-07
-4.06685e-05
5.04723e-05
4.45552e-05
1.2389e-05
1.36743e-05
-6.97486e-06
1.99317e-05
-9.15732e-06
-1.07743e-05
-2.97509e-05
2.35731e-05
-2.09828e-05
-3.50901e-05
-2.40206e-05
-6.20989e-06
4.16781e-07
-1.12361e-05
-9.70604e-06
3.79884e-08
-3.80634e-08
2.39291e-05
-9.9467e-06
1.18679e-06
-1.56872e-05
-3.08496e-05
0.000126929
-9.60832e-05
2.29964e-06
-2.32857e-05
2.09846e-05
1.00787e-05
3.29196e-05
-4.29949e-05
1.42125e-05
-9.0565e-06
-5.15678e-06
1.42665e-05
1.65758e-05
2.32956e-05
-1.21716e-06
-5.11678e-08
1.57278e-05
-2.86011e-05
-2.01096e-05
1.53529e-05
-7.3514e-06
-3.12129e-06
-6.81157e-06
-3.67675e-05
1.34643e-05
2.33038e-05
-1.22619e-05
1.10733e-06
-3.30616e-05
4.27336e-07
2.40761e-05
-8.02854e-06
8.9136e-05
8.40307e-07
-8.40428e-07
3.62705e-06
-2.6027e-05
1.78699e-06
2.42409e-05
-2.84182e-05
-6.78622e-08
-1.72327e-05
-1.97439e-05
-1.15803e-05
2.83272e-06
9.41019e-06
-2.93119e-05
1.79662e-05
-3.17137e-05
1.37471e-05
5.29252e-06
1.37274e-05
-1.90198e-05
-4.27056e-09
2.42399e-05
3.04336e-05
-1.46014e-06
-9.36855e-06
-1.32577e-05
6.27002e-07
2.33893e-05
-2.05333e-05
-5.81436e-05
7.86872e-05
6.65756e-06
-1.3616e-05
6.95845e-06
-1.08481e-05
2.62807e-05
1.17316e-06
-2.74546e-05
-7.94729e-06
-3.63559e-06
9.78657e-06
-5.98791e-06
-7.33001e-06
1.33179e-05
-2.9388e-05
3.19283e-05
4.8308e-05
5.45256e-06
-5.37607e-05
-6.1769e-06
2.18606e-05
-2.60756e-05
1.32879e-05
1.27876e-05
-8.30165e-06
2.53835e-05
-2.65304e-05
-7.07491e-08
-4.86756e-07
1.99756e-06
-2.47552e-05
2.27577e-05
-3.02351e-05
4.47229e-06
1.20673e-05
-2.18169e-05
1.08299e-05
9.10181e-06
1.39782e-05
-1.20252e-05
2.23101e-05
6.07745e-06
-1.61611e-05
9.62045e-06
6.54038e-06
1.30892e-05
-1.94897e-05
-2.16273e-05
2.62445e-05
1.73734e-05
2.27716e-06
-1.96506e-05
5.46873e-06
8.74339e-06
2.33679e-05
1.16529e-06
-2.45337e-05
3.45388e-06
2.9941e-06
-5.43729e-07
-2.45039e-06
-0.000421338
0.000358352
8.07111e-06
-2.57011e-05
2.04231e-06
2.36585e-05
2.98058e-05
-2.24127e-05
-7.39225e-06
-2.81355e-05
2.22457e-05
-1.23042e-05
-8.25917e-06
-3.74908e-05
5.67885e-06
3.18159e-05
-2.75058e-05
-3.54664e-06
-1.99678e-05
-3.51079e-05
2.27065e-05
8.37528e-07
-7.60293e-06
-2.88788e-05
2.85607e-05
3.17939e-07
1.49805e-05
-1.23906e-05
2.35973e-05
2.17501e-05
-4.52829e-05
-1.67427e-05
2.41259e-05
-7.3838e-06
2.24359e-05
4.60555e-06
-5.42088e-06
1.0071e-05
4.96082e-05
-2.00729e-05
1.33627e-05
6.71001e-06
2.10988e-05
-3.72522e-06
-9.12316e-06
-1.54804e-05
2.46034e-05
-3.25362e-05
4.76157e-06
2.77742e-05
2.72944e-05
-2.76235e-05
5.6652e-05
-5.85567e-05
1.90471e-06
3.79404e-05
1.38746e-07
-3.80792e-05
-1.15638e-05
2.16686e-05
-1.93688e-05
-1.26232e-05
-8.62974e-06
2.1253e-05
3.23971e-05
-4.13168e-06
-7.85157e-06
-4.49677e-05
2.84896e-05
-1.42232e-05
3.19505e-05
5.98985e-06
4.08233e-05
-7.16542e-05
2.6764e-05
2.05892e-05
-4.73532e-05
1.40981e-05
6.38145e-06
-1.04342e-05
-1.87877e-05
-3.51547e-08
-1.02397e-05
1.02738e-05
-5.12295e-05
-4.97788e-06
5.63339e-05
-2.74162e-05
-0.000365257
8.92388e-05
0.000276128
-7.36171e-06
2.62196e-05
-1.88629e-05
-6.75472e-06
2.08528e-05
-1.84331e-07
9.89924e-06
3.28889e-06
9.91999e-06
-1.32087e-05
-1.11875e-05
-8.88537e-06
1.67999e-05
2.44852e-06
-5.46426e-08
3.59348e-06
1.01539e-05
-1.37476e-05