/*--------------------------------*- C++ -*----------------------------------*\
| =========                 |                                                 |
| \\      /  F ield         | OpenFOAM: The Open Source CFD Toolbox           |
|  \\    /   O peration     | Version:  v2012                                 |
|   \\  /    A nd           | Website:  www.openfoam.com                      |
|    \\/     M anipulation  |                                                 |
\*---------------------------------------------------------------------------*/
FoamFile
{
    version     2.0;
    format      ascii;
    class       volVectorField;
    location    "100";
    object      ddtCorrDdt0(U);
}
// * * * * * * * * * * * * * * * * * * * * * * * * * * * * * * * * * * * * * //

dimensions      [0 1 -2 0 0 0 0];


internalField   nonuniform List<vector> 
14804
(
(-0.000783969 -0.00021391 -8.21101e-23)
(2.69079e-05 2.67502e-05 0)
(0.000151828 -4.02139e-05 3.74397e-23)
(0.000149135 1.2973e-05 7.38109e-22)
(0.00018759 2.01975e-05 2.47307e-25)
(0.00022611 -9.7088e-06 -3.51516e-24)
(0.000111683 8.85323e-05 1.38634e-22)
(1.5554e-05 7.65316e-05 -1.61875e-21)
(0.000165865 -2.458e-05 0)
(8.92376e-07 6.31227e-07 -6.89089e-26)
(0.000125399 -0.000158956 0)
(0.000156847 -5.07135e-05 0)
(1.08999e-05 8.88701e-05 -6.20735e-23)
(0.000162767 2.64121e-06 -5.05867e-22)
(0.000416719 0.000165873 2.79583e-21)
(-0.00073214 -0.000519977 4.95068e-22)
(0.000190769 1.88502e-05 9.84939e-25)
(0.000149104 1.82e-05 1.63654e-21)
(-0.000318793 -1.67209e-05 9.82604e-22)
(0.000133091 -7.11263e-06 0)
(5.43161e-08 8.07909e-07 -5.27833e-22)
(0.000102555 0.000127167 -7.29465e-22)
(9.03752e-05 0.000194954 -6.28256e-22)
(0.000109885 7.30048e-05 2.24904e-21)
(-0.00099574 -1.70574e-05 0)
(0.000107564 7.37936e-05 -6.79011e-22)
(0.000136622 3.0659e-06 0)
(0.000179163 1.43187e-05 1.21595e-21)
(-0.000729688 -0.000259115 8.26002e-22)
(0.000116968 5.67241e-05 2.30179e-21)
(8.86427e-05 3.45621e-05 -4.09976e-22)
(8.36334e-05 0.000183617 0)
(0.000135115 -7.27931e-06 1.54301e-21)
(0.000222779 6.96907e-05 0)
(0.000153366 -3.49299e-05 -6.63484e-22)
(0.000112742 8.76889e-05 -1.38674e-22)
(8.93927e-06 2.08067e-05 0)
(2.90718e-07 3.72737e-06 0)
(-0.00129445 0.00024635 6.8996e-22)
(0.000117796 9.63222e-07 -1.39543e-21)
(0.000148762 -3.67901e-05 -8.69727e-22)
(0.000149849 -3.3912e-05 0)
(1.41309e-05 0.00027638 0)
(3.0308e-05 6.31276e-05 -8.29813e-22)
(0.00018505 1.88797e-05 0)
(3.27866e-05 0.000121084 0)
(-0.000162292 6.07438e-05 -9.47759e-22)
(4.06828e-05 9.39306e-05 2.11981e-21)
(0.000104111 0.000130141 -1.49062e-21)
(0.00018071 0.000363878 -1.10998e-21)
(1.28139e-05 9.15044e-05 1.46825e-21)
(5.28084e-05 2.44577e-06 2.02024e-21)
(8.50513e-06 2.62938e-05 -1.23301e-21)
(0.000128893 2.6479e-05 0)
(0.00017482 0.000290952 0)
(-0.000495021 -0.000221663 -1.1409e-21)
(0.000278276 -0.000367088 -6.85158e-22)
(-0.000686911 -0.00026811 5.30829e-22)
(1.42484e-06 2.73895e-05 1.55885e-21)
(3.22782e-05 0.00012318 0)
(-0.000516402 -4.52619e-05 -1.12233e-21)
(1.32652e-05 9.40593e-05 6.48744e-26)
(3.4367e-05 6.483e-05 4.63838e-22)
(-0.000565818 -0.000257623 -1.1283e-21)
(3.284e-05 6.39208e-05 4.14783e-22)
(6.58695e-06 2.53556e-05 9.02946e-22)
(-6.3328e-08 1.67383e-06 1.29292e-21)
(0.000100953 9.23393e-05 0)
(4.45931e-06 1.29973e-06 0)
(-0.0009911 -0.000274442 3.71693e-22)
(9.44096e-05 3.61704e-05 1.03069e-21)
(0.000135905 4.73822e-06 0)
(1.28271e-05 0.000549018 4.45673e-22)
(-0.00110493 -1.68086e-05 1.9924e-21)
(0.000108378 3.53039e-05 1.54729e-21)
(-0.00103838 -0.000311696 -3.68104e-22)
(-0.000291582 -0.00018117 5.12519e-24)
(2.68646e-05 2.57855e-05 -7.48374e-22)
(3.66673e-05 0.000222361 0)
(6.27801e-05 2.13698e-05 9.54643e-22)
(-0.00071505 0.000173684 1.91674e-21)
(6.80709e-06 2.52903e-05 -8.18609e-22)
(6.23614e-05 2.32654e-05 -1.03472e-21)
(0.000108428 3.51736e-05 -7.12559e-22)
(2.48057e-07 2.05171e-06 -3.01084e-22)
(0.00035958 2.94369e-05 1.51302e-21)
(2.93931e-05 4.49121e-06 1.20283e-21)
(0.000117833 3.09105e-05 -5.02042e-22)
(2.77357e-05 1.89987e-05 -7.97019e-22)
(0.000181374 1.55624e-05 1.32784e-21)
(0.000202973 7.67217e-05 -2.13081e-24)
(7.52082e-05 0.00013065 4.73956e-22)
(0.00015449 -1.74913e-05 -9.07458e-22)
(9.16471e-05 3.52498e-05 9.65993e-22)
(9.20056e-05 0.000352518 8.04918e-22)
(-0.000266372 -0.000180821 8.17523e-22)
(-0.00072398 -0.000254815 -5.68105e-22)
(8.83946e-05 0.000174108 0)
(8.96932e-05 8.75197e-05 9.5646e-22)
(0.00033203 -0.00052666 0)
(-0.000680678 -0.000255806 -5.38575e-22)
(-0.00107212 -0.000185465 -5.74896e-22)
(1.84442e-07 1.65168e-06 -6.4436e-22)
(0.000165849 -7.23402e-07 1.52261e-22)
(0.000162021 -0.000108501 -4.25443e-22)
(-0.00110086 -0.000225121 1.28435e-21)
(0.000155141 -4.72617e-05 0)
(0.00023601 0.000503724 -4.30695e-22)
(4.08664e-06 3.92463e-05 -1.24395e-21)
(8.99422e-05 3.48748e-05 7.54759e-22)
(1.28068e-05 4.43678e-05 0)
(-0.000572157 -0.000110736 5.44272e-22)
(0.000154653 -1.61561e-05 -7.37517e-22)
(-0.00062983 -1.14822e-05 1.42667e-21)
(-0.000566722 -0.000107786 -7.74631e-22)
(-0.00067071 0.000115781 1.22088e-21)
(0.000181401 -0.000182355 -3.52782e-22)
(0.000207059 7.58019e-05 1.02862e-21)
(2.04881e-07 1.94536e-06 2.1227e-21)
(0.000150572 1.74118e-05 -1.63847e-21)
(-0.000121736 -9.83297e-06 -1.68099e-21)
(2.76277e-05 1.81928e-05 2.31862e-21)
(0.000129125 8.80309e-05 2.19608e-21)
(0.0002098 2.39092e-05 -1.7679e-22)
(1.14546e-06 2.60635e-05 -1.41999e-21)
(2.07865e-07 2.58365e-06 0)
(4.00771e-05 -8.58073e-05 7.85623e-22)
(0.00016369 7.44523e-07 -6.14204e-22)
(9.10014e-05 0.000201601 1.36815e-21)
(0.000196639 4.11038e-05 0)
(0.000195773 4.4059e-05 0)
(0.000286451 6.95555e-05 0)
(-0.000679962 5.80577e-05 0)
(0.00049427 0.000397941 0)
(-3.56689e-06 0.000192203 -9.04155e-22)
(0.000206314 2.31679e-05 0)
(2.98277e-05 6.42708e-05 -1.03192e-21)
(0.00033907 0.00357629 0)
(0.000113659 4.89305e-05 0)
(0.00022608 7.24604e-05 0)
(1.8927e-05 2.96461e-05 -1.02008e-21)
(-0.00093551 0.000760404 0)
(5.2354e-05 1.96291e-06 -2.02769e-21)
(4.30725e-05 -3.48461e-05 0)
(-0.00105821 -8.54673e-05 0)
(3.87642e-06 1.16067e-06 0)
(0.000148427 -9.9467e-05 0)
(4.21413e-06 3.73969e-05 1.21067e-21)
(0.000452401 -0.000233467 0)
(-0.000515237 -2.57514e-05 1.7474e-21)
(0.000165718 -2.07102e-05 0)
(-0.000685201 -2.71038e-05 0)
(0.000118426 -9.88708e-07 1.5563e-21)
(0.000162024 -2.14685e-06 -1.45938e-21)
(6.19705e-05 2.24442e-05 2.27898e-22)
(-0.000693286 -0.000231387 0)
(0.000124714 9.70497e-06 -8.6775e-22)
(0.00124374 -0.000251607 -9.23005e-22)
(-0.000935693 -4.51079e-05 -1.00667e-21)
(0.000725435 3.12141e-05 -9.95237e-22)
(1.58532e-05 1.66894e-05 0)
(8.74803e-06 1.73073e-06 2.08792e-21)
(-0.000695362 4.21094e-05 0)
(-0.00083663 -2.34916e-05 1.2747e-21)
(0.000148108 3.73799e-05 2.18723e-21)
(-0.000675345 -0.000213864 0)
(4.20599e-05 9.61131e-05 -1.51545e-21)
(-0.000607046 -5.8994e-05 0)
(0.000116751 5.32595e-05 -7.99676e-22)
(1.44022e-05 7.53546e-05 2.08999e-21)
(0.000173481 0.000187444 0)
(8.79483e-05 0.000138298 9.21118e-22)
(0.000216131 -7.39231e-05 6.25265e-22)
(0.000396804 0.000158247 -1.3716e-21)
(-9.8338e-05 1.4494e-05 1.13341e-21)
(0.000456834 0.000612116 -9.61532e-22)
(2.2039e-05 0.000195517 0)
(0.000231431 6.11523e-05 0)
(3.91332e-05 4.22607e-06 5.87071e-22)
(0.000383248 -0.000477654 -2.48026e-22)
(0.000223196 -1.24135e-05 -1.06611e-21)
(-0.00147579 0.000267177 4.37761e-24)
(0.00011114 8.10688e-05 9.83138e-22)
(6.06708e-06 0.000163753 -1.98557e-21)
(7.31381e-05 0.000128378 0)
(-0.000912279 -0.000192671 5.62682e-22)
(0.000259303 7.17885e-05 1.42474e-21)
(0.000254253 7.31549e-05 -1.31074e-21)
(0.000164286 5.15813e-05 0)
(5.3563e-05 2.27192e-05 -9.09944e-22)
(1.30244e-05 0.000272204 -7.91935e-22)
(-0.000491434 0.000623849 5.01059e-22)
(7.34086e-05 7.55151e-05 -7.30482e-22)
(-0.000758 -0.00357768 0)
(0.000142398 4.63259e-05 -4.1094e-22)
(3.33223e-05 5.60533e-05 0)
(-0.00100893 -0.000172345 6.17375e-22)
(1.4189e-05 8.72261e-05 2.71738e-22)
(0.000228133 0.0001841 0)
(-0.000511385 -1.72884e-05 -2.14932e-21)
(-0.00120603 -2.2685e-05 -5.26524e-22)
(5.41471e-05 2.24386e-05 0)
(0.000137661 5.75172e-05 -2.0766e-21)
(0.000312776 0.000160315 0)
(7.4023e-06 0.000111321 0)
(-0.000889516 -5.63581e-05 1.26877e-22)
(0.000123733 1.09648e-05 -1.42541e-21)
(0.000165264 0.00058627 1.17292e-21)
(0.000210708 7.83172e-05 0)
(0.000109908 9.25903e-05 0)
(0.00011606 5.4343e-05 -7.40877e-22)
(-0.000471656 -2.7312e-05 -8.20676e-22)
(0.000103603 9.29734e-05 0)
(1.55611e-05 1.61717e-05 0)
(7.6637e-05 0.0001037 0)
(0.000115404 4.97286e-05 0)
(0.000161857 -4.05559e-08 0)
(4.25381e-05 6.01957e-05 -4.89169e-22)
(1.09712e-05 5.49458e-05 7.64404e-22)
(3.01649e-05 6.03407e-05 6.12709e-22)
(1.73922e-05 0.000165364 -5.62799e-24)
(0.000156625 -2.01383e-05 3.19499e-25)
(0.000232716 0.00018337 3.6668e-26)
(8.50353e-05 0.000136096 -1.21589e-21)
(8.52e-05 4.60672e-05 1.01216e-21)
(0.000652582 -0.000199056 2.44949e-21)
(0.000137756 -7.28998e-06 -6.71945e-22)
(-0.000138074 -0.00025486 1.15405e-21)
(-0.000741183 8.74505e-05 1.19512e-21)
(0.000103186 0.000122163 6.13522e-22)
(9.02522e-05 3.47264e-05 9.65201e-22)
(0.000134852 5.76939e-05 9.3333e-22)
(1.10066e-05 5.67084e-05 0)
(-0.00105695 -0.000176809 0)
(-0.00104011 -6.80722e-06 3.41777e-22)
(2.05657e-07 1.79744e-06 0)
(3.63567e-05 0.000119619 0)
(3.91337e-05 -9.18485e-05 7.51985e-22)
(0.000305459 8.15201e-05 -7.38472e-22)
(0.000147314 0.000106179 -2.44967e-21)
(-0.000751203 0.00045527 1.16914e-21)
(-1.96914e-05 0.000270306 -4.56929e-22)
(8.73533e-05 8.7834e-05 -1.8264e-22)
(2.93859e-05 6.11075e-05 7.72524e-22)
(6.60433e-05 3.83966e-05 7.56921e-22)
(0.000372018 2.85152e-05 9.04653e-22)
(0.000177104 6.89104e-05 -1.32423e-21)
(0.000147928 3.92879e-05 -1.30614e-21)
(8.66429e-05 0.000193077 -7.16699e-22)
(9.10171e-05 3.52643e-05 0)
(-0.00210417 0.00356715 -6.96072e-22)
(3.20429e-05 5.50435e-05 7.87747e-22)
(1.2856e-05 1.22345e-05 1.32966e-21)
(2.56631e-05 2.4482e-05 7.78482e-22)
(-0.000870381 9.05289e-05 8.06319e-22)
(5.90311e-06 0.000110329 -9.2447e-22)
(5.09511e-05 2.13997e-05 0)
(0.000143691 4.96365e-05 -1.67817e-22)
(9.34173e-05 3.57929e-05 -1.02112e-24)
(4.84106e-06 2.23036e-05 0)
(-0.000321063 -0.000245556 0)
(0.000165164 4.9322e-05 2.02947e-22)
(9.60597e-05 0.000202555 -8.22089e-22)
(1.33515e-05 8.2711e-05 1.14472e-21)
(-0.00152458 0.00198897 -1.0148e-21)
(0.000109979 5.50391e-05 1.86071e-22)
(0.000124021 1.16717e-05 2.00419e-21)
(6.3804e-05 3.66799e-05 7.4509e-22)
(-0.000677825 -7.35814e-05 -8.10816e-22)
(-0.000844328 -3.37863e-05 5.67383e-23)
(-0.0014168 0.00022375 8.60812e-22)
(-0.000963874 -0.000424662 0)
(1.41164e-07 1.4857e-06 -1.89361e-21)
(1.82482e-07 2.77023e-05 -1.20352e-21)
(-0.00142848 0.000598075 1.00412e-21)
(0.000443717 0.000166859 -2.36144e-21)
(0.000121437 3.13376e-05 0)
(-0.0010363 -7.04023e-05 0)
(2.56983e-05 0.000253426 1.28991e-21)
(-0.00110959 -0.000256462 -7.92819e-22)
(2.23299e-05 -8.0011e-05 -9.00555e-22)
(1.64911e-05 3.13023e-06 5.9732e-22)
(-0.000620643 -7.09705e-05 -4.86886e-22)
(-0.000501957 -3.53231e-05 1.06284e-21)
(-0.000849227 0.000135688 -5.82245e-23)
(0.000423585 0.00175533 -1.66459e-21)
(3.22626e-05 0.000256888 -1.43378e-21)
(0.000119322 3.06378e-05 1.4028e-21)
(2.52186e-05 0.000170416 0)
(0.00010116 0.000132773 0)
(4.12961e-05 5.84097e-05 8.04664e-22)
(0.000106585 5.58715e-05 8.49824e-22)
(0.000104824 0.000125178 6.59945e-22)
(0.000109706 3.44383e-05 7.20313e-22)
(0.00022491 -6.51962e-06 -1.02057e-21)
(0.000650946 -0.000192546 7.9963e-22)
(0.000266616 5.41309e-05 0)
(8.62966e-05 0.000204965 1.61147e-21)
(4.37926e-05 6.05076e-05 -8.65898e-22)
(1.49012e-05 0.000166296 2.06112e-21)
(5.16047e-05 3.20876e-05 0)
(2.291e-05 2.48991e-05 8.48861e-22)
(3.98683e-05 0.000179621 -1.95686e-21)
(0.000136878 -7.60344e-06 4.2364e-22)
(3.43095e-05 0.000219322 0)
(0.000108622 8.11088e-05 0)
(-0.00128875 1.22487e-05 -5.54248e-22)
(-0.00106384 -0.000233387 -9.7199e-22)
(0.000397024 0.000130874 1.33199e-21)
(-0.000343819 9.24392e-05 0)
(-0.000523763 -2.01509e-05 1.95629e-21)
(0.000109484 3.45847e-05 -7.77283e-22)
(6.2427e-05 0.000155191 -1.06457e-21)
(0.000143938 0.00010703 1.28285e-21)
(-0.000883073 0.00011037 -4.09672e-26)
(7.59456e-05 0.000105033 0)
(-0.000240438 -0.000107463 -5.02409e-24)
(0.000208331 1.54387e-06 -8.21287e-22)
(5.77412e-05 1.58854e-05 0)
(-0.00212502 9.43966e-05 -8.07019e-22)
(2.98296e-05 -4.38127e-05 -8.53881e-23)
(0.000131086 -0.00016043 -2.56851e-22)
(1.93674e-05 -0.000168758 -1.64641e-21)
(-0.000658995 -5.4668e-05 0)
(0.000106168 3.69771e-05 0)
(0.000131803 -5.23476e-06 3.37572e-22)
(0.000370019 -0.00012353 9.00589e-22)
(4.92132e-07 2.6379e-05 1.44341e-21)
(0.00281509 5.68776e-05 6.07776e-22)
(-0.00096353 -4.89381e-05 1.47534e-21)
(0.000167953 -3.12097e-07 5.25731e-22)
(0.000150317 2.10883e-06 1.18475e-21)
(2.07603e-05 0.000192699 -1.2554e-21)
(6.08101e-05 0.000152115 3.42372e-22)
(4.66247e-06 2.16393e-05 0)
(8.77532e-05 3.41818e-05 -7.09602e-22)
(2.20507e-05 2.47479e-05 8.4804e-22)
(4.68133e-05 1.02678e-05 -7.35889e-22)
(4.34121e-05 0.000112002 8.41356e-22)
(0.000212467 -7.25989e-05 -3.47902e-22)
(9.01248e-05 0.00013262 -6.60559e-22)
(0.000111382 3.87836e-05 -7.70382e-22)
(0.000179727 7.0799e-05 2.30843e-21)
(1.11833e-05 9.10716e-05 -9.72549e-22)
(9.12e-05 3.50131e-05 -1.34353e-24)
(-0.000825742 -0.000205512 7.3222e-22)
(-0.00137218 0.000138831 0)
(-0.000883252 -0.000157321 6.14388e-22)
(0.000172108 -2.63637e-05 0)
(-0.00123339 -1.38767e-05 -7.43504e-23)
(-0.00113054 -8.01951e-05 -1.10019e-21)
(0.000144071 5.10308e-05 -1.89093e-21)
(7.21218e-06 2.47456e-05 8.58342e-22)
(6.23623e-05 3.61243e-05 -7.29266e-22)
(4.15961e-05 0.00011151 8.48952e-22)
(2.01678e-05 -4.26455e-05 3.79564e-22)
(8.21916e-05 8.54205e-05 0)
(-0.000424186 -2.44682e-05 -1.03026e-21)
(7.29484e-05 2.76275e-05 0)
(1.3393e-05 1.32349e-05 -2.66614e-21)
(4.6032e-05 0.000109912 -1.0691e-21)
(0.00034258 4.44809e-05 0)
(0.000121955 -3.12887e-05 -5.37061e-22)
(0.000303113 7.53152e-05 0)
(-0.0012535 0.000157627 0)
(-0.00107478 -2.88161e-05 -1.59042e-21)
(0.00012022 3.16465e-05 9.74307e-22)
(0.000201248 8.03567e-05 1.58977e-21)
(0.000248255 2.86555e-05 0)
(2.76717e-05 5.42518e-05 -5.64166e-22)
(0.000129134 9.21122e-05 1.49864e-21)
(1.42224e-06 1.61362e-05 -3.38671e-22)
(9.21351e-05 0.000210877 -7.03204e-22)
(0.000117893 5.57617e-05 2.18868e-25)
(2.51216e-05 2.1566e-05 0)
(-0.00128468 -0.000255402 3.38247e-22)
(6.45694e-05 3.77749e-05 -7.38839e-22)
(5.75111e-05 9.9433e-05 -1.3579e-21)
(-0.00068948 7.49058e-05 -1.34267e-21)
(-0.000629195 0.000491564 -1.91819e-21)
(-3.556e-05 -0.00137364 0)
(0.000163338 2.5195e-05 0)
(0.000216733 0.00018372 -1.26553e-21)
(-0.000924652 0.000159433 2.37402e-22)
(0.000176919 6.4005e-05 1.76254e-21)
(2.98268e-05 5.45959e-05 1.51795e-21)
(-0.00101108 0.000163755 -8.70151e-22)
(3.53907e-05 0.000121795 0)
(4.12659e-06 1.50885e-05 -6.95729e-22)
(-0.000819472 -0.000485345 0)
(2.47026e-05 0.000167105 0)
(8.42299e-05 3.1632e-05 -7.22524e-22)
(4.41845e-05 0.000109396 6.99074e-22)
(0.000129568 2.71198e-05 0)
(-0.000833238 1.02065e-05 -1.13917e-23)
(0.000130468 8.99336e-05 -1.45595e-21)
(0.000301015 -0.000392467 0)
(0.000148835 3.27403e-06 0)
(-0.00104068 0.000552515 1.73099e-21)
(1.25227e-06 1.52168e-05 0)
(0.000375743 0.000118878 1.28809e-21)
(1.55041e-05 3.65953e-05 0)
(0.000187122 0.000534958 4.49266e-22)
(0.000200471 -0.000177291 0)
(0.000180974 0.000137325 -1.15431e-21)
(3.4837e-05 0.000145806 3.3964e-24)
(0.000279453 -0.000276882 0)
(1.40681e-05 8.9834e-05 0)
(0.000135765 -6.21952e-06 -2.01352e-21)
(-6.13128e-08 2.93999e-06 0)
(8.6677e-05 4.70016e-05 -1.28652e-21)
(4.45987e-05 0.000183485 6.5207e-22)
(0.0001668 0.0058285 -5.17479e-23)
(1.06224e-06 4.97626e-07 1.41039e-21)
(0.000110943 3.41992e-05 -6.36271e-22)
(-0.000449412 0.00237875 1.69545e-21)
(3.66493e-06 2.65191e-05 0)
(0.000165572 2.78253e-05 0)
(0.000108089 7.56313e-05 0)
(-0.000769572 -0.00022944 5.94098e-22)
(0.000233129 6.68743e-05 -2.51121e-21)
(0.000201261 -1.85093e-05 -1.88897e-21)
(8.61707e-05 3.27496e-05 1.02805e-22)
(1.91345e-05 -4.23099e-05 0)
(3.58581e-05 0.000143542 5.40747e-24)
(0.00012472 7.33242e-06 -5.74243e-22)
(-0.00110435 0.000170213 7.58118e-22)
(3.51772e-05 0.000214008 1.77697e-21)
(0.000130366 1.78866e-05 0)
(8.79481e-05 3.38748e-05 -2.23556e-22)
(0.000129276 7.56549e-05 1.34777e-21)
(1.14225e-05 3.87678e-07 -1.18111e-21)
(0.000388124 0.000657789 0)
(5.07946e-06 1.60952e-05 2.11206e-21)
(0.000108113 9.34699e-05 0)
(9.48644e-06 5.92196e-05 0)
(5.03055e-05 3.11711e-05 6.52758e-22)
(-0.000806785 -0.000210915 -1.96432e-21)
(3.9445e-05 5.75797e-05 8.20206e-22)
(4.86211e-05 0.000108043 -1.0901e-21)
(0.000118556 2.01183e-06 6.82489e-22)
(-0.00138145 9.83664e-05 -1.36753e-22)
(6.88241e-05 4.67083e-05 0)
(0.000109221 5.60823e-05 5.78524e-22)
(4.09707e-05 2.51857e-05 1.1103e-25)
(0.000138894 2.00374e-05 1.81287e-21)
(-0.000557508 6.03193e-05 2.50598e-24)
(-0.00145212 0.00233433 2.01611e-22)
(-2.77976e-05 0.000271907 0)
(0.000130915 8.68829e-05 -6.59229e-22)
(-0.000849319 -0.000188028 3.43933e-22)
(0.000126907 9.2416e-05 -1.28518e-21)
(0.000107952 3.5157e-05 0)
(2.54275e-07 3.11098e-06 -5.70679e-22)
(4.95337e-05 1.35416e-06 -1.50272e-21)
(4.61607e-05 6.50508e-05 9.80085e-22)
(4.51423e-05 9.04564e-07 4.87906e-24)
(-0.000587801 0.00128943 0)
(0.000144666 4.55506e-05 1.50353e-21)
(1.58592e-08 3.74132e-06 6.00941e-22)
(0.000139304 -0.00738181 8.45556e-22)
(4.17735e-05 2.51443e-05 1.06426e-21)
(0.00122825 -0.00043883 -9.02506e-22)
(0.000465985 -0.000292184 0)
(0.000164376 3.88955e-06 -2.51561e-22)
(0.001287 -0.00427673 0)
(0.000162935 2.31708e-05 0)
(-0.00105302 -0.000276233 1.58751e-21)
(0.000199317 -2.05339e-05 1.39479e-21)
(2.08414e-05 9.86385e-05 0)
(2.14033e-07 2.23932e-06 6.14446e-22)
(4.63579e-05 0.000181208 1.6812e-21)
(8.56644e-05 6.933e-05 0)
(6.46513e-05 4.78077e-05 8.59695e-22)
(-0.000642901 1.15805e-05 -1.63237e-21)
(0.000147133 1.33959e-05 -1.05773e-21)
(1.1299e-05 8.7728e-05 0)
(0.000197039 7.99727e-05 0)
(-0.000925725 -6.06774e-05 0)
(-0.00163792 -0.000440292 4.64258e-23)
(0.000202459 1.80817e-05 1.26898e-21)
(0.000158182 2.45828e-05 0)
(0.000139542 0.00011044 -1.71723e-21)
(0.000156851 -1.80945e-05 0)
(0.000106969 3.66383e-05 0)
(3.93176e-05 0.00015966 8.56093e-22)
(-0.000592011 9.89884e-05 -2.45406e-21)
(2.38407e-05 7.39702e-05 2.54664e-24)
(7.03196e-05 4.69956e-05 0)
(0.000203183 0.00011383 2.05012e-21)
(3.88548e-05 0.000161795 0)
(-5.76255e-05 3.97814e-05 5.71403e-22)
(0.000221891 9.5045e-05 -2.11861e-21)
(4.10543e-05 2.52526e-06 1.19337e-21)
(0.000155754 0.000156225 -2.39695e-21)
(1.05259e-07 4.23111e-06 -3.53926e-22)
(8.78592e-06 5.84125e-05 0)
(-0.000806419 -5.62028e-05 -4.65161e-22)
(0.000206174 1.8892e-05 -1.54379e-21)
(4.46643e-05 6.34302e-05 0)
(0.000348088 9.10717e-05 1.28301e-21)
(4.6847e-05 0.000107412 4.91791e-22)
(1.93491e-05 2.91913e-05 1.02968e-21)
(6.43665e-05 0.000220758 -1.98914e-21)
(-0.00101472 -0.000148105 -3.21435e-22)
(4.25987e-06 3.49784e-05 -1.73148e-22)
(1.38722e-05 3.6431e-05 1.05558e-21)
(3.01862e-05 4.27669e-06 -1.42635e-21)
(8.51645e-05 4.45609e-05 8.15695e-22)
(-0.000870231 -3.10642e-05 0)
(3.90731e-06 3.43442e-05 1.27274e-22)
(2.17055e-05 9.68823e-05 0)
(-0.00144909 -0.00200748 0)
(6.6921e-05 7.20959e-05 0)
(8.03623e-05 9.40252e-05 4.48652e-22)
(-0.00116405 0.000503034 1.1434e-21)
(5.6019e-06 3.17501e-05 -1.00077e-21)
(0.00199753 -0.000995368 -5.05664e-22)
(6.21662e-05 1.7546e-05 1.5338e-21)
(3.07442e-05 4.87522e-05 8.38484e-22)
(-0.000782278 -4.73868e-05 0)
(7.00026e-05 4.50458e-05 0)
(1.25318e-05 8.29498e-05 -6.0989e-22)
(3.03855e-06 2.71615e-05 -9.08489e-22)
(0.000148657 4.78962e-06 0)
(0.000119953 3.02947e-05 0)
(5.98315e-05 1.67874e-05 -1.61287e-21)
(6.54096e-05 0.000121196 1.86582e-23)
(3.10736e-05 2.41977e-06 -7.00776e-22)
(0.000156601 0.000152814 6.49383e-22)
(8.73594e-05 3.36784e-05 -6.67638e-22)
(0.000200777 0.000110547 -2.10656e-21)
(0.000179785 1.13728e-05 -1.34438e-21)
(0.000110188 3.45317e-05 0)
(-0.00082959 0.000199017 -1.20118e-21)
(0.000120737 -3.44973e-05 0)
(-0.000774962 -0.000155245 -7.05316e-22)
(9.19277e-05 0.000135219 1.07386e-21)
(6.33075e-05 1.85786e-05 -8.40639e-22)
(0.000331134 1.83339e-05 -6.93067e-22)
(7.59694e-06 2.65151e-05 0)
(0.000130444 1.78813e-05 9.70914e-22)
(0.000345228 -4.736e-05 0)
(3.63705e-05 0.000178103 2.11475e-21)
(3.70876e-05 1.9644e-05 0)
(-0.000884942 -0.000199405 0)
(9.27594e-06 1.37779e-06 -9.51391e-22)
(-0.000922751 0.000560487 -8.95339e-22)
(0.000314192 1.7652e-05 -7.4746e-22)
(0.000144011 4.66634e-05 -1.29651e-21)
(3.21646e-05 0.000145509 6.68121e-22)
(-0.00119086 -0.000220399 1.6411e-21)
(-0.00149237 0.000244871 -6.18889e-22)
(6.14949e-05 2.09175e-05 0)
(1.72181e-05 3.58928e-06 -3.71179e-22)
(2.07114e-05 2.34363e-05 -8.68112e-22)
(0.000482246 0.000141547 -8.87301e-22)
(0.000316101 0.000146746 0)
(-0.00100124 0.000293188 -1.52017e-22)
(-0.00011562 -6.99403e-05 0)
(1.39238e-05 3.56345e-05 9.14388e-22)
(0.000164646 -2.0077e-05 0)
(2.13964e-05 0.000278511 -1.20149e-21)
(0.000326128 -0.000322433 0)
(0.0001249 7.80996e-06 6.58828e-22)
(0.000137896 2.15754e-05 0)
(0.00016919 9.07396e-05 -4.7519e-22)
(8.59107e-05 3.96211e-05 -1.92325e-21)
(0.00014444 -0.000100616 -7.45073e-22)
(-0.0012257 0.000229689 -8.10969e-22)
(0.000196696 0.000109783 1.33055e-24)
(0.000370118 -0.00023073 -5.04542e-22)
(5.87559e-05 1.66753e-05 1.78856e-21)
(2.02221e-05 2.27794e-05 -9.36484e-22)
(9.25936e-05 3.57797e-05 0)
(0.000178013 0.000133946 0)
(2.89143e-05 1.81322e-05 -1.72169e-21)
(3.51911e-05 -0.000116223 -8.07622e-22)
(4.05838e-06 1.53818e-05 8.9083e-22)
(-0.000469144 -2.81986e-05 -1.08743e-21)
(0.000468205 -0.000429401 -1.02198e-21)
(0.000153664 0.000150324 4.87557e-22)
(9.77931e-06 0.000247556 0)
(8.51434e-05 4.01262e-05 9.12749e-22)
(3.12634e-05 5.5711e-05 0)
(-0.000844056 -0.000160826 -1.38156e-21)
(0.000119728 3.25432e-05 1.83807e-21)
(-0.000503027 -2.99376e-05 1.22809e-22)
(2.63106e-05 2.18998e-05 1.5701e-21)
(9.33812e-05 3.58501e-05 -4.5364e-23)
(4.97142e-05 5.43963e-05 -1.62991e-21)
(1.14665e-07 4.92034e-07 -1.49779e-21)
(0.000167515 -1.56379e-05 -2.25516e-22)
(0.000165893 2.53083e-05 0)
(-0.000580276 1.16372e-05 2.80004e-24)
(-5.06659e-05 4.87309e-05 1.79429e-21)
(3.541e-06 2.78742e-05 0)
(0.000110367 3.83202e-05 2.26902e-21)
(0.00015796 2.63394e-05 1.11271e-22)
(0.000295089 -4.34433e-05 -1.50369e-21)
(0.000116543 0.000242638 -2.72175e-23)
(0.00012567 0.000160451 0)
(8.9088e-05 3.58166e-05 -2.08437e-21)
(-0.000798426 0.000424789 0)
(8.10364e-05 0.000127762 -7.23069e-22)
(-0.00117334 -0.000234759 1.51326e-21)
(6.91039e-05 3.12603e-05 -1.34047e-21)
(0.000303236 0.000320918 4.8378e-22)
(-0.000652385 9.37275e-07 -4.89933e-22)
(2.89525e-05 1.74726e-05 9.47554e-22)
(3.17369e-05 6.14382e-05 -6.54235e-22)
(0.000164064 0.000195191 -8.3827e-22)
(-7.17672e-08 1.02601e-06 -9.78323e-22)
(6.08759e-05 1.75116e-05 2.14797e-24)
(0.000219969 0.000103442 0)
(0.000114834 4.47591e-05 1.25774e-24)
(-0.000488236 -3.27837e-05 7.39649e-22)
(0.000251735 4.29953e-05 0)
(0.000814662 0.000655691 0)
(3.82342e-05 5.57224e-05 0)
(0.000218122 -4.37094e-05 1.10615e-21)
(-0.00241202 -0.00200325 0)
(0.000167958 0.000195298 -1.50161e-24)
(-5.01037e-08 1.08531e-06 0)
(-0.000717107 -7.48177e-05 -1.3994e-21)
(5.6114e-05 5.17138e-05 -4.49498e-22)
(-4.73872e-05 0.000145963 0)
(6.93014e-06 3.58931e-05 1.21688e-21)
(1.10831e-06 1.56659e-05 0)
(-0.000440402 -2.37525e-05 9.0016e-22)
(0.00014197 -1.29866e-05 7.55151e-22)
(2.13817e-05 0.000228942 1.0037e-21)
(0.000166015 -1.9439e-05 0)
(0.000102735 0.000167687 1.7826e-21)
(7.41597e-05 2.81199e-05 0)
(-0.00106097 2.23878e-05 -9.42139e-22)
(2.42245e-05 3.56456e-05 -1.20842e-21)
(0.000427045 -0.00202157 -8.77824e-22)
(0.00167836 8.95813e-05 -8.99484e-22)
(0.000156733 2.36999e-05 2.06793e-21)
(2.99846e-05 1.49811e-05 8.07508e-22)
(2.28372e-05 6.02509e-05 8.02693e-22)
(0.000137561 5.03015e-06 -1.13265e-21)
(0.000173087 9.18689e-05 -4.8784e-22)
(3.63248e-07 4.13368e-06 0)
(0.000300435 0.000159221 0)
(3.84622e-05 0.000260884 0)
(0.000163043 6.4383e-06 2.81478e-22)
(2.0064e-08 4.06554e-05 7.60922e-22)
(-0.00054843 -0.000393597 6.77392e-22)
(-0.00100068 -0.000110256 1.53293e-21)
(0.000200201 0.000255474 0)
(2.55707e-05 5.92698e-05 0)
(6.65744e-05 0.000221772 -6.55823e-22)
(6.29833e-05 2.22749e-05 -1.33967e-21)
(0.000110357 4.6997e-05 -1.50646e-21)
(8.19448e-05 0.000203789 -1.182e-21)
(-0.000804659 -6.61482e-05 9.78406e-22)
(7.52677e-05 0.000172866 1.03089e-21)
(-0.00106889 -0.000193277 6.71605e-22)
(6.29573e-05 0.000216137 1.614e-21)
(0.000353765 4.21039e-05 0)
(0.000153505 -9.78205e-05 4.08957e-22)
(8.6512e-05 7.07791e-05 0)
(-0.00122988 0.00024128 1.35545e-21)
(0.000308075 -0.00102177 6.20471e-22)
(1.7911e-05 1.98551e-05 5.09004e-22)
(0.000150349 1.39577e-05 -7.2535e-22)
(0.000338137 2.32275e-05 -2.15008e-22)
(0.000178923 6.60109e-05 -1.93871e-21)
(8.3948e-05 0.00018397 -2.81655e-22)
(0.0001365 0.00010754 3.52513e-22)
(0.000126767 0.000163788 -3.24666e-22)
(-0.000111396 -0.00125477 0)
(3.12064e-05 1.43092e-05 1.67808e-21)
(0.000223489 8.83287e-05 -1.39327e-21)
(2.06773e-05 3.36325e-06 -1.74717e-21)
(0.00010347 6.41931e-05 -1.74552e-22)
(-0.000761899 -0.000245612 -5.16699e-22)
(-0.00176699 -0.000194178 7.84536e-22)
(0.000192928 0.000191417 1.34248e-21)
(1.02041e-05 5.75501e-05 0)
(4.0369e-05 4.48872e-06 1.7212e-21)
(5.90287e-05 2.01528e-05 -2.40776e-21)
(8.67927e-05 0.000122777 -1.2316e-21)
(3.34595e-05 0.00020573 -7.71958e-22)
(-0.00104884 -0.000200962 9.30004e-22)
(0.000249251 3.35728e-05 0)
(0.00051964 5.38986e-05 9.91621e-22)
(-0.000644087 -3.75979e-05 0)
(0.000231519 0.000170737 0)
(9.58495e-05 0.000166941 2.19183e-21)
(-0.000637601 -6.43149e-05 1.49174e-21)
(7.3481e-05 7.72781e-05 -2.02788e-22)
(-0.00105793 -2.45557e-05 -8.6269e-22)
(0.000112237 9.34411e-05 -6.70102e-22)
(1.18449e-05 2.31169e-06 0)
(1.79988e-05 6.47109e-05 2.86115e-22)
(0.000145774 1.54895e-05 -2.57517e-21)
(0.000274414 0.000115257 2.38535e-22)
(2.95208e-05 5.20573e-06 -8.19366e-22)
(3.13043e-05 0.000146247 3.77275e-22)
(0.000219526 7.61687e-05 -7.79409e-22)
(0.000343457 0.000124803 1.2409e-21)
(9.28222e-05 0.000165118 -1.8481e-21)
(0.000212214 2.91621e-05 -1.214e-21)
(7.12774e-05 7.38487e-05 2.69106e-21)
(0.000211768 1.83861e-05 6.85568e-22)
(0.000136095 -8.81404e-06 0)
(0.000198252 1.41232e-05 0)
(0.000144283 -2.83259e-07 2.22812e-21)
(1.51061e-06 7.28976e-07 0)
(3.52755e-05 9.30497e-05 1.65583e-21)
(-0.000564094 3.13151e-05 1.93834e-22)
(-0.00113916 -5.28014e-05 1.38418e-21)
(6.18818e-05 8.14431e-05 1.37686e-21)
(0.000141472 -1.56472e-05 0)
(1.10215e-05 5.86167e-05 -3.33016e-22)
(5.20755e-05 2.21408e-05 1.01916e-21)
(3.59487e-07 3.95483e-05 -1.3673e-21)
(8.8066e-05 0.000126134 1.96443e-21)
(0.000330485 -0.000194659 0)
(6.28035e-05 4.66378e-05 -7.47092e-22)
(9.19628e-05 0.000193523 -3.55731e-22)
(8.91307e-05 3.72549e-05 0)
(0.00014314 0.000110452 1.64245e-21)
(2.39658e-05 6.16514e-05 0)
(0.000213837 0.000114425 5.29088e-22)
(0.00012058 3.27798e-05 2.14614e-24)
(3.00075e-05 1.58073e-05 8.79653e-25)
(3.1616e-06 4.13186e-05 1.21456e-21)
(0.000247196 4.19791e-05 0)
(0.00022459 6.52386e-05 0)
(0.000286421 -0.000339874 1.57563e-22)
(-6.17246e-05 -1.5042e-05 -5.69588e-22)
(1.77657e-05 1.94431e-05 -5.04551e-22)
(1.52025e-05 3.70305e-05 -7.74356e-22)
(1.17199e-05 1.68038e-06 -1.25626e-21)
(-0.000557222 -9.37705e-05 0)
(2.73025e-05 0.000165959 9.2392e-22)
(0.00025707 0.000101597 -2.11985e-21)
(-0.00161052 -0.000189324 4.0828e-22)
(0.000126432 0.00016428 -6.45869e-22)
(0.000155506 2.74785e-05 -9.21164e-23)
(-0.000641795 -0.000196101 -5.13808e-22)
(5.1311e-05 5.57031e-05 1.99187e-21)
(2.33831e-05 3.43834e-05 -1.28058e-21)
(8.68129e-06 2.44731e-06 0)
(8.87771e-05 3.61422e-05 1.81566e-21)
(0.000299394 -5.3298e-05 4.08295e-22)
(3.07555e-05 2.06001e-06 0)
(4.73328e-05 1.84499e-05 0)
(0.000878709 0.000810716 3.59977e-22)
(0.00022583 -8.00584e-05 0)
(4.4087e-05 0.000157999 1.37886e-21)
(9.26675e-05 3.56408e-05 -1.03533e-21)
(-0.000800341 -0.00021475 1.00839e-22)
(-0.00114455 0.000407258 -2.59574e-21)
(0.000177603 -1.59554e-05 7.76317e-22)
(0.000118113 0.000134937 1.96855e-22)
(0.000168587 2.90151e-05 0)
(-0.000247056 -0.000425526 0)
(0.000225433 0.000170853 0)
(-0.000462351 -4.08371e-05 3.18305e-22)
(0.000587157 0.000656011 -7.00189e-22)
(0.000171768 -3.07529e-05 -1.25611e-21)
(0.000455642 -0.000431866 2.36939e-21)
(8.28326e-05 0.000126178 1.13707e-21)
(0.000123632 0.000170029 1.0158e-21)
(-0.000114262 0.000497669 5.17527e-22)
(1.89912e-05 1.86436e-06 0)
(0.000792529 -0.000260571 8.23229e-22)
(0.000121331 4.33032e-05 0)
(9.3553e-08 5.43116e-07 1.07538e-21)
(-0.00108047 1.80562e-05 -1.35385e-21)
(0.00013704 6.24362e-06 0)
(1.21352e-05 0.000253175 0)
(-0.000490862 -3.2898e-05 -6.97353e-22)
(0.000344053 0.000185031 1.30047e-21)
(3.65122e-05 5.49407e-05 -7.92705e-22)
(-0.000554907 -9.36923e-05 8.28915e-23)
(2.58501e-05 2.37744e-05 0)
(6.58634e-05 0.000118869 -1.59738e-23)
(0.0001388 3.13304e-05 2.6634e-21)
(0.000126972 7.67357e-05 -1.51529e-21)
(1.41054e-07 8.10494e-06 0)
(-0.000616039 0.000370467 0)
(-0.00126775 0.000237313 8.35789e-22)
(0.000121259 8.80834e-06 -1.42303e-22)
(3.38526e-05 -4.01899e-05 0)
(0.000108547 0.000134302 3.84993e-22)
(-0.00064751 1.3076e-05 0)
(-0.000225121 -0.00686311 2.9875e-21)
(0.00012725 0.000172412 -1.30333e-21)
(-0.00151178 -0.000359906 9.88774e-22)
(0.000121688 4.24161e-05 0)
(2.04676e-05 2.34847e-06 5.05995e-22)
(5.93585e-05 3.29201e-05 0)
(3.76325e-06 2.72901e-05 0)
(2.54074e-05 7.37871e-05 2.1195e-21)
(-0.0007613 -3.8628e-05 4.5647e-22)
(0.000154729 1.49892e-05 -1.774e-21)
(-0.000879877 0.000151724 1.19641e-21)
(9.36756e-05 -0.000170067 -1.96658e-22)
(1.85869e-05 7.88623e-07 3.76716e-23)
(0.00024357 2.62728e-05 0)
(5.44973e-05 0.000189688 -2.6646e-21)
(5.66835e-05 1.90025e-06 -1.21464e-21)
(0.00010146 6.36315e-05 -4.81132e-23)
(-0.00144517 0.000179206 -1.65381e-21)
(-0.000993264 -5.20462e-05 0)
(0.000114323 5.6407e-05 -2.33245e-21)
(0.000256774 0.000104906 5.65092e-22)
(8.19717e-05 8.71724e-05 -2.55807e-23)
(1.58919e-05 2.68335e-05 -2.16546e-21)
(0.0002266 8.5086e-05 7.48305e-22)
(0.000127666 2.66128e-05 -7.91446e-22)