/*--------------------------------*- C++ -*----------------------------------*\
| =========                 |                                                 |
| \\      /  F ield         | OpenFOAM: The Open Source CFD Toolbox           |
|  \\    /   O peration     | Version:  v2012                                 |
|   \\  /    A nd           | Website:  www.openfoam.com                      |
|    \\/     M anipulation  |                                                 |
\*---------------------------------------------------------------------------*/
FoamFile
{
    version     2.0;
    format      ascii;
    class       volScalarField;
    location    "100";
    object      k;
}
// * * * * * * * * * * * * * * * * * * * * * * * * * * * * * * * * * * * * * //

dimensions      [0 2 -2 0 0 0 0];


internalField   nonuniform List<scalar> 
14804
(
0.0219686
0.000146381
0.000188842
0.000160794
0.000165825
0.000179668
0.000151248
0.000148694
0.00019064
0.000149166
0.000237585
0.000190261
0.00014941
0.000166443
0.000199701
0.0554159
0.000166605
0.000159444
0.00532446
0.000173131
0.00014994
0.000153933
0.000162546
0.000150104
0.0162159
0.000150097
0.000165704
0.000165661
0.0193412
0.000150195
0.000146038
0.000161117
0.000173094
0.000169745
0.000188787
0.000151254
0.000386107
0.000149579
0.0293278
0.000172696
0.000188849
0.000187693
0.000177872
0.000147631
0.000165768
0.00015136
0.00328425
0.000149175
0.000154319
0.000222264
0.000149504
0.000145741
0.000148064
0.00015414
0.000236253
0.0039529
0.000234746
0.0182017
0.000148741
0.000151465
0.0113784
0.000149652
0.000147611
0.0069692
0.000147599
0.000148208
0.000149873
0.000150741
0.00014823
0.0338228
0.000146531
0.000164732
0.000234008
0.039072
0.000149753
0.0340064
0.0491387
0.000146336
0.000164714
0.000144024
0.0454325
0.000148197
0.00014424
0.000149779
0.000149686
0.000199743
0.000145413
0.000151776
0.000145941
0.000165598
0.000164915
0.000153021
0.00018568
0.000145985
0.000222381
0.051429
0.0200173
0.000160484
0.00014974
0.000257282
0.0188902
0.0331056
0.000149755
0.000168544
0.000206818
0.0346717
0.000190012
0.000203432
0.000148368
0.000146198
0.00014782
0.0201384
0.000185864
0.0263664
0.0201732
0.04041
0.000212477
0.000165658
0.000149658
0.000159866
0.0487277
0.000145957
0.000152894
0.000170354
0.000148788
0.000149697
0.00021197
0.000167578
0.000163449
0.000164779
0.000164629
0.000200858
0.0291743
0.000232876
0.00169766
0.000169799
0.000147674
0.00115866
0.000149718
0.000169972
0.000147067
0.0445242
0.000148327
0.0250318
0.0255571
0.000148337
0.000204944
0.000148375
0.000224608
0.00649096
0.000190629
0.0072706
0.000173355
0.000168659
0.000144168
0.0203883
0.000163782
0.000251638
0.0195767
0.000236913
0.000146866
0.000147484
0.0294872
0.00847383
0.000155469
0.0206753
0.000149302
0.0119352
0.00015007
0.000148688
0.000223144
0.000154376
0.000194783
0.00019788
0.00057344
0.000236447
0.000161117
0.000171928
0.000144825
0.000235154
0.000179676
0.054218
0.000150774
0.000157091
0.000152704
0.0192501
0.000178954
0.00017782
0.000157532
0.000144553
0.000177019
0.00507869
0.000148425
0.00198403
0.000136374
0.000147174
0.031994
0.000149271
0.000177667
0.0154047
0.0256004
0.000144519
0.000152812
0.000188001
0.000151108
0.0184369
0.000163092
0.000321291
0.000166644
0.000151346
0.000150084
0.0107792
0.00015093
0.000146864
0.000150537
0.000149933
0.000167857
0.000147178
0.000148154
0.000147501
0.000157092
0.000186967
0.00017775
0.000154017
0.000147016
0.000318267
0.000172761
0.00145734
0.0288371
0.000153471
0.000146005
0.000152428
0.000148169
0.0344713
0.0389835
0.000149751
0.00015123
0.000206559
0.000196562
0.000156084
0.0415404
0.000202054
0.000149693
0.000147567
0.000145639
0.000201688
0.000159329
0.000155359
0.000162518
0.000146459
0.0447227
0.00014717
0.000147129
0.000146367
0.0260907
0.000150929
0.000144604
0.000153941
0.000146393
0.000148429
0.00737816
0.000157566
0.000163411
0.000149056
0.000314844
0.000149409
0.000162578
0.00014549
0.0185373
0.0123346
0.0529035
0.0603013
0.000149778
0.000148768
0.0494664
0.000202335
0.000152013
0.0224457
0.000170142
0.0346049
0.000206582
0.00014656
0.0142324
0.0111509
0.0497635
0.000430118
0.000170802
0.000151957
0.00015781
0.000212641
0.000147097
0.000149097
0.000153837
0.000149919
0.000178612
0.000249426
0.000202907
0.000163319
0.000147177
0.000157891
0.000145392
0.000146597
0.000158987
0.000173025
0.000164243
0.000150548
0.0147575
0.0347646
0.000197912
0.024905
0.0167876
0.000149966
0.000155855
0.000155852
0.0261137
0.000150589
0.00709634
0.000211111
0.000143771
0.0476296
0.00020355
0.00021159
0.00112861
0.0152785
0.000149359
0.000172238
0.000209016
0.000148795
0.000756222
0.022153
0.00016849
0.000165796
0.00016081
0.000155336
0.000148463
0.000145836
0.000146663
0.0266198
0.000150501
0.000194745
0.000153852
0.000149475
0.000159809
0.000149511
0.000146005
0.0222921
0.0497582
0.0322071
0.000191972
0.0299759
0.0223056
0.000153918
0.000148131
0.000145448
0.000150475
0.0002049
0.000149346
0.0057147
0.000144389
0.000147095
0.000150329
0.000197437
0.000184958
0.000194644
0.060833
0.0381192
0.00015172
0.000164466
0.000178067
0.000147296
0.000153021
0.000149044
0.000164341
0.000150232
0.000146288
0.0314893
0.000145583
0.000149689
0.0290091
0.000245838
0.000804174
0.000160081
0.00017574
0.0525766
0.000159314
0.000147232
0.0566025
0.00015135
0.000148525
0.0559028
0.000157315
0.000144571
0.000150305
0.000154068
0.0268923
0.000153128
0.000218463
0.000165117
0.0635419
0.000149107
0.000196457
0.000147505
0.000206739
0.0255877
0.000164515
0.000154092
0.000217625
0.000149415
0.000172554
0.000149766
0.000147226
0.00015938
0.0367894
0.000149147
0.000150022
0.000283017
0.000148584
0.000160126
0.000150102
0.0216096
0.000211608
0.000178501
0.000144815
0.0314893
0.00015397
0.000165652
0.0599797
0.000163526
0.000157664
0.000145443
0.000152157
0.000149876
0.000247289
0.000148377
0.000151299
0.000148335
0.000145384
0.0217014
0.000147083
0.000150211
0.000171453
0.0480647
0.000146421
0.000149401
0.000145445
0.000157336
0.0279737
0.0258768
0.000203037
0.000152877
0.0329433
0.000152948
0.000149362
0.000149752
0.000148539
0.00014743
0.000158334
0.0291951
0.000154196
0.000149692
0.00361012
0.000145399
0.00025678
0.000218691
0.000166338
0.00251861
0.00016019
0.0342402
0.000178628
0.000149733
0.000149692
0.000159219
0.000148454
0.000146402
0.0296702
0.000160512
0.00014929
0.000163297
0.0207931
0.0479313
0.000169727
0.000159221
0.000155616
0.000186991
0.000149578
0.00015624
0.0349667
0.000148344
0.000146432
0.000165933
0.000156432
0.000243333
0.000169516
0.00014583
0.000163055
0.000149683
0.000148347
0.0116192
0.000170206
0.000147349
0.000195078
0.000150184
0.000147022
0.00016541
0.0440065
0.000148377
0.00014758
0.000145391
0.000146892
0.0136945
0.000148409
0.00014966
0.00418541
0.000148051
0.00014987
0.0657328
0.0001483
0.000566086
0.000143633
0.000211604
0.00990397
0.00018134
0.00014911
0.000148604
0.000164417
0.000152227
0.000143703
0.000151724
0.000145403
0.000162583
0.000145467
0.000165102
0.000166348
0.000149886
0.0507678
0.000186216
0.0419578
0.000154221
0.000143622
0.000195698
0.000148088
0.000158186
0.000206971
0.000158668
0.000207114
0.0328533
0.000147457
0.0688663
0.000192224
0.000154111
0.000154088
0.0670297
0.0575802
0.000144015
0.000146519
0.000146673
0.000208249
0.000188101
0.0597179
0.0466042
0.000147604
0.000178295
0.000177094
0.000322314
0.000164952
0.000156726
0.000158268
0.000146478
0.00020338
0.058944
0.000164285
0.000184143
0.00014378
0.000146729
0.000146811
0.000163291
0.000145842
0.000209518
0.000148502
0.00561324
0.000227155
0.000161772
0.000170927
0.000146488
0.000147234
0.0325354
0.000151485
0.00593548
0.000146219
0.00014684
0.000146821
0.000149695
0.000175854
0.000160369
0.0421517
0.0447843
0.000148543
0.000149434
0.000158746
0.000193575
0.00017087
0.000159811
0.000146384
0.000289395
0.000152842
0.0171694
0.000144896
0.000229858
0.0134835
0.000145769
0.000147511
0.00016995
0.000149946
0.00014371
0.000169343
0.000149867
0.0132572
0.000178035
0.000304679
0.000147018
0.000230041
0.00212491
0.000170162
0.000149944
0.0136747
0.000146659
0.00021052
0.000148169
0.000149113
0.00996259
0.000191978
0.000253241
0.000177994
0.000159416
0.000144431
0.0396604
0.000146827
0.0119639
0.000260642
0.000159225
0.000145682
0.000147744
0.00016437
0.000159104
0.000149515
0.00018558
0.000171259
0.000165152
0.000148543
0.0510599
0.0432535
0.000240545
0.000147566
0.000165401
0.000144089
0.000149282
0.000163229
0.0179876
0.000159708
0.035213
0.000164288
0.000198979
0.000204889
0.000148576
0.05964
0.00769771
0.000146764
0.000160607
0.000196401
0.000159656
0.000160339
0.000154965
0.000160545
0.00126175
0.000145553
0.000169787
0.000146142
0.000149228
0.0207504
0.0501983
0.000173528
0.000148261
0.000144707
0.000144076
0.000152668
0.000162416
0.0637693
0.000178102
0.000212208
0.00607145
0.000176701
0.000158891
0.0121168
0.000148525
0.037926
0.000151534
0.000147004
0.000148127
0.000159662
0.000180936
0.000145369
0.000154335
0.000168549
0.000192467
0.000158616
0.000206351
0.000148239
0.000204475
0.000174796
0.000169534
0.000167311
0.000148959
0.000149147
0.0251561
0.0387476
0.000148544
0.000191902
0.00014826
0.000144605
0.000148549
0.000153031
0.000188434
0.000146274
0.000161853
0.000146586
0.00015585
0.000147747
0.000169203
0.000151502
0.000145738
0.000148397
0.0001772
0.00017004
0.00268299
0.000533853
0.000146826
0.000147526
0.000147155
0.0198628
0.000157026
0.000177594
0.049105
0.000160942
0.000158107
0.0199035
0.000146893
0.00014688
0.00014745
0.00014642
0.000194967
0.00014813
0.000144622
0.000250617
0.000196014
0.00015603
0.000146154
0.0220957
0.0461311
0.00017592
0.000155944
0.000160441
0.000832257
0.000175983
0.00581295
0.00025349
0.000191942
0.0194342
0.000152822
0.000161548
0.000216618
0.000146497
0.000264724
0.000150788
0.000149601
0.0618885
0.000163576
0.000171823
0.0142598
0.000192796
0.000147025
0.019997
0.000146319
0.000151527
0.000154568
0.000152033
0.000149527
0.0373625
0.0587763
0.000165447
0.000201863
0.000155154
0.0143766
0.00343034
0.00016231
0.0480778
0.00015079
0.000146305
0.000145247
0.000148538
0.000148272
0.00685505
0.000161046
0.0515325
0.0002139
0.000149189
0.000177646
0.000160368
0.000146645
0.000149091
0.052293
0.0108933
0.000149899
0.000177489
0.000149445
0.000147254
0.000170294
0.000154055
0.0428137
0.000201395
0.00113058
0.00318016
0.000158158
0.000206651
0.000148594
0.00581382
0.000194457
0.000146481
0.000158374
0.0104541
0.000147527
0.000167914
0.000145096
0.00611385
0.000168044
0.00014981
0.000149406
0.000145827
0.000145736
0.000155584
0.0224539
0.00014659
0.000146704
0.000158618
0.000149761
0.0419363
0.00017076
0.000147929
0.000144728
0.000148345
0.000162176
0.000148546
0.000147016
0.000202863
0.000795502
0.00014768
0.000144298
0.000171905
0.0104279
0.000148
0.000147112
0.000147022
0.000193377
0.000144612
0.0295507
0.000169478
0.00017519
0.000277842
0.000441332
0.00014655
0.000245986
0.000143009
0.0195796
0.000164823
0.000157506
0.000148386
0.000148111
0.0256976
0.00014924
0.0184556
0.000147291
0.000182554
0.01075
0.0596393
0.000200467
0.000149056
0.0119277
0.000149936
0.000146612
0.000158442
0.00023057
0.000149554
0.000207188
0.000179256
0.000149675
0.000160714
0.000149765
0.000149747
0.000148333
0.000148759
0.000147055
0.000191645
0.00014856
0.000171801
0.000151817
0.0251167
0.00014994
0.000678744
0.000144595
0.00016324
0.000162359
0.000196713
0.000170039
0.000175416
0.000159418
0.000156068
0.00014986
0.000159715
0.000199215
0.000156406
0.000146199
0.000144532
0.0674343
0.000184326
0.000170067
0.000146609
0.000146426
0.000196357
0.000186929
0.0191419
0.0344677
0.000197593
0.000177384
0.060494
0.000144245
0.000149312
0.00552755
0.000164554
0.000223094
0.000182673
0.000148458
0.000146328
0.000190343
0.000145229
0.016198
0.000153267
0.000179395
0.000145277
0.000203332
0.000149046
0.00218239
0.000146402
0.000146529
0.000172222
0.000199255
0.00020674
0.0389062
0.000171075
0.0176525
0.000156621
0.000170983
0.0196304
0.000164633
0.000211982
0.000149879
0.000145012
0.00019043
0.025343
0.000181279
0.000153328
0.000146736
0.000178443
0.000149566
0.0298332
0.0129878
0.000147297
0.000149395
0.000147428
0.000158825
0.000452988
0.000149455
0.0144023
0.000272609
0.0283173
0.000166231
0.000149388
0.000148882
0.00095767
0.000146824
0.00203624
0.000153818
0.000166599
0.000147695
0.000148067
0.000181265
0.000176189
0.00092967
0.000220265
0.000167372
0.000144083
0.00014915
0.000149303
0.0136295
0.000187673
0.00683105
0.000148812
0.0344158
0.000203622
0.000174915
0.000150431
0.000149944
0.000148221
0.000149059
0.0371581
0.000169727
0.000144713
0.0001932
0.000267392
0.00015947
0.000169882
0.000160839
0.000147265
0.000260202
0.000148849
0.000166423
0.000148557
0.000174528
0.000171887
0.000147474
0.0255501
0.000151427
0.0176677
0.000145532
0.000148894
0.000144835
0.0196589
0.0430425
0.000159212
0.000204311
0.000190171
0.000149852
0.000151918
0.000148592
0.0698975
0.011168
0.000196352
0.000230412
0.000148585
0.000152242
0.0135307
0.000152989
0.000161116
0.00161562
0.000154194
0.000154602
0.037072
0.00019211
0.0689361
0.000152289
0.000170661
0.000151166
0.000314252
0.026543
0.000148575
0.000152283
0.029957
0.000192112
0.000177385
0.000150547
0.020493
0.0366711
0.000148409
0.000177609
0.000144
0.000147789
0.0270784
0.000147845
0.000170659
0.000162475
0.000207244
0.000148209
0.00014841
0.000144762
0.000164109
0.00015365
0.0131692
0.0630429
0.000170191
0.00118515
0.000145362
0.00014668
0.000148846
0.000148074
0.000164177
0.000159283
0.0277097
0.000163709
0.000150688
0.000178221
0.000144434
0.000146764
0.000146238
0.000234881
0.0365689
0.0252464
0.000147174
0.00016626
0.018104
0.000147995
0.000146971
0.000150904
0.0556079
0.0179326
0.000150066
0.000191085
0.00017078
0.000155792
0.00015425
0.000148539
0.000193635
0.000192192
0.000166039
0.000231892
0.00217177
0.000148415
0.00014971
0.000160494
0.000147474
0.000181041
0.000152226
0.000187758
0.000148718
0.0137245
0.0357201
0.000150072
0.000147923
0.000152613
0.00014456
0.000192002
0.000146171
0.000148965
0.000146585
0.000191986
0.000147944
0.000207342
0.000149872
0.000149089
0.00257283
0.000164482
0.000148386
0.000204593
0.0188112
0.000232758
0.000147395
0.0585877
0.000148026
0.000145603
0.000149703
0.000162923
0.00015321
0.000167149
0.000175996
0.000158137
0.000148785
0.000144649
0.0387597
0.000190967
0.0291589
0.000248535
0.00014588
0.0506182
0.000181811
0.00015192
0.000148705
0.000190176
0.0147124
0.000147116
0.000263068
0.0667731
0.0662347
0.000163174
0.000148605
0.000164778
0.000154763
0.000149105
0.000146594
0.000185504
0.00014902
0.000146133
0.000149762
0.0472154
0.0200457
0.0210071
0.0234481
0.000164176
0.000145258
0.0386982
0.000247945
0.00019314
0.000144864
0.000147271
0.000147901
0.000160493
0.000155842
0.000171914
0.000146231
0.000161437
0.0296926
0.000158203
0.000158245
0.000191066
0.000169583
0.00014976
0.0245658
0.000145504
0.0389524
0.000147998
0.0167284
0.0299522
0.000198906
0.000175843
0.000146085
0.000145635
0.000148194
0.000147623
0.000145242
0.00107555
0.0514516
0.000149119
0.000171329
0.000194932
0.000154511
0.000148626
0.000532077
0.000156387
0.0193085
0.015789
0.0486778
0.000175218
0.000148455
0.000146744
0.0504596
0.000144406
0.000148074
0.000158428
0.000207284
0.000155358
0.000148498
0.00020563
0.000201658
0.000217589
0.0237391
0.0535935
0.000146305
0.000146554
0.000204262
0.000145324
0.000148566
0.000146045
0.00022421
0.000205239
0.000148918
0.000159509
0.012247
0.00014825
0.000175462
0.000211274
0.000148361
0.000148811
0.000178794
0.000159556
0.000166776
0.0184205
0.000192862
0.000149692
0.000148858
0.000143205
0.0260481
0.000145612
0.0464673
0.000148059
0.00120098
0.000149596
0.00014938
0.000155263
0.000151368
0.000198861
0.0243894
0.000237377
0.00017285
0.000147497
0.000171643
0.000148516
0.00017659
0.000246246
0.000144417
0.000178197
0.000149048
0.000145069
0.000148904
0.028644
0.000190107
0.000149084
0.000152096
0.000188354
0.000149903
0.000205361
0.00153573
0.0311793
0.00721616
0.000151254
0.000187525
0.00014819
0.0206255
0.000155488
0.000149043
0.0233541
0.000156856
0.00415286
0.000149183
0.000192342
0.000167644
0.000149884
0.0165052
0.0226276
0.00016789
0.0343188
0.0391961
0.0301395
0.000159218
0.00038461
0.000148539
0.000148769
0.000195599
0.0469904
0.00016928
0.00014868
0.00014496
0.000148346
0.000149202
0.00014855
0.0453428
0.0266811
0.000147567
0.000230543
0.00015637
0.000161493
0.039987
0.0225016
0.000145692
0.000147001
0.000165753
0.0198988
0.000149189
0.00480736
0.000146117
0.00014528
0.00015767
0.00014489
0.000257237
0.000144406
0.0408395
0.0177129
0.000153571
0.000177349
0.000152691
0.000181018
0.000147942
0.000154303
0.0207611
0.000232845
0.000147998
0.000198621
0.000154174
0.0210291
0.00019139
0.000146014
0.000151228
0.0639327
0.0336044
0.00026583
0.000146443
0.000153929
0.000266797
0.064957
0.000157379
0.000159286
0.000236357
0.000161374
0.000153813
0.0222008
0.000190921
0.000153777
0.000250628
0.000149915
0.000151052
0.000146156
0.0242562
0.000151037
0.000150073
0.0593331
0.000149742
0.000149318
0.000148906
0.00019472
0.000148485
0.047841
0.000148515
0.000179044
0.000157828
0.000191135
0.000156928
0.000164443
0.000154646
0.000194079
0.0351648
0.0177157
0.000148147
0.0598438
0.000157536
0.000194655
0.00015738
0.000158913
0.000149756
0.000157607
0.000146527
0.0153835
0.000201636
0.000150274
0.000147204
0.000149604
0.000164757
0.000144438
0.000159845
0.00219704
0.00015028
0.000163257
0.0112816
0.00169428
0.000156979
0.000250594
0.000149535
0.000144541
0.000149001
0.000170724
0.000147872
0.00014722
0.000146189
0.000148745
0.000145258
0.0169976
0.000154829
0.0431492
0.0355664
0.000149871
0.000196336
0.00014837
0.00015823
0.014125
0.000778188
0.0312899
0.00014744
0.000161543
0.00014417
0.000144664
0.0108757
0.000167946
0.000208243
0.000144465
0.000146606
0.00014797
0.000153007
0.000281544
0.000194952
0.000146709
0.00014994
0.000149078
0.00177727
0.00019212
0.000147768
0.00211753
0.000834475
0.0184059
0.000158162
0.00018428
0.00019283
0.000146068
0.00014581
0.000148454
0.000146804
0.00547041
0.0534418
0.000192407
0.000159616
0.000205864
0.000269735
0.000157523
0.00014836
0.000147991
0.000215585
0.000159232
0.000169274
0.000159727
0.000148025
0.000164898
0.000159429
0.000153528
0.000150925
0.0553114
0.0274466
0.000146129
0.000165669
0.000151065
0.000145551
0.000149713
0.0316402
0.000147822
0.000202118
0.000162792
0.000151106
0.000148961
0.000147949
0.0019961
0.000149886
0.00017719
0.0641547
0.0432765
0.000146279
0.000182693
0.000151557
0.000149514
0.000145319
0.000154148
0.000148835
0.000175435
0.000147768
0.000368034
0.000155767
0.000147812
0.000151257
0.000166777
0.000158838
0.000158004
0.000158974
0.000158591
0.000144696
0.000144128
0.000172458
0.000146787
0.000525291
0.000149696
0.000186756
0.0370166
0.0387815
0.000146746
0.000211643
0.00016532
0.0472605
0.0476251
0.000228987
0.0206014
0.000144708
0.0546122
0.00015094
0.000153078
0.000209039
0.0450999
0.000169898
0.00133689
0.000146889
0.000154708
0.000214009
0.000202512
0.0380402
0.000266687
0.000180623
0.00015623
0.0256554
0.000154717
0.00024363
0.00014883
0.000178468
0.000215353
0.000152275
0.000183161
0.000144077
0.000148562
0.000174596
0.000148405
0.0362871
0.000159342
0.000148524
0.000217656
0.0267811
0.000144723
0.0245328
0.00015458
0.000145663
0.0344574
0.0450284
0.000150931
0.000147131
0.000148817
0.000190959
0.00015421
0.051159
0.0244114
0.000206467
0.052869
0.000149021
0.000173493
0.000149509
0.024172
0.000148204
0.000221038
0.0408207
0.000194335
0.0268226
0.000147351
0.000146304
0.000143181
0.00014828
0.000149756
0.000160257
0.0616046
0.000153903
0.000173786
0.000533985
0.0323327
0.0302842
0.022137
0.000146892
0.00014711
0.000164847
0.000151022
0.0230846
0.000169678
0.000146239
0.0572012
0.0286242
0.000149866
0.000148455
0.000146069
0.00839751
0.000156631
0.000147041
0.000147388
0.000148819
0.000148471
0.000147709
0.000145188
0.000200692
0.000144131
0.000272363
0.000187856
0.000153147
0.000159228
0.000153341
0.000148405
0.000173645
0.000149763
0.000149872
0.000166717
0.000253319
0.000146342
0.000166199
0.000151846
0.000168404
0.0579793
0.000144682
0.000163219
0.000147772
0.00949974
0.000151113
0.0246283
0.000730518
0.0363333
0.068371
0.00024124
0.00019353
0.000457055
0.0547905
0.000150915
0.0623018
0.000148166
0.000209662
0.0387453
0.000175749
0.000145897
0.000149046
0.000145483
0.0691733
0.000180448
0.000144823
0.000144354
0.000147542
0.000190894
0.000203158
0.000149266
0.000177783
0.0557396
0.000145184
0.000186056
0.000146386
0.000147283
0.000147625
0.000158055
0.0684965
0.000214906
0.000219594
0.000202267
0.0672824
0.000193234
0.001309
0.0322173
0.000251485
0.062528
0.000146668
0.000187788
0.000148794
0.000149399
0.00014887
0.000161109
0.000148109
0.000151589
0.00576238
0.000152279
0.000154204
0.000154504
0.000160851
0.000146133
0.000198825
0.000149719
0.000149628
0.000192463
0.000169656
0.030266
0.000163038
0.000152567
0.000171741
0.0695658
0.00861394
0.000149092
0.000196174
0.000152146
0.000166451
0.000148616
0.000149267
0.000153389
0.04747
0.000165817
0.000143324
0.000158101
0.00867823
0.054046
0.0529348
0.019761
0.000147536
0.00014603
0.0591076
0.000173703
0.000169545
0.0253925
0.000148759
0.000144977
0.000149842
0.000151813
0.000186568
0.0180378
0.000182271
0.000144813
0.000146243
0.000148574
0.00017562
0.000244943
0.000148129
0.000160794
0.000175791
0.000148016
0.000167449
0.000208671
0.0326257
0.0305053
0.000147343
0.000172797
0.0449549
0.000174103
0.000158416
0.000170795
0.0304709
0.000148884
0.000143971
0.000145529
0.000146035
0.000151599
0.0118097
0.000143982
0.000148513
0.000171109
0.00015828
0.0198967
0.000153208
0.000156396
0.000160305
0.000163442
0.000148835
0.0441768
0.000148854
0.000149758
0.000191001
0.000163126
0.000146628
0.000149665
0.000169655
0.0478752
0.000157968
0.000154063
0.000188048
0.000169848
0.000154791
0.0297684
0.0285855
0.000158078
0.000150752
0.000150537
0.0161142
0.00021579
0.000160007
0.000176145
0.000144559
0.000182881
0.00014673
0.000156838
0.0203072
0.000157359
0.000169136
0.000153632
0.000428457
0.000177396
0.000148897
0.000194521
0.000190805
0.000149383
0.000179269
0.000148783
0.000170072
0.0163899
0.0162984
0.000514113
0.000170782
0.000235619
0.000198748
0.000179437
0.000148233
0.000148112
0.000156525
0.000164745
0.058893
0.000160249
0.000149825
0.00014859
0.0575019
0.000180943
0.0641307
0.000151481
0.000146244
0.0110903
0.0537521
0.00014804
0.000149236
0.000145646
0.000161767
0.000174282
0.000150912
0.000157036
0.000163235
0.000158758
0.0241625
0.0001478
0.000156058
0.0392671
0.000144681
0.000176611
0.000143848
0.000157314
0.0564146
0.000157217
0.000164673
0.000145671
0.000146691
0.000191042
0.000149173
0.000148009
0.000148441
0.00016307
0.000188795
0.000157313
0.000170429
0.00014799
0.000146335
0.00016216
0.0273286
0.0438885
0.000157195
0.0185553
0.000157598
0.000154442
0.000153889
0.00948724
0.000153729
0.000149081
0.000148356
0.000190028
0.000161649
0.000183445
0.000150004
0.000148414
0.010281
0.000151024
0.000149427
0.0364988
0.0001574
0.00014839
0.000144696
0.000163918
0.0172591
0.0209139
0.000145872
0.000160135
0.000153757
0.000146733
0.000145294
0.000163068
0.000158836
0.00018552
0.000144763
0.00016584
0.000165486
0.0185918
0.00015865
0.0664155
0.000206598
0.000151193
0.0212809
0.000264302
0.000209319
0.000164947
0.000164284
0.000149036
0.000148625
0.000159141
0.0344874
0.000258881
0.000148723
0.0556728
0.000148792
0.000164379
0.000172958
0.000159062
0.000148759
0.000232813
0.049754
0.000143391
0.000148065
0.000163576
0.000147596
0.000159358
0.00018412
0.000889899
0.000162631
0.000149868
0.000144778
0.000173318
0.000165869
0.000196444
0.000153563
0.000203418
0.000160064
0.000195311
0.000172842
0.000198853
0.000194188
0.000180513
0.000200851
0.016814
0.000156705
0.000515547
0.000156567
0.000192632
0.000148387
0.000145002
0.00016111
0.000147653
0.000177124
0.00023529
0.0001687
0.000157305
0.0475505
0.000165041
0.000157839
0.0377255
0.000146281
0.000297732
0.000172225
0.000149876
0.0412615
0.000206011
0.000172901
0.000172667
0.0198732
0.000161377
0.000149593
0.000173742
0.000165156
0.0205556
0.00017111
0.000164393
0.000164418
0.000157905
0.000181901
0.000175862
0.000247208
0.00158474
0.000153856
0.000146099
0.000149955
0.0444885
0.000162422
0.000153158
0.000156814
0.0186287
0.000161021
0.000148511
0.000163814
0.000146094
0.000148422
0.000156514
0.000193078
0.000147939
0.0179848
0.000149693
0.000146611
0.000174605
0.000160794
0.0160606
0.000147498
0.000151299
0.0524417
0.000163058
0.000148127
0.0342043
0.0181852
0.000157593
0.000204508
0.000155237
0.000163385
0.0302294
0.000162037
0.000751278
0.000204753
0.00017158
0.000165042
0.000164851
0.000145758
0.00014816
0.000145909
0.000165932
0.000208675
0.0443588
0.000159817
0.000175148
0.000147413
0.000145698
0.000152341
0.0411541
0.000156525
0.000162201
0.00015468
0.000148731
0.014524
0.000148692
0.000144282
0.000213918
0.000149492
0.000147943
0.000146686
0.00014926
0.000152951
0.0182459
0.000191084
0.000148965
0.000143996
0.000169732
0.000152808
0.000154135
0.0231472
0.000331135
0.0386459
0.000148092
0.000175631
0.0373928
0.0685354
0.000218531
0.00636502
0.000155343
0.000147995
0.0191451
0.000163872
0.029481
0.000151774
0.000147981
0.00015176
0.000152979
0.0216337
0.0176042
0.000154217
0.000162969
0.000213152
0.000149365
0.00391163
0.0603861
0.000151429
0.000175873
0.0618025
0.000147282
0.000205519
0.037035
0.000149574
0.000147125
0.0366951
0.000147722
0.000148447
0.000155021
0.0196194
0.0211323
0.00014597
0.000163168
0.000150779
0.0223852
0.000204799
0.000148519
0.000145229
0.0260143
0.0349767
0.0437613
0.000144729
0.000145801
0.000148246
0.000176123
0.000164971
0.000158001
0.000146453
0.000156678
0.0409355
0.000175867
0.000145867
0.0438054
0.000163367
0.000145859
0.000153143
0.000159455
0.000148537
0.000192799
0.000167304
0.0406061
0.000176222
0.000164156
0.0178394
0.000161324
0.000193412
0.0200849
0.00016591
0.0460146
0.000162338
0.039117
0.0386756
0.0173364
0.000163351
0.0645763
0.000199992
0.000146377
0.00015636
0.00018513
0.000173677
0.000161341
0.0521729
0.000153282
0.000145914
0.000159307
0.000144708
0.000147499
0.000155615
0.000186502
0.000191379
0.00016334
0.00539722
0.000148652
0.000153553
0.000146225
0.000148411
0.000177499
0.000152196
0.000153178
0.000149377
0.000148506
0.000211692
0.00014663
0.00014885
0.000178529
0.000153065
0.0304229
0.000171875
0.000256742
0.000163196
0.000153251
0.000150365
0.000192018
0.000147977
0.0448307
0.0200932
0.000151572
0.000148663
0.0441644
0.000200645
0.000199192
0.0241573
0.00014406
0.000147862
0.000156086
0.000366247
0.000153258
0.000148902
0.000168137
0.000164136
0.0149793
0.0400843
0.000651072
0.00018618
0.000149309
0.000654331
0.000151171
0.000156689
0.000147671
0.000156634
0.000185898
0.000175604
0.000227668
0.000146984
0.000157216
0.000156496
0.000148029
0.0188947
0.000163546
0.000156267
0.000375164
0.000247585
0.000147641
0.000145814
0.000155986
0.0459688
0.00014421
0.000175307
0.000157518
0.000150948
0.000172106
0.000169247
0.000152436
0.0285795
0.000149348
0.00019109
0.00016301
0.000178045
0.000169212
0.000152813
0.000204296
0.000168079
0.000149272
0.000159692
0.000174922
0.000145987
0.000168039
0.000162243
0.0251987
0.000149484
0.0067738
0.000147961
0.000162301
0.000161324
0.000146577
0.0216021
0.00018487
0.000145684
0.000174333
0.000148477
0.00014881
0.00014697
0.000152266
0.000157193
0.000173906
0.000149872
0.000155258
0.000181254
0.00016653
0.000178605
0.000173305
0.000146027
0.000150139
0.000146199
0.000169265
0.000146583
0.000154417
0.000199349
0.000190037
0.000148141
0.000148437
0.000147674
0.000186387
0.000148962
0.000153994
0.000194038
0.000158563
0.00703926
0.000197685
0.000149591
0.000177215
0.0291443
0.000148662
0.000148093
0.0348453
0.000171346
0.000169795
0.000148689
0.00014538
0.000143465
0.000151682
0.0314385
0.0263086
0.000148086
0.000189418
0.000170224
0.000156165
0.000146067
0.000149489
0.0267648
0.000148819
0.000147683
0.00917523
0.000766462
0.000144997
0.000144687
0.000147999
0.0302484
0.00015201
0.0001505
0.0274982
0.0225055
0.000147109
0.000160698
0.000148718
0.000194608
0.00020435
0.000148084
0.0629576
0.000155393
0.000183227
0.00014692
0.00036246
0.0287872
0.000179999
0.0248347
0.0445312
0.000143989
0.0238159
0.000148028
0.00014719
0.0167877
0.000149545
0.000196011
0.000159553
0.00304054
0.000148076
0.00520866
0.0337977
0.000147835
0.000149774
0.000191534
0.0173706
0.000154305
0.000148768
0.000159291
0.00018595
0.000160239
0.00014695
0.0275
0.000150581
0.000158466
0.000151617
0.000174473
0.0261983
0.000146658
0.0298274
0.000182382
0.000208622
0.000149562
0.000151554
0.000177148
0.000202581
0.0659147
0.000146952
0.000148164
0.000145793
0.000422993
0.000199242
0.0227962
0.0697917
0.000188394
0.000145796
0.00014905
0.0001475
0.0439229
0.000147312
0.0243079
0.0575752
0.000149015
0.000192507
0.000170525
0.000167477
0.000185675
0.000147934
0.000146178
0.00021764
0.000738742
0.000146091
0.000150312
0.0393554
0.000238719
0.000156372
0.000257557
0.000150778
0.000150089
0.0474744
0.0652122
0.000148628
0.00015299
0.000145643
0.0222523
0.0673624
0.000146118
0.00014717
0.00015084
0.000148183
0.000159479
0.000156041
0.000148209
0.0382383
0.000196337
0.00015855
0.00015355
0.00334304
0.000146112
0.00014891
0.000147781
0.0352609
0.000201665
0.000148959
0.000147622
0.0203334
0.000158562
0.04927
0.000149172
0.0343112
0.0488827
0.000171139
0.000146154
0.000149185
0.000147257
0.000162764
0.000223914
0.000192877
0.000179584
0.000162515
0.000148653
0.000220745
0.00425352
0.0144058
0.000160726
0.000146824
0.000146161
0.000143463
0.000204788
0.00272398
0.000152705
0.000160132
0.000147174
0.000148384
0.000146991
0.000174611
0.000147713
0.000188809
0.000145686
0.000181241
0.034689
0.0440195
0.0168225
0.00020517
0.000148322
0.0001582
0.000186266
0.000169985
0.000153432
0.000156883
0.000148287
0.000147702
0.00015485
0.000146652
0.000146873
0.00017942
0.000145223
0.000161434
0.0204838
0.000148969
0.000158201
0.000195116
0.000149762
0.0539608
0.000168536
0.000158194
0.000148357
0.000143695
0.000309981
0.000148115
0.000154172
0.000145606
0.000148107
0.000148878
0.00024071