/*--------------------------------*- C++ -*----------------------------------*\
| =========                 |                                                 |
| \\      /  F ield         | OpenFOAM: The Open Source CFD Toolbox           |
|  \\    /   O peration     | Version:  v2012                                 |
|   \\  /    A nd           | Website:  www.openfoam.com                      |
|    \\/     M anipulation  |                                                 |
\*---------------------------------------------------------------------------*/
FoamFile
{
    version     2.0;
    format      ascii;
    class       volScalarField;
    location    "100";
    object      k_0;
}
// * * * * * * * * * * * * * * * * * * * * * * * * * * * * * * * * * * * * * //

dimensions      [0 2 -2 0 0 0 0];


internalField   nonuniform List<scalar> 
14804
(
0.0219679
0.000146381
0.000188843
0.000160793
0.000165825
0.000179667
0.000151248
0.000148694
0.000190638
0.000149166
0.000235928
0.000190264
0.00014941
0.000166443
0.000199702
0.0554155
0.000166605
0.000159444
0.00532442
0.00017313
0.00014994
0.000153933
0.000162541
0.000150104
0.0162152
0.000150096
0.000165703
0.00016566
0.0193403
0.000150195
0.000146038
0.00016112
0.000173094
0.000169745
0.000188786
0.000151254
0.000386129
0.000149579
0.0293154
0.000172695
0.000188848
0.000187692
0.000177803
0.000147631
0.000165768
0.00015136
0.00328895
0.000149175
0.000154319
0.000221249
0.000149504
0.000145741
0.000148064
0.000154139
0.000237414
0.00395168
0.000233718
0.018201
0.000148741
0.000151465
0.0113781
0.000149652
0.000147611
0.0069678
0.000147599
0.000148208
0.000149873
0.000150741
0.00014823
0.0338223
0.00014653
0.000164731
0.000234525
0.039071
0.000149753
0.034006
0.049139
0.000146336
0.000164724
0.000144024
0.0454329
0.000148197
0.00014424
0.000149779
0.000149686
0.000199755
0.000145413
0.000151776
0.000145941
0.000165598
0.000164915
0.000153021
0.000185679
0.000145985
0.000220866
0.0514294
0.0200166
0.000160481
0.00014974
0.000252713
0.0188894
0.0331049
0.000149755
0.000168543
0.000206812
0.0346712
0.000190016
0.000203466
0.000148368
0.000146198
0.00014782
0.0201377
0.000185863
0.0263665
0.0201725
0.0404103
0.000212389
0.000165658
0.000149658
0.000159865
0.0487282
0.000145957
0.000152894
0.000170353
0.000148788
0.000149697
0.000211992
0.000167577
0.000163448
0.000164779
0.000164629
0.000200876
0.0291731
0.000231455
0.00169364
0.000169799
0.000147674
0.00121476
0.000149718
0.000169971
0.000147067
0.0445247
0.000148327
0.0250321
0.0255567
0.000148337
0.000204924
0.000148375
0.000224093
0.00649085
0.000190629
0.00727059
0.000173354
0.000168659
0.000144168
0.0203876
0.000163782
0.000255796
0.0195764
0.000235727
0.000146866
0.000147484
0.029486
0.0084737
0.000155469
0.0206746
0.000149302
0.0119348
0.00015007
0.000148688
0.000224668
0.000154376
0.000194782
0.000197884
0.00056987
0.000234384
0.000161115
0.000171927
0.000144825
0.000235946
0.000179675
0.0542167
0.000150773
0.000157092
0.000152704
0.0192495
0.000178954
0.000177823
0.000157531
0.000144552
0.000176978
0.005086
0.000148425
0.0018181
0.000136588
0.000147174
0.0319931
0.000149271
0.000177668
0.0154044
0.0255999
0.000144519
0.000152811
0.000188
0.000151108
0.0184365
0.000163091
0.000327404
0.000166643
0.000151345
0.000150084
0.010779
0.00015093
0.000146864
0.000150537
0.000149933
0.000167857
0.000147178
0.000148154
0.000147501
0.000157092
0.000186968
0.000177751
0.000154017
0.000147016
0.000297971
0.00017276
0.00145657
0.0288358
0.000153471
0.000146004
0.000152428
0.000148169
0.0344709
0.0389827
0.000149751
0.00015123
0.000206569
0.000196568
0.000156084
0.0415406
0.000202004
0.000149693
0.000147567
0.000145639
0.000201722
0.000159329
0.000155359
0.000162514
0.000146458
0.0447373
0.00014717
0.000147129
0.000146367
0.0260895
0.000150929
0.000144604
0.000153941
0.000146393
0.000148429
0.00737798
0.000157565
0.000163408
0.000149056
0.000288759
0.000149409
0.000162577
0.00014549
0.0185369
0.0123343
0.0529028
0.0603009
0.000149778
0.000148768
0.0494673
0.000202355
0.000152013
0.0224454
0.000170146
0.0346044
0.000206581
0.00014656
0.014232
0.0111506
0.0497632
0.000431243
0.000170831
0.000151957
0.00015781
0.000212654
0.000147097
0.000149096
0.000153837
0.000149919
0.000178611
0.000242703
0.000202928
0.000163317
0.000147177
0.000157891
0.000145392
0.000146597
0.000158987
0.000173024
0.000164254
0.000150548
0.014733
0.0347637
0.000197924
0.0249052
0.0167872
0.000149965
0.000155855
0.000155852
0.0261124
0.000150589
0.00709719
0.000211129
0.000143771
0.04763
0.000203514
0.000211378
0.00112809
0.0152782
0.000149359
0.000172238
0.000209144
0.000148795
0.000839393
0.0221527
0.000168489
0.000165796
0.000160813
0.000155336
0.000148463
0.000145836
0.000146663
0.0266201
0.000150501
0.000194746
0.000153852
0.000149475
0.000159809
0.000149511
0.000146005
0.0222913
0.0497579
0.0322065
0.000191972
0.0299754
0.0223051
0.000153918
0.000148131
0.000145448
0.000150475
0.000204858
0.000149346
0.00571463
0.000144389
0.000147095
0.000150329
0.000197441
0.000184956
0.000194642
0.0608313
0.0381185
0.00015172
0.000164465
0.000178067
0.000147296
0.000153021
0.000149044
0.000164341
0.000150231
0.000146288
0.0314893
0.000145583
0.000149689
0.0290079
0.000241377
0.000725069
0.000160081
0.00017574
0.0525761
0.000159314
0.000147232
0.0566029
0.00015135
0.000148525
0.0559025
0.000157315
0.000144571
0.000150305
0.000154068
0.0268926
0.000153128
0.000220226
0.000165116
0.0635373
0.000149107
0.000196461
0.000147505
0.000206782
0.0255586
0.000164515
0.000154092
0.00021747
0.000149415
0.000172553
0.000149766
0.000147226
0.000159379
0.0368633
0.000149147
0.000150022
0.000290083
0.000148584
0.000160125
0.000150102
0.0216089
0.000211734
0.0001785
0.000144815
0.0314896
0.00015397
0.000165651
0.0599783
0.000163528
0.000157664
0.000145442
0.000152157
0.000149876
0.000242136
0.000148377
0.000151299
0.000148335
0.000145383
0.0217004
0.000147083
0.000150211
0.000171453
0.0480645
0.000146421
0.0001494
0.000145445
0.000157336
0.0279739
0.0258971
0.000203
0.000152877
0.0329428
0.000152948
0.000149362
0.000149752
0.000148539
0.00014743
0.000158333
0.0292252
0.000154196
0.000149692
0.00334445
0.000145399
0.000256502
0.000218915
0.000166337
0.00234684
0.00016019
0.034239
0.000178628
0.000149733
0.000149692
0.000159219
0.000148454
0.000146402
0.0296702
0.000160512
0.00014929
0.000163297
0.0207927
0.0479304
0.000169727
0.00015922
0.000155616
0.000186991
0.000149578
0.00015624
0.0349669
0.000148344
0.000146432
0.000165933
0.000156432
0.000243145
0.000169516
0.00014583
0.000163055
0.000149683
0.000148347
0.0116189
0.000170206
0.000147348
0.000195077
0.000150184
0.000147022
0.000165409
0.0440049
0.000148377
0.00014758
0.000145391
0.000146892
0.0136941
0.000148409
0.00014966
0.00414808
0.000148051
0.00014987
0.0657339
0.0001483
0.00056246
0.000143633
0.000211703
0.00990373
0.000181239
0.00014911
0.000148604
0.000164416
0.000152227
0.000143703
0.000151724
0.000145403
0.000162583
0.000145467
0.000165102
0.000166347
0.000149886
0.0507682
0.000186214
0.041958
0.000154221
0.000143622
0.000195698
0.000148088
0.000158186
0.000206941
0.000158668
0.000207096
0.0328528
0.000147457
0.068864
0.000192224
0.000154111
0.000154088
0.0670292
0.0575776
0.000144015
0.000146519
0.000146673
0.000208355
0.000188102
0.0597185
0.0466047
0.000147604
0.000178295
0.000177061
0.0003171
0.000164951
0.000156726
0.000158268
0.000146477
0.000203362
0.0589424
0.000164285
0.000184453
0.00014378
0.000146729
0.00014681
0.000163291
0.000145842
0.000209546
0.000148502
0.0056132
0.000227053
0.000161771
0.000170904
0.000146488
0.000147234
0.0325348
0.000151485
0.00593542
0.000146219
0.00014684
0.000146821
0.000149695
0.000175853
0.000160368
0.0421517
0.0447848
0.000148543
0.000149434
0.000158745
0.000193573
0.000170873
0.000159811
0.000146384
0.000289878
0.000152842
0.0171478
0.000144896
0.000231071
0.0134833
0.000145769
0.000147511
0.000169952
0.000149946
0.00014371
0.000169343
0.000149867
0.0132569
0.000178035
0.000312085
0.000147018
0.00023056
0.00202348
0.000170163
0.000149944
0.0136743
0.000146659
0.000210081
0.000148169
0.000149113
0.00996244
0.000191981
0.000254507
0.000177993
0.000159416
0.000144431
0.0396591
0.000146827
0.0119582
0.000268181
0.000159224
0.000145682
0.000147744
0.00016437
0.000159103
0.000149515
0.00018558
0.000171285
0.000165152
0.000148543
0.0510599
0.0432519
0.000239226
0.000147566
0.000165399
0.000144089
0.000149282
0.000163229
0.0179873
0.000159711
0.0352125
0.000164288
0.000199003
0.000204875
0.000148576
0.0596383
0.00760482
0.000146764
0.000160606
0.000196405
0.000159656
0.000160336
0.000154965
0.000160545
0.00122475
0.000145553
0.000169787
0.000146142
0.000149227
0.0207496
0.0501978
0.000173531
0.000148261
0.000144707
0.000144076
0.000152668
0.000162418
0.0637692
0.000178101
0.000212277
0.00607137
0.000176702
0.000158891
0.0121165
0.000148525
0.0379254
0.000151534
0.000147004
0.000148127
0.000159662
0.000180932
0.000145369
0.000154335
0.000168548
0.000192468
0.000158616
0.000206331
0.000148239
0.000204476
0.000174795
0.000169534
0.000167311
0.000148959
0.000149147
0.0251562
0.0387465
0.000148543
0.000191906
0.00014826
0.000144605
0.000148549
0.000153031
0.000188552
0.000146274
0.000161852
0.000146586
0.00015585
0.000147747
0.000169203
0.000151502
0.000145738
0.000148397
0.0001772
0.00017004
0.00269178
0.000533758
0.000146826
0.000147526
0.000147155
0.019862
0.000157026
0.000177594
0.0491045
0.000160942
0.000158107
0.0199028
0.000146892
0.00014688
0.00014745
0.00014642
0.000194965
0.00014813
0.000144622
0.000252487
0.000196006
0.00015603
0.000146154
0.022095
0.0461312
0.000175919
0.000155943
0.000160441
0.000831453
0.000175987
0.00581186
0.000258427
0.000191941
0.0194341
0.000152822
0.000161547
0.000216914
0.000146497
0.000269486
0.000150788
0.000149601
0.0618879
0.000163575
0.000171842
0.0142594
0.000192793
0.000147025
0.0199963
0.000146319
0.000151527
0.000154568
0.000152033
0.000149527
0.0373627
0.0587746
0.000165446
0.000201833
0.000155154
0.0143763
0.00324555
0.00016231
0.0480769
0.00015079
0.000146305
0.000145247
0.000148538
0.000148272
0.00685492
0.000161046
0.0515329
0.000214101
0.000149188
0.000177645
0.000160368
0.000146644
0.000149091
0.0522926
0.0108931
0.000149899
0.000177491
0.000149445
0.000147254
0.000170294
0.000154054
0.0428121
0.000201411
0.00112955
0.0031806
0.000158158
0.000206655
0.000148594
0.00589474
0.000194455
0.000146481
0.000158373
0.0104539
0.000147527
0.000167915
0.000145096
0.00611377
0.000168044
0.00014981
0.000149406
0.000145827
0.000145736
0.000155584
0.0224231
0.00014659
0.000146703
0.000158617
0.000149761
0.0419363
0.000170758
0.000147929
0.000144728
0.000148345
0.000162159
0.000148546
0.000147016
0.000202855
0.000849929
0.00014768
0.000144298
0.000171904
0.0104277
0.000148
0.000147111
0.000147022
0.00019337
0.000144612
0.0295509
0.000169477
0.00017519
0.000276642
0.000445618
0.000146549
0.000248812
0.000143009
0.0195788
0.000164823
0.000157506
0.000148386
0.000148111
0.0256972
0.00014924
0.018455
0.000147291
0.000182554
0.0107497
0.0596387
0.00020046
0.000149056
0.0119274
0.000149936
0.000146612
0.000158442
0.000209968
0.000149554
0.000207085
0.000179256
0.000149675
0.000160714
0.000149765
0.000149747
0.000148333
0.000148759
0.000147055
0.000191642
0.00014856
0.0001718
0.000151817
0.0250656
0.00014994
0.000714019
0.000144595
0.000163223
0.000162359
0.000196728
0.000170039
0.000175413
0.000159418
0.000156068
0.00014986
0.000159715
0.000199216
0.000156406
0.000146199
0.000144532
0.0674351
0.000184327
0.000170067
0.000146609
0.000146426
0.00019636
0.000186929
0.0191411
0.0344671
0.000197586
0.000177384
0.0604945
0.000144245
0.000149312
0.00552749
0.000164554
0.000223286
0.000182673
0.000148458
0.000146327
0.000190339
0.000145229
0.0161976
0.000153266
0.000179395
0.000145277
0.000203303
0.000149046
0.00219025
0.000146401
0.000146529
0.000172224
0.000199251
0.000206759
0.0389063
0.00017108
0.0176521
0.000156621
0.000170986
0.01963
0.000164632
0.000212088
0.000149879
0.000145012
0.000190426
0.0253425
0.000181278
0.000153327
0.000146736
0.00017845
0.000149565
0.0298311
0.0129875
0.000147297
0.000149395
0.000147428
0.000158825
0.000567751
0.000149455
0.014402
0.000275525
0.028316
0.00016623
0.000149387
0.000148882
0.000991965
0.000146824
0.00181201
0.000153819
0.000166599
0.000147695
0.000148067
0.000181264
0.000176188
0.000965308
0.000219819
0.000167373
0.000144083
0.00014915
0.000149303
0.0136292
0.000187671
0.0071593
0.000148812
0.0344154
0.000203613
0.000174917
0.000150431
0.000149944
0.000148221
0.000149059
0.0371581
0.000169726
0.000144712
0.000193203
0.000269644
0.000159469
0.000169881
0.000160839
0.000147265
0.000265338
0.000148849
0.000166422
0.000148557
0.000174528
0.000171887
0.000147474
0.0255503
0.000151426
0.0176674
0.000145532
0.000148894
0.000144835
0.0196582
0.0430407
0.000159211
0.000204297
0.000190168
0.000149852
0.000151918
0.000148592
0.0698982
0.0111677
0.000196342
0.000229811
0.000148585
0.000152242
0.0135307
0.000152989
0.000161116
0.00161959
0.000154194
0.000154602
0.037072
0.000192108
0.0689369
0.000152289
0.000170676
0.000151166
0.000309408
0.0265419
0.000148574
0.000152283
0.0299559
0.000192122
0.000177384
0.000150546
0.0204923
0.0366705
0.000148409
0.00017761
0.000144
0.000147789
0.0270835
0.000147845
0.000170658
0.000162475
0.000207213
0.000148209
0.00014841
0.000144762
0.000164107
0.00015365
0.0131693
0.0630436
0.000170182
0.0011945
0.000145362
0.00014668
0.000148846
0.000148074
0.000164178
0.000159283
0.02771
0.000163708
0.000150688
0.00017822
0.000144434
0.000146764
0.000146238
0.000234509
0.0365682
0.0252449
0.000147174
0.00016626
0.0181035
0.000147995
0.000146971
0.000150904
0.0556078
0.0179317
0.000150066
0.000191085
0.000170779
0.000155792
0.00015425
0.000148539
0.00019363
0.00019219
0.000166038
0.000231858
0.00209031
0.000148415
0.00014971
0.000160493
0.000147474
0.000181041
0.000152226
0.000187757
0.000148718
0.0137241
0.0357203
0.000150072
0.000147923
0.000152613
0.00014456
0.000192001
0.000146171
0.000148965
0.000146585
0.000191994
0.000147944
0.00020732
0.000149872
0.000149089
0.00257468
0.000164481
0.000148386
0.000204595
0.018811
0.000228589
0.000147395
0.0585873
0.000148026
0.000145603
0.000149703
0.000162922
0.00015321
0.000167149
0.000175995
0.000158137
0.000148785
0.000144649
0.0387588
0.000190965
0.0291585
0.000274799
0.00014588
0.0506176
0.000181811
0.000151919
0.000148705
0.000190174
0.014712
0.000147116
0.000263063
0.06677
0.0662316
0.000163175
0.000148605
0.000164778
0.000154763
0.000149104
0.000146593
0.000185505
0.00014902
0.000146133
0.000149762
0.0472153
0.0200453
0.0210065
0.0234479
0.000164176
0.000145258
0.0386969
0.000247134
0.000193139
0.000144864
0.00014727
0.000147901
0.000160492
0.000155842
0.000171912
0.000146231
0.000161437
0.0296928
0.000158203
0.000158244
0.000191067
0.000169586
0.00014976
0.0245656
0.000145504
0.0389517
0.000147998
0.016728
0.0299522
0.000198897
0.000175843
0.000146085
0.000145634
0.000148194
0.000147623
0.000145242
0.00104398
0.0514515
0.000149119
0.000171356
0.00019493
0.000154511
0.000148626
0.000604221
0.000156386
0.0193416
0.0157887
0.0486772
0.00017522
0.000148455
0.000146744
0.0504586
0.000144406
0.000148073
0.000158427
0.000207278
0.000155358
0.000148498
0.000205618
0.000201645
0.000217603
0.0237381
0.0535918
0.000146304
0.000146554
0.000204303
0.000145324
0.000148566
0.000146045
0.000223861
0.000205248
0.000148918
0.000159508
0.0122466
0.00014825
0.000175461
0.000210999
0.000148361
0.000148811
0.000178792
0.000159558
0.000166776
0.0184201
0.00019286
0.000149692
0.000148858
0.000143205
0.0260471
0.000145612
0.0464663
0.000148059
0.00120002
0.000149596
0.00014938
0.000155263
0.000151368
0.000198892
0.0243884
0.00023966
0.000172849
0.000147497
0.000171642
0.000148516
0.00017659
0.000246555
0.000144416
0.000178197
0.000149047
0.000145069
0.000148903
0.0286427
0.000190103
0.000149084
0.000152096
0.000188352
0.000149903
0.000205387
0.00153338
0.0311787
0.00722359
0.000151254
0.000187525
0.00014819
0.0206251
0.000155488
0.000149043
0.023353
0.000156855
0.00415164
0.000149183
0.000192341
0.000167644
0.000149884
0.0165047
0.0226273
0.00016789
0.0343191
0.0391843
0.0301384
0.000159217
0.000380049
0.000148539
0.000148769
0.000195605
0.0469897
0.00016928
0.00014868
0.00014496
0.000148346
0.000149202
0.00014855
0.0453414
0.0266799
0.000147567
0.000230668
0.00015637
0.000161492
0.0399854
0.022501
0.000145692
0.000147001
0.000165753
0.0198983
0.000149189
0.00482295
0.000146117
0.00014528
0.000157669
0.00014489
0.000274767
0.000144406
0.0408377
0.0177124
0.000153571
0.000177349
0.000152691
0.000181018
0.000147942
0.000154303
0.0207606
0.000231035
0.000147998
0.000198625
0.000154174
0.0210288
0.000191356
0.000146014
0.000151227
0.063932
0.0336029
0.000267568
0.000146443
0.000153929
0.000266358
0.0649561
0.000157379
0.000159286
0.000237545
0.000161377
0.000153812
0.0222006
0.000190918
0.000154036
0.000259139
0.000149915
0.000151052
0.000146155
0.0242547
0.000151036
0.000150073
0.0593333
0.000149742
0.000149317
0.000148906
0.000194715
0.000148485
0.0478408
0.000148515
0.000179047
0.000157827
0.000191134
0.000156928
0.000164445
0.000154646
0.000194093
0.0351643
0.017628
0.000148147
0.0598436
0.000157536
0.000194649
0.000157379
0.000158912
0.000149756
0.000157607
0.000146527
0.015383
0.000201868
0.000150274
0.000147204
0.000149604
0.000164753
0.000144438
0.000159845
0.00219546
0.00015028
0.000163257
0.0112814
0.00169042
0.000156978
0.00024412
0.000149535
0.000144541
0.000149001
0.000170723
0.000147872
0.00014722
0.000146189
0.000148745
0.000145258
0.0169971
0.000154829
0.0431485
0.0355667
0.000149871
0.000196341
0.00014837
0.00015823
0.0141248
0.000797665
0.0312881
0.00014744
0.000161543
0.00014417
0.000144664
0.0108754
0.000167946
0.000208313
0.000144465
0.000146606
0.00014797
0.000153007
0.000282533
0.000194948
0.000146709
0.00014994
0.000149078
0.00194726
0.000192117
0.000147768
0.00210289
0.00101522
0.0183492
0.000158163
0.00018428
0.000192827
0.000146068
0.00014581
0.000148454
0.000146804
0.00579938
0.0534403
0.00019241
0.000159616
0.000205896
0.000269504
0.000157523
0.00014836
0.000147991
0.000215156
0.000159232
0.000169274
0.000159726
0.000148025
0.000164898
0.000159428
0.000153528
0.000150925
0.055312
0.0274462
0.000146129
0.000165675
0.000151065
0.000145551
0.000149713
0.0316397
0.000147822
0.00020213
0.000162792
0.000151106
0.000148961
0.000147949
0.00199495
0.000149886
0.000177191
0.0641541
0.043277
0.000146279
0.000182693
0.000151557
0.000149514
0.000145319
0.000154148
0.000148835
0.000175433
0.000147767
0.00037847
0.000155767
0.000147812
0.000151257
0.000166777
0.000158838
0.000158003
0.000158974
0.00015859
0.000144696
0.000144128
0.000172457
0.000146786
0.000533089
0.000149696
0.000186756
0.0370149
0.0387816
0.000146746
0.000211662
0.000165313
0.0472611
0.047624
0.000229256
0.0206009
0.000144708
0.0546108
0.00015094
0.000153078
0.000209042
0.0450993
0.000169898
0.00124215
0.000146889
0.000154708
0.000214022
0.000202544
0.0380406
0.000264011
0.000180612
0.00015623
0.0256554
0.000154717
0.000244217
0.00014883
0.000178467
0.000215341
0.000152275
0.00018316
0.000144077
0.000148562
0.000174592
0.000148405
0.0362864
0.000159341
0.000148524
0.000217355
0.0267804
0.000144723
0.024533
0.00015458
0.000145663
0.0344566
0.0450269
0.000150931
0.00014713
0.000148817
0.000190956
0.00015421
0.0511586
0.0244107
0.000206519
0.0528691
0.000149021
0.000173497
0.000149508
0.0241713
0.000148204
0.000221173
0.0408191
0.000194344
0.0268213
0.000147351
0.000146304
0.000143181
0.00014828
0.000149756
0.000160257
0.0616033
0.000153903
0.000173785
0.000534134
0.0323323
0.0302845
0.0221364
0.000146892
0.00014711
0.000164847
0.000151022
0.0230839
0.000169677
0.000146239
0.0572008
0.0286229
0.000149866
0.000148455
0.000146069
0.00839632
0.000156631
0.000147041
0.000147388
0.000148819
0.000148471
0.000147709
0.000145188
0.00020071
0.000144131
0.000272228
0.000187855
0.000153147
0.000159228
0.000153341
0.000148405
0.000173641
0.000149763
0.000149872
0.000166715
0.000254561
0.000146342
0.000166199
0.000151845
0.000168405
0.0579794
0.000144682
0.000163221
0.000147772
0.00953536
0.000151113
0.0246278
0.000754699
0.0363317
0.0683698
0.000245184
0.000193531
0.000478376
0.0547885
0.000150915
0.0623004
0.000148166
0.000209653
0.0387457
0.000175748
0.000145897
0.000149046
0.000145483
0.0691723
0.000180471
0.000144823
0.000144353
0.000147542
0.000190892
0.000203136
0.000149266
0.000177782
0.0557394
0.000145184
0.000186055
0.000146386
0.000147283
0.000147625
0.000158054
0.0684952
0.000215084
0.000219546
0.000202279
0.0672806
0.000193221
0.00119067
0.0322345
0.0002429
0.062529
0.000146668
0.000187789
0.000148794
0.000149399
0.00014887
0.000161109
0.000148109
0.000151589
0.0058004
0.000152279
0.000154203
0.000154503
0.000160851
0.000146133
0.000198852
0.00014972
0.000149628
0.000192459
0.000169656
0.0302661
0.000163038
0.000152567
0.000171741
0.0695655
0.00902847
0.000149092
0.000196205
0.000152146
0.000166453
0.000148616
0.000149267
0.000153389
0.0474693
0.000165816
0.00012829
0.000158101
0.00865307
0.0540473
0.0529354
0.0197602
0.000147536
0.000146029
0.0591051
0.000173702
0.00016954
0.0253911
0.000148759
0.000144977
0.000149842
0.000151812
0.000186566
0.0180373
0.00018227
0.000144813
0.000146242
0.000148574
0.000175623
0.00024528
0.000148129
0.000160793
0.00017579
0.000148016
0.000167449
0.000208621
0.0326253
0.0305026
0.000147343
0.000172796
0.0449548
0.000174108
0.000158416
0.000170796
0.0304711
0.000148884
0.000143971
0.000145529
0.000146035
0.000151599
0.0118094
0.000143982
0.000148513
0.000171109
0.00015828
0.0198962
0.000153207
0.000156396
0.000160304
0.000163439
0.000148835
0.0441773
0.000148853
0.000149758
0.000190999
0.000163126
0.000146628
0.000149665
0.000169655
0.0478747
0.000157968
0.000154063
0.000188051
0.000169852
0.000154791
0.0297681
0.0285841
0.000158078
0.000150752
0.000150537
0.0161138
0.000215834
0.000160007
0.000176144
0.000144559
0.00018288
0.00014673
0.000156838
0.0203074
0.000157359
0.000169136
0.000153632
0.000405621
0.000177395
0.000148897
0.000194516
0.000190804
0.000149383
0.000179268
0.000148783
0.000170071
0.0163256
0.0162981
0.000498639
0.000170784
0.000235488
0.000198678
0.000179436
0.000148233
0.000148112
0.000156526
0.000164742
0.0588927
0.000160249
0.000149825
0.00014859
0.0574994
0.000180939
0.0641306
0.000151481
0.000146244
0.01109
0.0537485
0.00014804
0.000149236
0.000145646
0.000161767
0.000174281
0.000150912
0.000157035
0.000163235
0.000158758
0.0241613
0.0001478
0.000156058
0.0392671
0.000144681
0.000176614
0.000143848
0.000157314
0.0564118
0.000157217
0.000164673
0.000145671
0.000146691
0.000191041
0.000149173
0.000148009
0.000148441
0.000163069
0.000188796
0.000157313
0.000170428
0.00014799
0.000146335
0.00016216
0.0273283
0.0438884
0.000157195
0.0185548
0.000157598
0.000154442
0.000153889
0.0094268
0.000153729
0.000149081
0.000148356
0.000190003
0.000161649
0.000183443
0.000150004
0.000148414
0.0102807
0.000151024
0.000149427
0.0364982
0.0001574
0.00014839
0.000144696
0.000163918
0.0171804
0.0209132
0.000145872
0.000160135
0.000153757
0.000146733
0.000145294
0.000163068
0.000158835
0.00018552
0.000144763
0.00016584
0.000165486
0.0185912
0.00015865
0.066415
0.000206583
0.000151193
0.0212803
0.000263312
0.000209194
0.000164946
0.000164283
0.000149036
0.000148624
0.00015914
0.0344869
0.000259258
0.000148723
0.0556697
0.000148792
0.000164379
0.000172956
0.000159062
0.000148759
0.000232849
0.0497625
0.000143391
0.000148065
0.000163575
0.000147596
0.000159358
0.000184119
0.00102276
0.000162631
0.000149868
0.000144778
0.00017332
0.000165869
0.000196446
0.000153563
0.000203428
0.000160062
0.000195312
0.000172843
0.000198999
0.000194196
0.000180512
0.000200844
0.016813
0.000156705
0.00055112
0.000156567
0.000192632
0.000148387
0.000145002
0.000161115
0.000147653
0.000177123
0.000235197
0.000168699
0.000157305
0.0475489
0.000165041
0.00015784
0.0377248
0.000146281
0.000290128
0.000172235
0.000149876
0.0412595
0.000206017
0.000172907
0.000172666
0.019872
0.000161377
0.000149593
0.00017374
0.000165155
0.0205554
0.000171106
0.000164393
0.000164417
0.000157905
0.000181901
0.000175861
0.000246686
0.00158458
0.000153856
0.000146099
0.000149954
0.0444878
0.000162422
0.000153158
0.000156814
0.0186205
0.00016102
0.000148512
0.000163814
0.000146094
0.000148422
0.000156514
0.000193077
0.000147939
0.0179844
0.000149693
0.000146611
0.000174607
0.000160794
0.0160597
0.000147498
0.000151299
0.0524391
0.000163057
0.000148127
0.0342035
0.0181846
0.000157593
0.000204473
0.000155236
0.000163385
0.0302296
0.000162037
0.000720035
0.000204812
0.00017158
0.000165042
0.000164851
0.000145758
0.00014816
0.000145909
0.000165932
0.000208406
0.0443572
0.000159816
0.000175147
0.000147413
0.000145698
0.000152341
0.0411523
0.000156524
0.000162201
0.00015468
0.000148731
0.0145237
0.000148692
0.000144282
0.000214031
0.000149492
0.000147943
0.000146686
0.00014926
0.00015295
0.0182451
0.000191084
0.000148965
0.000143996
0.000169732
0.000152808
0.000154135
0.0231467
0.000336903
0.0386437
0.000148092
0.000175632
0.0373932
0.0685326
0.000218517
0.00649683
0.000155343
0.000147995
0.0191444
0.000163872
0.02948
0.000151773
0.000147981
0.00015176
0.000152979
0.0216332
0.0176033
0.000154217
0.000162968
0.00021324
0.000149365
0.00407889
0.0603841
0.000151428
0.000175873
0.061797
0.000147282
0.000205519
0.0370345
0.000149574
0.000147125
0.0366927
0.000147722
0.000148447
0.000155021
0.019429
0.0211317
0.00014597
0.000163168
0.000150779
0.0223835
0.000204791
0.000148519
0.000145229
0.0260128
0.0349767
0.0437613
0.000144729
0.000145801
0.000148246
0.000176123
0.00016497
0.000158
0.000146453
0.000156677
0.0409355
0.000175866
0.000145867
0.0438039
0.000163367
0.000145859
0.000153143
0.000159455
0.000148537
0.000192795
0.000167303
0.0406056
0.000176222
0.000164156
0.0178389
0.000161324
0.000193407
0.0200842
0.000165913
0.0460144
0.000162338
0.0391148
0.0386746
0.0173359
0.00016335
0.0645729
0.000199982
0.000146377
0.000156359
0.000185131
0.000173678
0.000161342
0.0521696
0.000153283
0.000145914
0.000159307
0.000144708
0.000147499
0.000155615
0.000186501
0.000191388
0.000163339
0.00539718
0.000148652
0.000153553
0.000146225
0.000148411
0.000177497
0.000152196
0.000153178
0.000149376
0.000148506
0.000211593
0.000146629
0.00014885
0.000178529
0.000153065
0.0304222
0.000171874
0.000256754
0.000163196
0.00015325
0.000150365
0.000192019
0.000147977
0.0448466
0.0200925
0.000151572
0.000148663
0.0441636
0.000200634
0.000199166
0.0241568
0.00014406
0.000147862
0.000156086
0.000370805
0.000153258
0.000148901
0.000168137
0.000164136
0.0149789
0.0400842
0.00061168
0.00018618
0.000149309
0.000645703
0.000151171
0.000156689
0.000147671
0.000156634
0.000185898
0.000175604
0.000228692
0.000146983
0.000157216
0.000156496
0.000148029
0.0188942
0.000163545
0.000156266
0.000381858
0.000244449
0.000147641
0.000145814
0.000155986
0.0459688
0.00014421
0.000175306
0.000157518
0.000150948
0.0001721
0.000169243
0.000152435
0.0285626
0.000149348
0.00019109
0.00016301
0.000178045
0.000169211
0.000152813
0.000204173
0.000168079
0.000149272
0.000159691
0.000174921
0.000145987
0.000168038
0.000162242
0.0251971
0.000149484
0.00658913
0.000147961
0.0001623
0.000161324
0.000146577
0.0216018
0.000184871
0.000145684
0.000174332
0.000148477
0.00014881
0.00014697
0.000152266
0.000157193
0.000173906
0.000149872
0.000155258
0.000181251
0.000166536
0.000178605
0.000173304
0.000146027
0.000150139
0.000146199
0.000169264
0.000146583
0.000154417
0.000199349
0.00019004
0.000148141
0.000148437
0.000147674
0.000186388
0.000148962
0.000153994
0.000194066
0.000158563
0.00702615
0.0001977
0.000149591
0.000177215
0.0291011
0.000148662
0.000148093
0.0348453
0.000171345
0.000169794
0.000148689
0.00014538
0.000143465
0.000151682
0.0314379
0.0263081
0.000148086
0.000189415
0.000170223
0.000156164
0.000146067
0.000149489
0.0267635
0.000148819
0.000147683
0.00896259
0.00082506
0.000144997
0.000144687
0.000147999
0.0302474
0.00015201
0.0001505
0.0274975
0.0225037
0.000147109
0.000160702
0.000148718
0.000194603
0.000204339
0.000148084
0.0629574
0.000155393
0.000183227
0.00014692
0.000352665
0.0287867
0.00018
0.0248339
0.0445313
0.000143989
0.0238152
0.000148028
0.00014719
0.0167872
0.000149545
0.000196018
0.000159552
0.0033699
0.000148076
0.00520836
0.0337977
0.000147835
0.000149774
0.000191488
0.0173701
0.000154305
0.000148768
0.00015929
0.000185953
0.000160238
0.00014695
0.0275003
0.000150581
0.000158465
0.000151617
0.00017447
0.0261985
0.000146658
0.0298268
0.000182382
0.000208572
0.000149562
0.000151554
0.00017715
0.000202576
0.065913
0.000146952
0.000148164
0.000145793
0.000369712
0.000199239
0.0227957
0.0697908
0.000188393
0.000145796
0.00014905
0.0001475
0.0439213
0.000147312
0.0243064
0.057573
0.000149015
0.000192505
0.000170525
0.00016747
0.000185673
0.000147934
0.000146178
0.000216305
0.000739371
0.000146091
0.000150312
0.0393534
0.000237674
0.000156372
0.000254185
0.000150778
0.000150089
0.0474736
0.0652114
0.000148628
0.00015299
0.000145642
0.0222517
0.0673615
0.000146118
0.00014717
0.00015084
0.000148183
0.000159479
0.00015604
0.000148209
0.0382383
0.000196336
0.00015855
0.00015355
0.0033261
0.000146112
0.00014891
0.000147781
0.0352602
0.000201649
0.000148959
0.000147622
0.0203329
0.000158562
0.0492697
0.000149172
0.0343114
0.0488778
0.000171158
0.000146154
0.000149185
0.000147257
0.000162767
0.000223974
0.000192788
0.000179474
0.000162517
0.000148653
0.000220739
0.00429129
0.0144036
0.000160722
0.000146824
0.000146161
0.000143463
0.000204844
0.00272281
0.000152705
0.000160131
0.000147174
0.000148384
0.000146991
0.000174611
0.000147713
0.000188806
0.000145686
0.000181241
0.0346867
0.0440193
0.0168221
0.000205152
0.000148322
0.0001582
0.000186265
0.000169984
0.000153432
0.000156883
0.000148287
0.000147702
0.00015485
0.000146652
0.000146873
0.000179422
0.000145223
0.000161435
0.0204831
0.000148969
0.000158201
0.000195112
0.000149762
0.0539677
0.000168536
0.000158194
0.000148357
0.000143695
0.000317348
0.000148115
0.000154171
0.000145606
0.000148107
0.000148878
0.000240719