/*--------------------------------*- C++ -*----------------------------------*\
| =========                 |                                                 |
| \\      /  F ield         | OpenFOAM: The Open Source CFD Toolbox           |
|  \\    /   O peration     | Version:  v2012                                 |
|   \\  /    A nd           | Website:  www.openfoam.com                      |
|    \\/     M anipulation  |                                                 |
\*---------------------------------------------------------------------------*/
FoamFile
{
    version     2.0;
    format      ascii;
    class       volScalarField;
    location    "100";
    object      nut;
}
// * * * * * * * * * * * * * * * * * * * * * * * * * * * * * * * * * * * * * //

dimensions      [0 2 -1 0 0 0 0];


internalField   nonuniform List<scalar> 
14804
(
0.0062878
0.0058295
0.00199821
0.00504965
0.00236403
0.00191692
0.00217757
0.00294648
0.00175512
0.00583396
0.00043411
0.00190511
0.00202076
0.00440519
0.000380256
0.00744
0.0025833
0.00519276
9.9937e-05
0.00350776
0.0058364
0.00105021
0.000331251
0.00291299
0.00122987
0.00254176
0.00441658
0.00328219
0.00548981
0.00364035
0.00587846
0.000323371
0.00349996
0.00123785
0.00188551
0.00212889
0.000365694
0.00583534
0.00276053
0.00348099
0.0019985
0.00195701
4.99893e-05
0.00509566
0.00273589
0.00104429
0.00124079
0.00218538
0.000989029
0.000169054
0.00205945
0.00587019
0.00583153
0.00566883
0.000174671
0.00155925
0.000729298
0.0052386
0.00583489
0.00106408
0.00200833
0.00185138
0.00510246
0.00242323
0.00494272
0.00583194
0.00583616
0.00202257
0.00583125
0.00722611
0.00589362
0.00454656
0.000406738
0.00773439
0.00588177
0.00715512
0.00779863
0.00582917
0.000155448
0.00583239
0.00779146
0.00583179
0.00583427
0.00588088
0.00583562
0.000821966
0.00582715
0.00580774
0.00582812
0.00305649
0.00127847
0.000974292
0.00218769
0.00588359
0.000157464
0.00796566
0.00570069
0.000386559
0.00242672
0.000404258
0.0054416
0.00632789
0.00583586
0.00414864
0.00101126
0.00686589
0.00191239
0.000126946
0.00583649
0.00588189
0.005836
0.00611141
0.00216867
0.00324838
0.00617493
0.00687213
0.000883728
0.00125128
0.00583553
0.00516008
0.00798094
0.00582805
0.00216729
0.00191894
0.00583483
0.00583566
0.00093542
0.00425546
0.000285411
0.00191384
0.00203177
0.000550115
0.00700338
0.000385166
0.000909874
0.00216855
0.00490648
0.000571086
0.00427292
0.00115155
0.00583008
0.00440637
0.00591972
0.00324714
0.00405511
0.00583197
0.00107228
0.00583592
0.000755818
0.000147399
0.00175273
0.000286614
0.00342696
0.00412224
0.00583316
0.00587637
0.00461502
0.000318688
0.00280272
0.000649327
0.00582852
0.00582971
0.00699837
0.000357334
0.0039415
0.00599919
0.00215746
0.00223702
0.00450796
0.00318178
0.000532004
0.000817736
0.00163057
0.000391514
0.000482194
0.000498644
0.000228414
0.00120269
0.00582997
0.000685006
0.00176869
0.00810485
0.00225155
0.00041998
0.00106796
0.00452059
0.00103686
0.000901214
0.00258395
0.00583103
5.35418e-05
0.00145214
0.00320573
0.000926196
0.000345581
0.0058417
0.00589232
0.00206879
0.000453528
0.0022555
0.00356034
0.00583094
0.00298742
0.00044906
0.00128514
0.00259803
0.00469718
0.000444535
0.00116183
0.00170277
0.00382021
0.00202986
0.00182703
0.00582854
0.00175353
0.00426329
0.00422505
0.00584913
0.00584412
0.00575762
0.000424263
0.00206947
0.000410308
0.000891741
0.00587986
0.000569321
0.00355978
0.000780218
0.00682507
0.00112032
0.00588101
0.00304833
0.00538759
0.00751688
0.00787124
0.00583585
0.00114786
0.00106559
0.000670741
0.00128074
0.00506408
6.31789e-05
0.00227184
0.00551971
0.00584745
0.000837306
0.00182565
0.00374864
0.000300055
0.00588696
0.00276507
0.00584121
0.00582877
0.00582896
0.00667841
0.00132583
0.00583013
0.00343047
0.00589114
0.00583237
0.00220503
0.00268645
0.000288396
0.00260366
0.000387399
0.00411743
0.00476242
0.00584456
0.00284696
0.00187909
0.00843232
0.00561337
0.00583589
0.00583544
0.00419006
0.000378375
0.00579771
0.00320079
8.08751e-05
0.00716378
0.00106757
0.0058277
0.00332679
0.00205116
0.00879384
0.000489716
8.38713e-05
0.00580108
0.000386489
0.00052863
0.00584442
0.0039509
0.0010582
0.00587704
0.00204722
0.000246449
0.00051233
0.000266275
0.00467113
0.00038196
0.00583553
0.00582917
0.000390054
0.00352274
0.00015358
0.00279481
0.0015151
0.00671026
0.000399181
0.00288647
0.00263609
0.00587649
0.000577831
0.00125124
0.00655196
0.00159101
0.00215139
0.000533148
0.00582774
0.00408047
0.00112913
0.000942049
0.000777925
0.00193382
0.0058896
0.00358659
0.000470892
0.005835
0.000463374
0.00370027
0.00415151
0.0044579
0.000259809
0.000630122
0.00583236
0.00587445
0.00582916
0.00356194
0.00137458
0.00162875
0.000999883
0.00563606
0.00157131
0.00206165
0.00588266
0.00621321
0.00820846
0.00704405
0.00163777
0.00501703
0.00305713
0.003558
0.00583162
0.0058429
0.00141384
0.00107947
0.00242569
0.000114141
0.00584295
0.00582876
0.00147425
0.000878389
0.00216412
0.000743685
0.0076007
0.00748063
0.00581331
0.00134526
0.0012752
0.00583984
0.00173171
0.00583376
0.000247287
0.00396558
0.00582847
0.00171162
0.00584594
0.00185773
0.00695001
0.000366383
0.000612354
0.0037935
0.000414547
0.00895834
0.00190056
0.00584051
0.00895725
0.00111285
0.00583233
0.00679625
0.000390225
0.00585595
0.00151262
0.00567223
0.00388599
0.00181691
0.000755587
0.00452886
0.00504444
0.00583397
0.000413224
0.00583179
0.000102455
0.00136692
0.000697125
0.000668689
0.000826987
0.00206189
0.00357966
0.00583587
0.00585406
0.000311892
0.00241227
0.00583397
0.00587447
0.000422685
0.00583327
0.00341986
0.00292125
0.00615327
0.000543991
0.00253086
0.00586095
0.00492161
0.00068058
0.00437948
0.00817653
0.000177902
0.00535787
0.00587074
0.00243131
0.00586968
0.000192291
0.00583193
0.00181549
0.00456323
0.00583466
0.0059969
0.00584508
0.00151983
0.00364834
0.0086281
0.00585827
0.00401208
0.00583048
0.00540043
0.00359158
0.00410022
7.06891e-05
0.0018389
0.0073317
0.00175567
0.00589005
0.00583583
0.00592259
0.00474015
0.00605503
0.00393662
0.00364871
0.00583565
0.000912619
0.00583025
0.000474789
0.000827041
0.00440057
0.000811026
0.00374566
0.00644721
0.00251005
0.00176385
0.00583563
0.000302837
0.00373635
0.00585447
0.00407067
0.00507397
0.00220886
0.0013621
0.00326599
0.00706413
0.00218084
0.00470234
0.00120965
0.0020628
0.00588611
0.000499253
0.00540088
0.0034699
0.00585891
0.000898525
0.000479768
0.000236932
0.000982045
0.00585449
0.000606909
0.00583561
0.00477553
0.0015951
0.00222114
0.00511904
0.000454617
0.00179051
0.00582985
0.00018211
0.0076453
0.00583463
0.00583235
0.00582698
0.00587957
0.00244798
0.00583448
0.00184852
0.000927948
0.00355252
0.00196966
0.00776893
0.00583315
0.000476334
0.00582897
0.000972497
0.0011215
0.000270475
0.00245693
0.00583353
0.00461418
0.00578661
0.00582837
0.00126261
0.00582956
0.000619941
0.0058699
0.000887181
0.00308293
0.00587819
0.0085273
0.00204105
0.00492977
0.000892203
0.00582998
0.000899363
0.00583168
0.00530391
0.000481186
0.000321021
0.00103301
0.00717993
0.00582983
0.00562722
0.000965561
0.00331641
0.000618303
0.00781791
0.0065556
0.00583173
0.00582772
0.00582893
0.000427001
0.000446027
0.00895757
0.00774803
0.00583185
0.00302494
5.0515e-05
0.000547446
0.00447307
0.00546372
0.00141462
0.00587695
0.00109944
0.00856092
0.000917723
0.000585156
0.00582837
0.00582887
0.00589174
0.000776984
0.00582803
0.00099677
0.00583236
0.000304456
0.000755249
0.000685058
7.2476e-05
0.00587707
0.00584104
0.00720105
0.00582002
0.000327337
0.00582849
0.00589236
0.00584774
0.0058356
0.00329534
0.00367234
0.00737358
0.00760896
0.0058334
0.00570355
0.00417047
0.00120459
0.0001651
0.000666249
0.00588197
8.40263e-05
0.00102137
0.00293721
0.00584372
0.000477134
0.00190183
0.0058279
0.0053976
0.000326553
0.00583645
0.00582892
0.000921115
0.0049821
0.00338416
0.00123147
0.000516342
0.00584277
0.000515338
0.0001008
0.000348232
0.00583646
0.00302727
0.0058506
0.000547161
0.00583372
0.00583399
0.00147238
0.00172729
0.000492767
0.00306273
0.000522154
0.00584426
0.00759848
0.00583127
0.00146976
0.000341781
0.00422413
0.00582748
0.0056987
0.00458351
0.00136302
0.00583511
0.000441156
7.86723e-05
0.00454718
0.00584044
0.00651104
0.00798816
0.000125087
0.00576172
0.000161882
0.00583328
0.00472611
0.000263311
0.00257151
0.000394465
0.00757985
0.000194316
0.000823788
0.00105149
0.0034707
0.00728046
0.0012744
0.00582869
0.00506441
0.000901872
0.00186709
0.000367196
0.00130132
0.000571953
0.000605035
0.00582736
0.00102044
0.00582762
0.00334864
0.00585108
0.00775549
0.000410071
0.00539194
0.0058286
0.00583056
0.00112366
0.000190249
0.00815931
0.00132408
0.000499618
0.000342594
0.000462148
0.000517397
0.00223671
0.00291723
0.00779792
0.00200536
0.00582892
0.00488686
0.00517855
0.000580152
0.00582657
0.000612414
0.00109022
0.000459647
0.000651275
0.00105218
0.00336563
0.00109113
0.00330445
0.0024994
0.00424264
0.00583343
0.00218421
0.00290413
0.00760049
0.00284652
0.00174464
0.00493515
0.00583093
0.00583967
0.00105255
0.000649065
0.00585076
0.000387289
0.00588342
0.00123507
0.0052819
0.000920883
0.00582051
0.00582759
0.00583843
0.00119585
0.00121419
0.000666218
0.000493995
0.00582865
0.00583204
0.00582976
0.00605585
0.000441916
0.000700787
0.00841588
0.000533999
0.00394233
0.00582446
0.00583205
0.00583079
0.00582905
0.00588171
0.00118907
0.00588407
0.00582859
0.000455557
0.0015643
0.000519038
0.00588701
0.00628208
0.00539422
0.00331113
0.000807465
0.00328265
0.00062081
0.000451308
0.0017733
0.000439317
0.00164414
0.00332043
0.00105447
0.000492779
8.031e-05
0.00583109
0.000401834
0.00454829
0.00583537
0.00867863
0.0046831
6.88299e-05
0.0038918
0.000397772
0.00584187
0.00612442
0.00582883
0.00115221
0.0051294
0.00220968
0.00583514
0.00506379
0.00635782
0.00440037
0.00115159
0.000881927
0.0020994
0.000974788
0.000493632
0.00693026
0.00495429
0.00582905
0.00583928
0.00583317
0.0034588
0.000447455
0.00502607
0.00861368
0.000889459
0.00588912
0.001465
0.000284531
0.00589422
0.00338112
0.00843351
0.00064376
0.00365405
0.000765522
0.00236234
0.0058299
0.00100628
0.00567338
0.00757574
0.000488352
0.000640143
0.00114639
0.000523428
0.0010207
0.00583251
0.000287451
0.00134458
0.00588597
0.00529928
0.000618174
0.00584183
0.000207887
0.00584957
0.000356995
0.00020979
0.00210981
0.00238112
0.00587745
0.00584331
0.000929164
0.00108102
0.00585086
0.00588896
0.00524029
0.00172777
0.00724086
0.000175618
0.00583292
0.00583202
0.00362965
0.000207167
0.00294124
0.00582842
0.00113509
0.000564116
0.00583034
0.00584186
0.00123948
0.00161312
0.00583129
0.00590253
0.0058815
0.00152431
0.00582904
0.00468085
0.000822277
0.00338688
0.000120037
8.16076e-05
0.00588565
0.000169703
0.00582331
0.00599906
0.0018654
0.00538671
0.00583393
0.0044832
0.00359644
0.00255326
0.00410159
0.00582986
0.00257375
0.00144001
0.00578169
0.000553433
0.0058338
0.00252168
0.00583641
0.00585182
0.0052572
0.000178092
0.00189983
0.000393474
0.00279525
0.0018829
0.00505218
0.00583588
0.00218558
0.00358656
0.00587577
0.0058285
0.000309687
0.00583376
0.00121083
0.0058079
0.00121687
0.00583642
0.00052306
0.00583804
0.000181518
0.004792
0.000607842
0.00244405
0.000426424
0.00156621
0.00549193
0.00583608
0.0051743
0.000896232
0.000497649
0.00585166
0.00582966
0.00764512
0.00224146
0.000987267
0.00587766
0.00582875
0.000445984
0.002012
0.00580882
0.00707935
0.00147488
0.0022455
0.0090079
0.00583997
0.00583446
0.00027736
0.00186306
0.000109811
0.00257604
0.00583322
0.00588599
0.00187839
0.0058383
0.00496057
0.005717
0.00278725
0.00584541
0.00110254
0.00583378
0.000612662
0.00588428
0.00586583
9.01915e-05
0.000497395
0.0010207
0.00704865
0.000152151
0.00398369
0.000387586
0.000163228
0.00411603
0.00450035
0.000103909
0.00168503
0.0058486
0.0018726
0.00385781
0.00270133
0.00571284
0.00584424
0.000675168
0.00467651
0.00530035
0.00187642
0.0058405
0.00205643
0.00583964
0.000574381
0.000215159
0.0019585
0.00247514
0.000139046
0.00672681
0.00398724
0.00588881
0.00583443
0.000591
0.00584677
0.000575474
0.000667662
0.00357444
0.0058304
0.00583242
0.00270285
0.00327067
0.000620964
0.000795113
0.000336264
0.00583148
0.00583404
0.00207917
0.0033845
0.00208849
0.0012614
0.00583398
0.00633553
0.00112099
0.000292803
0.00210507
0.00550143
0.00332446
0.00588978
0.00601465
0.000849057
0.00583852
0.000907736
0.000292991
0.00518715
0.000916404
0.000516298
0.00583838
0.000330741
0.0031484
0.00435925
0.00282397
0.00334095
0.00361514
0.00584134
0.0035174
0.00176199
0.00230449
0.0058336
0.00296266
0.00583904
0.00572133
0.00764767
0.000603555
0.00038857
0.000446688
0.00184298
0.00307835
0.00270746
0.00737143
0.00177948
0.000506139
0.000719811
0.00583399
0.00578432
0.000662231
0.00333399
0.000668841
0.000823074
0.000626667
0.00132303
0.00610083
0.00170054
0.00751619
0.00296973
8.05031e-05
0.00583416
0.000522243
0.00679044
0.00276568
0.00201946
0.00705965
0.000252843
0.00204733
0.00595347
0.00605088
0.00709292
0.00583729
0.00040558
0.00583009
0.00583522
0.00381116
0.00583515
0.00379493
0.000781991
0.00100342
0.00583349
0.00583208
0.00583905
0.000249089
0.000925454
0.000840242
0.00853006
7.85379e-05
0.000675408
0.00584181
0.00585162
0.00414556
0.00583149
0.000198444
0.00154832
0.00358033
0.000987871
0.00130358
0.00113482
0.00584611
0.00588629
0.00587321
0.000217665
0.00752361
0.006316
0.00583657
0.00431079
0.00459158
0.00583115
0.00583988
0.00444812
0.00560239
0.0056412
0.00479324
0.00187031
0.00371047
0.000676117
0.00454703
0.00307267
0.000668577
0.00100318
0.00434357
0.000244047
0.000512216
0.00583314
0.00583563
0.000316147
0.00583018
0.00115369
0.00578584
0.00196177
0.00394316
0.00238813
0.0063142
0.0029326
0.00583251
0.00181221
0.00584678
0.000296932
0.00583273
0.00583447
0.00588453
0.000245903
0.00583127
0.000547529
0.00583619
0.00583384
0.000990906
0.00172964
0.00388211
0.0010924
0.00216092
0.000159443
0.00583017
0.00781461
0.00343533
0.00582741
0.00395901
0.00132546
0.00127014
0.000336189
0.00330371
0.000519061
0.00375003
0.00583861
0.00777193
0.001079
0.00562156
0.000314715
0.00582683
0.00773717
0.00241847
0.00202734
0.00593361
0.00045686
0.00186576
0.00590349
3.0666e-05
0.00504337
0.00649594
0.000209695
0.00273288
0.00458537
0.0036639
0.00435196
0.00585467
0.00212007
0.00583364
0.00583234
0.00583589
0.00488177
0.00290948
0.00618056
0.00112132
0.00464362
0.00582651
0.00736173
0.000523097
0.00163858
0.00583247
0.00590369
0.00583312
0.00201282
0.00550863
9.6958e-05
0.0058644
0.000489886
0.00413671
0.00129001
0.00114759
0.000271082
0.000359528
0.00583586
0.00335117
0.00586748
0.00757393
0.00583894
0.00376856
0.00415834
0.000498151
0.00330837
0.00583924
0.00587505
0.0058318
0.00584385
0.00584583
0.000359763
0.00699989
0.00504989
6.92412e-05
0.00121277
0.00496729
0.00268937
0.000368474
0.00548864
0.000891836
0.00218134
0.00846244
0.000272028
0.00583212
0.00587488
0.00710091
0.00584734
0.0037201
0.00529872
0.00104465
0.000700916
0.00583199
0.00112441
0.00113349
0.000831957
0.00637867
0.00738687
0.00586969
0.005871
0.00108057
0.00584029
0.00291675
0.00583159
0.000744237
0.000580446
0.00589892
0.00518862
0.00194959
0.00583326
0.00335322
0.000468298
0.0058316
0.00290372
0.000626003
0.000390339
0.000613876
0.00452566
0.000399435
0.00583569
0.00414239
0.00582363
0.00677242
0.00582842
0.00696732
0.00368501
0.000780829
0.00583539
0.00589044
0.00063579
0.00106
9.4752e-05
0.00650621
0.000564292
0.00349957
0.00583014
0.00251196
0.00583853
0.000658737
3.27839e-05
0.00583363
0.00106047
0.00589416
0.00583464
0.00589572
0.00685524
0.00189118
0.00583381
0.00244738
0.00202381
0.00184958
0.00111278
0.000673835
0.00597259
0.00112086
0.00556353
0.00210027
0.00335347
0.00343874
0.00554989
0.00588975
0.00626786
0.00545376
0.00166229
0.00224617
0.000350309
0.000594871
0.00583621
0.00220873
0.00354613
0.00115258
0.00557939
0.0048968
0.00692791
0.00521455
5.41636e-05
0.00583231
0.00352741
0.000710703
0.00692015
0.00285585
0.00583252
0.00584564
0.0058332
0.00583418
0.00583236
0.00757868
0.00666284
0.00583019
0.000707504
0.000470778
0.00490403
0.00757921
0.00511167
0.00585626
0.0058509
0.000248347
0.00435758
0.00589335
0.000774067
0.00585878
0.00583547
0.00537267
0.00584011
0.000372308
0.00584528
0.00746238
0.00283779
0.0011944
0.0029819
0.00104242
0.00115842
0.00583097
0.000616284
0.00508661
0.000197257
0.0058314
0.00143188
0.00068478
0.00351623
8.84973e-05
0.00587978
0.00110579
0.00865162
0.0061465
0.000233382
0.00582931
0.00073457
0.000374729
0.00736244
0.00244074
0.000313926
0.000606512
0.000339128
0.00272026
0.00369685
0.00105331
0.000378018
0.000256117
0.00173719
0.00116216
0.00587787
0.00611496
0.00571434
0.00170967
0.00735602
0.00176041
0.00210068
0.00583337
0.00163224
0.00583213
0.00863622
0.00583414
0.000801621
0.00393741
0.00186012
0.000644404
0.000261489
0.00440533
0.000226543
0.00755078
0.00316032
0.00334565
0.00920909
0.00171277
0.000365931
0.0015179
0.000411963
0.00583583
0.00190399
0.00583099
0.00366697
0.000133
0.0014544
0.00583794
0.00486606
0.000355949
0.00584732
0.00459523
0.000949893
0.00149642
0.00472358
0.00189588
0.000542486
0.00542824
0.00031938
0.00583518
0.00582917
0.00583431
0.00376325
0.00583243
0.00582894
0.00584751
0.00583404
0.0058355
0.00531052
0.000746021
0.00821974
0.00590139
0.00583614
0.0014199
0.00345464
0.00100601
0.00224296
0.000625166
0.00566588
0.0058388
0.00486369
0.0058392
0.00584795
0.0013618
0.000772114
0.000108837
0.00583326
0.00587797
0.00583244
0.0057362
0.000517803
0.000529969
0.0058745
0.00583639
0.00589521
0.000380268
0.000368044
0.00581808
0.000937908
0.000379459
0.00314436
0.000430571
0.00219384
0.00175307
0.00586896
0.00587843
0.00583186
0.00588975
0.00117306
0.00440338
0.000463101
0.0016224
0.00106497
6.2288e-05
0.00537258
0.00583438
0.00583106
0.000186689
0.00521391
0.00312386
0.00205654
0.00367639
0.00072184
0.00154228
0.0029164
0.00128367
0.00815968
0.00509001
0.00585557
0.000120813
0.0012505
0.00583445
0.00202486
0.00677404
0.00583253
0.0011323
0.00124029
0.00113163
0.00408659
0.00583119
0.000919525
0.001704
0.000881451
0.00850103
0.00740098
0.00584974
0.00232176
0.00106143
0.00333449
0.00582743
0.000702745
0.00294666
0.000581429
0.0050806
5.14491e-05
0.000675222
0.00583054
0.00165728
0.000217334
0.00523208
0.00105409
0.001272
0.00528644
0.005832
0.00582869
0.00356967
0.00589379
0.00050942
0.00583567
0.00211314
0.00663781
0.00723519
0.00584319
0.00095521
0.000137162
0.00790075
0.00734514
0.00039969
0.00550177
0.00584234
0.00785458
0.00173126
0.00104361
0.000995507
0.00840547
0.0012563
0.000390127
0.00584728
0.000966272
0.000898524
0.00112597
0.00632686
0.000355304
0.000630983
0.0055013
0.00364259
0.000656807
0.000416556
0.00583299
0.0022361
0.000851343
0.00578238
0.00151774
0.00582531
0.00583229
0.000164451
0.00400334
0.00739778
0.00318131
0.0035869
0.000810091
0.00649476
0.00585736
0.00418754
0.000684423
0.00587056
0.00683889
0.00802882
0.0011946
0.00583637
0.00583553
0.00170412
0.000755542
0.00878675
0.00577423
0.00104309
0.00709789
0.00583367
0.000361565
0.00369631
0.00626682
0.00489413
0.0007862
0.00773988
0.000336521
0.00607751
0.00582923
0.00583155
0.0058237
0.00359064
0.00583585
0.00506632
0.0081998
0.00568275
0.00340279
0.000422377
0.00715801
0.00320111
0.00560341
0.0058772
0.00583528
0.00172988
0.00127381
0.00625392
0.00385111
0.0058579
0.00913611
0.00663891
0.00204589
0.00349293
0.00583973
0.00255346
0.000442628
0.00583015
0.00473284
0.00342489
0.00458646
0.00583537
0.00585253
0.00117973
0.00582815
0.000538792
0.00205469
0.000790101
0.00120462
0.00117258
0.00583496
0.000421801
0.00583591
0.00583621
0.000235242
0.000184951
0.00582855
0.000157495
0.00300446
0.000349551
0.00757435
0.00582995
0.000380619
0.00583233
0.00114602
0.00159073
0.00375184
0.000448405
0.00199253
0.00757717
0.000545062
0.000435034
0.000312084
0.00730356
0.00191094
0.00752855
0.00298599
0.00100606
0.00658293
0.000427531
0.0058372
0.00589261
0.00586844
0.0076284
8.93311e-05
0.00584288
0.00585158
0.00584463
0.00182944
0.00108085
0.00583438
0.00276026
0.00909495
0.00583191
0.000261551
0.00586788
0.00485498
0.00463868
0.00143978
0.00671894
0.000871246
0.000803836
0.000502611
0.00684205
0.000651467
0.000495006
0.00188377
0.000290677
0.00879734
0.0058683
0.00208606
0.00583293
0.0021264
0.00583414
0.000572955
0.00584243
0.00101809
0.000320724
0.00578183
0.00331317
0.00482688
0.00194205
0.00582771
0.00118456
0.00177397
0.00588377
0.0015789
0.00334811
0.00411891
0.000219145
0.00116831
0.003638
0.00677656
0.00158479
0.00589616
0.000306394
0.00335423
0.000142969
0.00583376
0.00589283
0.00570966
0.00747907
0.00226503
1.53921e-05
0.00060525
0.00155093
0.00364769
0.00828154
0.006074
0.00583124
0.00587499
0.00685342
0.00340689
0.000157493
0.00639698
0.00583435
0.00582879
0.00162693
0.00109092
0.00207379
0.00268588
0.000403507
0.00583231
0.00586141
0.00281243
0.000564078
0.00024037
0.00376819
0.000483583
0.00318576
0.00583254
0.000369218
0.00101696
0.00687553
0.00165707
0.00583012
0.00359587
0.00804025
0.000508029
0.000647909
0.000141631
0.00530108
0.00517459
0.00582509
0.00585811
0.00583231
0.00238419
0.00169278
0.00582808
0.00426515
0.002709
0.00316623
0.00545732
0.00572065
0.00117549
0.000612405
0.000179451
0.00589933
0.0075505
0.00498283
0.00583583
0.00169928
0.000636785
0.00583024
0.00218609
0.00304904
0.00856147
0.00061837
0.00220078
0.000329901
0.000323548
0.00126855
0.00619496
0.00658475
0.00530379
0.00128769
0.00135425
0.0027404
0.000257081
0.000633668
0.00151594
0.00582828
0.00256445
0.00583167
0.000564586
0.00340618
0.000626695
0.0004341
0.000754573
0.000550089
0.00227095
0.00583324
0.000757148
0.00183285
0.00588718
0.00291683
0.00583358
0.00162107
0.00113572
0.00295093
0.00026747
0.000189268
0.000259956
8.76134e-05
0.00281858
0.00335325
0.00583878
0.000444454
0.000354622
0.00884612
0.000697251
0.00550885
0.00590129
0.00685887
0.000587217
0.00845308
0.00306715
0.0058632
0.00165798
0.00630225
0.00377301
0.0058895
0.00587643
0.000701905
0.000470207
0.00457506
0.00156511
0.0012662
0.000575907
0.00632866
0.0050919
0.000603303
0.00662433
0.00582944
0.000726561
0.00582784
0.00538912
0.00625005
0.00173586
0.000786061
0.00582854
0.00585625
0.00185453
0.00216861
0.00364195
0.00583377
0.00083002
0.000427329
0.00195552
0.000423248
0.00583096
0.00583081
0.00067946
0.00556798
0.00771982
0.0053957
0.00465038
0.00254407
0.000821896
0.00378285
0.00190883
0.000789154
0.00583437
0.00583839
9.7237e-05
0.000833325
0.00228257
0.00150432
0.00583658
0.00146105
0.00155457
0.00451468
0.00755515
0.00066089
0.00420413
0.00582853
0.00105434
0.00302661
0.00620648
0.00582835
0.000515597
0.00569085
0.00583111
0.00582647
0.00469051
0.000411025
0.00222951
0.00585705
0.00259393
0.000932088
0.0055435
0.00458917
0.00805614
0.00105373
0.0015722
0.00567208
0.000273161
6.07991e-05
0.0045431
0.00458274
0.00233705
0.00505726
0.00311743
0.00754669
0.000365538
0.00583469
0.00705013
0.00583595
0.00149729
0.000294928
0.00521319
0.00589271
0.000298973
0.00303489
0.00582712
0.00583788
0.000818126
0.00548188
0.000674724
0.00242494
0.000518309
0.00100219
0.00583614
0.0058431
0.000412792
0.00131166
0.00142219
0.000685913
0.00103827
0.000389979
0.000836382
0.000520577
0.000118564
0.000338184
0.00267665
0.000638706
0.0052913
0.00246816
0.00045733
0.00547565
0.00105529
0.00308089
0.0058264
0.000200903
0.00477997
0.00197435
0.000325268
0.00110916
0.00407583
0.00643355
0.00377877
0.000459703
0.00778668
0.00583055
0.000375255
6.95459e-05
0.00583622
0.00663168
0.00106199
7.15419e-05
0.000418486
0.00546345
0.000273186
0.00583536
0.000554367
0.00442151
0.00271501
0.000376837
0.00102015
0.00462491
0.00450462
0.00263696
0.000550286
0.000213849
0.00089148
0.00520362
0.00585989
0.00223326
0.00659255
0.00482911
0.000800935
0.00544253
0.00268488
0.000751316
0.00583952
0.00467982
0.00586823
0.00482776
0.00546283
0.000295514
0.00583091
0.00365356
0.00583567
0.00582983
0.000591807
0.00496346
0.00497291
0.00582967
0.000942591
0.00671951
0.00473832
0.00583785
0.00669051
0.00576668
0.00537806
0.000364326
0.000649875
0.00173506
0.00478067
0.00482293
5.38696e-05
0.000609107
0.00369545
0.00312132
0.00143499
0.00583979
0.00347752
0.00586417
0.00444645
0.000194257
0.00747463
0.000335385
0.000700705
0.00583757
0.00583929
0.00118669
0.00637115
0.00340248
0.000882503
0.00070136
0.00308165
0.00217619
0.00583348
0.00583481
0.000870298
0.00219073
0.00366059
0.00584134
0.00482191
0.00157306
0.00555467
0.0016829
0.00247909
0.00582937
0.00384433
0.00213609
0.00509745
0.00506094
0.000223743
0.00613319
0.00339829
0.000789885
0.00629004
0.00572258
0.000779703
0.000647883
0.0055589
0.00583092
0.00565841
0.00469338
0.00659348
0.00370422
0.00359886
0.00329588
0.000780262
0.00513355
0.00541601
0.00261374
0.00111219
0.000924114
0.00209292
0.00029588
0.00686499
0.00373213
0.000836632
0.005163
0.00583748
0.00106504
0.00706039
0.00314288
0.0058286
0.00617135
0.00448329
0.00583596
0.000646826
0.00290276
0.00476891
0.00583621
0.00476644
0.00132376
0.00495275
0.000457501
0.00583745
0.00583113
0.00633512
0.00548243
0.00815212
0.00583595
0.00583746
0.0036163
0.000970544
0.00456565
0.00461752
0.00587807
0.0054499
0.00705792
0.0018864
0.00583813
0.00683429
0.00153708
0.00586972
0.000746054
0.000466577
0.00344223
0.00167688
0.000917233
0.00778872
0.00103791
0.00463783
0.00469376
0.000207279
0.00152304
0.0059716
0.000307685
0.00813509
0.00478454
0.00671702
0.00771315
0.00482808
0.00470178
0.00442412
0.00118114
0.00586252
0.000638446
0.00221452
0.000244939
0.000307765
0.00660924
0.000731553
0.0058358
0.000399979
0.00582812
0.00583138
0.000826296
0.00207009
0.000686588
0.00204362
0.000289597
0.00589948
0.00542527
0.00582769
0.00361701
0.00110759
0.00523304
0.000721197
0.00588684
0.00370279
2.71002e-05
0.00583114
0.00583456
0.0028438
0.00567992
0.00670222
0.000313284
0.00048119
0.00232413
0.0032233
0.00218556
0.00147254
0.00335057
0.00311658
0.00601179
0.0058193
0.00333054
0.00835952
0.0013305
0.00120446
0.00495394
0.00582879
0.00483471
0.00154914
0.000407927
0.00553598
0.00243655
0.00141008
0.00399251
0.00415414
0.00679714
0.000483419
0.00215097
0.00312861
6.9188e-05
0.00583583
0.00206224
0.00584212
0.00179541
0.00218245
0.00214355
0.000588151
0.0058965
0.00447822
0.0016083
0.0035001
0.00316846
0.00473007
0.00549768
0.000124883
0.000221337
0.00583569
0.00583593
0.00551675
0.00792337
0.00582556
0.00281794
0.00536838
0.00163275
0.000264681
8.2829e-05
0.00258008
0.00151944
0.00222079
0.000276588
0.00477948
0.00293292
0.000205825
0.00154996
0.000303831
0.000161408
0.00228048
0.00515626
0.00302725
0.00583946
0.00102144
0.00484334
0.00568761
0.00227665
0.000848065
0.0036235
0.00031561
0.00491761
0.0058445
0.00337229
0.000277247
0.0058501
0.0034725
0.00364783
0.00589405
0.00583035
0.00122874
0.0033758
0.00351362
0.00583626
0.00143993
0.000215313
0.000171137
0.00251082
0.00356508
0.0058736
0.00587204
0.00583034
0.00015295
0.00583009
0.00128252
0.00119154
0.00191487
0.00382195
0.00452336
0.00584322
0.000331412
0.00583358
0.00071899
0.000227522
0.00185685
0.000312403
0.00123414
0.00235216
8.29756e-05
0.00191039
0.00583276
0.00402255
0.00542209
0.00371405
0.00276468
0.00583295
0.00582756
0.0058266
0.00263277
0.00689169
0.00392779
0.00342004
0.00198221
0.00380336
0.00548153
0.00583625
0.00583502
0.00660563
0.00589849
0.00497143
0.00153546
0.000281181
0.00583071
0.00583126
0.00583122
0.00687876
0.00103066
0.00135046
0.00662286
0.00566801
0.00527827
0.000254692
0.00457188
0.000360618
0.001099
0.00583111
0.00874241
0.00400282
0.00155079
0.00583952
0.000300363
0.00617396
0.000290642
0.0063986
0.0076932
0.00582829
0.00645073
0.00583763
0.00583877
0.00428578
0.00226485
0.000814562
0.000403684
0.000505314
0.0038125
0.00202203
0.0051474
0.00367037
0.00583587
8.63484e-05
0.00465393
0.00565804
0.005833
0.0051943
0.000215237
0.003166
0.00583758
0.00443842
0.00555647
0.00153277
0.00389654
9.6718e-05
0.00319968
0.00583064
0.00556301
0.000438282
0.00102226
0.00583528
0.00124934
9.04556e-05
0.0011373
0.00686223
0.00583049
0.00388849
0.00583136
0.000450017
0.0011732
0.00296851
0.00596645
0.000225902
0.00583098
0.00233416
0.00462451
0.00712114
0.00582959
0.00534904
0.00629063
0.00487653
0.000542762
0.00133128
0.000331876
8.80706e-05
0.00583078
0.00583068
0.000608669
0.000565928
0.00583727
0.00559316
0.00696484
0.000504763
0.000608551
0.000481147
0.0012648
0.00170221
0.00706093
0.00751892
0.00583258
0.00124914
0.00587334
0.0047755
0.00744883
0.00585684
0.00582942
0.00127415
0.00369207
0.000381563
0.000519491
0.00355901
0.00717504
0.001264
0.00526995
0.000982496
0.000593389
0.00582777
0.00583503
0.00557983
0.00210129
7.71516e-05
0.00589237
0.00584036
0.00468779
0.00192901
0.00865475
0.00225343
0.00593961
0.00605935
8.70103e-05
0.00582787
0.00277789
0.00583632
0.000197715
3.87111e-05
7.66388e-05
0.000314216
0.000372467
0.00323597
3.23998e-05
0.000241266
0.00341591
0.000309207
0.00582815
0.00585292
0.00582723
0.000567655
0.00122684
0.000856333
0.000328755
0.00582955
0.00520635
0.00583917
0.00022022
0.00584239
0.000277775
0.0058326
0.000401397
0.00597711
0.00589507
0.00540385
0.000524971
0.00297346
0.00187676
0.00129435
0.00255456
0.000825641
0.000626862
0.00315946
0.00583029
0.00072585
0.00584684
0.0058282
0.000774337
0.00585042
0.000235049
0.00609536
0.00249323
0.000363761
0.000406985
0.00583586
0.00344605
0.000745573
0.00327017
0.00306074
0.00582732
0.000428234
0.00336602
0.00211365
0.00584814
0.00583231
0.00293473
0.000160442
0.000137373
0.000210129
0.00584869
0.00678542
0.00707585
0.00567623
0.00384304
0.00582771
0.00589115
0.00583179
0.00584163
0.00674788
0.00745325
0.000845699
0.00324274
0.000707297
0.00437654
0.0058335
0.00555787
0.00122476
0.00583828
0.00139802
0.000979314
0.000101184
0.000450897
0.00190342
0.000144981
0.00545447
0.00547251
0.00476853
0.000391054
0.008127
0.000209603
0.000399532
0.00141287
0.000107888
0.00722505
0.00349249
0.00061125
0.00443595
0.00216754
0.000151096
0.00583796
0.000662266
0.00673216
0.00583167
0.000559233
0.00215532
0.0024036
0.0016858
0.00370452
0.00646868
0.00486995
0.00584908
0.00694302
0.00327878
0.000290087
0.00583615
0.00583376
0.00124538
0.0025153
0.0021637
0.0058436
0.000386587
0.000734955
0.00561819
0.0071189
0.00583003
0.00583008
0.00582848
0.00590233
0.000978335
0.00208722
0.00151989
0.00746088
0.00087541
0.00583578
0.00298625
0.00731885
0.00408619
0.0022271
3.2649e-05