/*--------------------------------*- C++ -*----------------------------------*\
| =========                 |                                                 |
| \\      /  F ield         | OpenFOAM: The Open Source CFD Toolbox           |
|  \\    /   O peration     | Version:  v2012                                 |
|   \\  /    A nd           | Website:  www.openfoam.com                      |
|    \\/     M anipulation  |                                                 |
\*---------------------------------------------------------------------------*/
FoamFile
{
    version     2.0;
    format      ascii;
    class       volScalarField;
    location    "100";
    object      omega;
}
// * * * * * * * * * * * * * * * * * * * * * * * * * * * * * * * * * * * * * //

dimensions      [0 0 -1 0 0 0 0];


internalField   nonuniform List<scalar> 
14804
(
3.49384
0.0251103
0.094506
0.0318425
0.0372363
0.0626035
0.0261988
0.0253973
0.108619
0.0255686
0.375885
0.0998688
0.0255573
0.0377835
0.176742
7.44837
0.0382379
0.0307051
20.426
0.0493565
0.0256905
0.0279326
0.0405595
0.0257249
13.185
0.0257297
0.0375186
0.0370079
3.5231
0.0256864
0.0248429
0.0380768
0.049456
0.0440712
0.100125
0.0262176
1.05582
0.0256333
10.624
0.0496111
0.0944952
0.0959079
0.16243
0.0252444
0.0372262
0.0264584
2.6469
0.0255265
0.0282473
0.481722
0.0255875
0.0248273
0.0253902
0.0271908
0.58608
2.53512
0.321879
3.47455
0.0254916
0.0265151
5.6656
0.0256397
0.0252326
2.87599
0.0252357
0.0254132
0.0256801
0.0260229
0.02542
4.68064
0.0248626
0.0362321
0.392078
5.05173
0.0254605
4.75274
6.30094
0.0251042
0.0524721
0.0246939
5.83106
0.025412
0.0247228
0.0254687
0.0256505
0.148794
0.0249544
0.0261334
0.0250409
0.0369464
0.0371251
0.0274509
0.0848747
0.0248122
0.493799
6.45633
3.51138
0.0367807
0.0256741
0.435204
3.47143
4.94727
0.0256612
0.0406263
0.204515
4.89291
0.0993583
0.422486
0.0254207
0.0248557
0.0253289
3.29521
0.0857041
8.11679
3.26696
5.88027
0.240432
0.0382217
0.025646
0.0309812
6.10551
0.0250438
0.0269294
0.0437729
0.0255
0.0256521
0.226604
0.0393794
0.0429586
0.0363152
0.0362304
0.166557
4.16574
0.355525
1.86582
0.0430807
0.025251
2.02887
0.0255211
0.0444457
0.0252255
8.89735
0.0250564
7.70887
6.30245
0.0254352
0.19113
0.0254244
0.297172
18.6874
0.108762
25.3673
0.0505856
0.0409144
0.0247152
3.46954
0.035489
0.480433
6.9849
0.36486
0.0251978
0.0252986
4.21344
23.714
0.0279715
3.44635
0.025567
5.3353
0.0256324
0.0253977
0.419441
0.0284289
0.119457
0.161932
1.18923
0.37075
0.0404806
0.0474607
0.0248415
0.343288
0.062592
6.42929
0.0260032
0.0323985
0.0272547
4.25832
0.064488
0.0609511
0.0294489
0.0247902
0.155966
3.49739
0.0253218
2.14213
0.394623
0.0251938
4.97728
0.0255204
0.0720731
6.82986
7.19044
0.0247849
0.026705
0.108834
0.0262528
7.09646
0.0347213
0.722758
0.0395518
0.02627
0.0256396
5.3103
0.0261057
0.0251974
0.0260267
0.0255779
0.0397291
0.0251623
0.0253509
0.0252332
0.0321437
0.0903453
0.0721098
0.0281589
0.0250033
0.559029
0.0485313
1.86786
4.22517
0.0275917
0.0248264
0.0265123
0.025348
4.58586
4.95266
0.0256605
0.0263908
0.193845
0.135661
0.0290329
7.39636
0.437317
0.0256748
0.0252406
0.0249065
0.158309
0.0311244
0.0279331
0.0407028
0.0248785
14.8025
0.0251951
0.0252419
0.0251104
3.90672
0.0261467
0.0248029
0.0271903
0.0248497
0.0254491
3.34606
0.0294432
0.0429996
0.0254708
0.812711
0.0254564
0.0341377
0.0248933
6.51128
6.56415
6.11865
8.73846
0.0256649
0.0254939
10.4499
0.193455
0.0262196
7.01256
0.0889694
4.83053
0.193507
0.0251489
4.27813
5.43638
5.6589
0.8783
0.0910382
0.0261946
0.0332633
0.287281
0.025161
0.0253837
0.0278254
0.0255092
0.0596869
1.01208
0.177647
0.0434686
0.0251619
0.0335383
0.024915
0.0251489
0.0351178
0.0491165
0.0508835
0.0259023
9.74028
5.00864
0.160719
8.62818
6.36838
0.0255196
0.0301401
0.0289229
3.98564
0.0260362
3.2985
0.235132
0.0246701
11.6726
0.180272
0.224606
1.45079
7.9007
0.0253598
0.0480229
0.232612
0.0255004
1.63199
5.98687
0.0405851
0.0371915
0.0398107
0.0295682
0.0254551
0.0248255
0.0251603
7.47338
0.0260165
0.119567
0.0279851
0.0254133
0.0314928
0.0255909
0.0248195
3.58786
5.7195
4.57223
0.117216
5.97483
7.29624
0.0271856
0.0254013
0.0248931
0.0260097
0.189816
0.0255704
20.3606
0.0247116
0.025236
0.0259383
0.137715
0.0854654
0.125659
7.19117
4.8715
0.0260988
0.0368091
0.0593547
0.0252226
0.0270399
0.0255484
0.0463237
0.0256922
0.0250989
18.3974
0.0249032
0.0257058
4.14991
0.451925
1.31325
0.0312863
0.066352
5.86901
0.0310336
0.0252088
6.31918
0.0264549
0.0254658
7.70345
0.0324482
0.0246879
0.0259392
0.0271618
6.92034
0.0270774
0.28913
0.0364588
10.0131
0.0255583
0.150239
0.0252933
0.442263
18.7193
0.0386733
0.0285301
0.263154
0.0255696
0.0482039
0.025663
0.0250239
0.0357984
15.2509
0.0255653
0.025538
0.644814
0.0254718
0.0313539
0.0257372
3.51188
0.242174
0.0591019
0.0247085
6.39816
0.0284019
0.0378245
6.83721
0.0476408
0.0294267
0.0247741
0.0265032
0.0255339
0.731049
0.0254421
0.0262529
0.0253619
0.0249172
3.61877
0.0251636
0.0258918
0.0469948
5.57072
0.0249939
0.0254595
0.0249456
0.029134
7.78869
6.31108
0.442448
0.0269239
4.49327
0.0270033
0.0253583
0.0256608
0.0250801
0.0251861
0.0261491
7.4163
0.0273093
0.0256513
3.95578
0.0249388
0.492946
0.264426
0.0377991
3.10546
0.0313422
5.04628
0.0595592
0.025679
0.0256513
0.0356564
0.0252982
0.0250069
7.28876
0.0316344
0.0255259
0.0352591
6.36656
6.03674
0.0428582
0.0305288
0.028803
0.0906494
0.025412
0.0308939
6.47426
0.0253394
0.024993
0.0397229
0.0310726
1.02701
0.0446265
0.0249091
0.0376886
0.02565
0.0253649
7.28433
0.0434448
0.0251801
0.14025
0.0258814
0.0252189
0.0526555
5.59836
0.0254304
0.0253037
0.0249514
0.0249835
5.59421
0.0254366
0.0256603
4.51039
0.025253
0.0257433
7.61874
0.0254236
1.18842
0.0246412
0.217588
8.83097
0.670449
0.025482
0.0254742
0.0356329
0.0263068
0.0246558
0.0266412
0.0249424
0.0369261
0.0247819
0.0384
0.0377884
0.0254987
5.95356
0.0912351
8.03604
0.0282357
0.0246351
0.126957
0.0253937
0.0298244
0.217721
0.0346694
0.200496
4.57571
0.0252936
9.79554
0.110531
0.0272611
0.0285491
7.61062
7.14782
0.024695
0.0251417
0.0251629
0.231145
0.108746
6.66675
6.01498
0.02531
0.0589418
0.158027
0.588759
0.0368766
0.0286849
0.03051
0.0249241
0.184986
6.88525
0.0372025
0.30955
0.0246689
0.0251729
0.024918
0.0367343
0.0250242
0.210197
0.0254617
18.4369
0.300769
0.035593
0.0947049
0.0249253
0.0252068
4.51814
0.0260283
18.1326
0.025087
0.0249205
0.0251073
0.0256521
0.0533643
0.0315005
5.71659
5.88573
0.0254643
0.0254028
0.0300993
0.114759
0.0714036
0.0338341
0.0248869
1.03653
0.02728
5.84546
0.0247951
0.374546
7.08979
0.0250123
0.0252291
0.0544985
0.0256913
0.0246546
0.0446329
0.0255469
3.91743
0.0595492
0.590072
0.0251624
0.359465
21.0804
0.0549083
0.025691
4.51717
0.0250674
0.327496
0.0253988
0.0255594
6.76633
0.111144
0.513916
0.0581161
0.0338073
0.0247134
5.21952
0.0251792
8.14004
0.603585
0.0305027
0.0249991
0.0252753
0.0358612
0.031268
0.0256234
0.0982867
0.0931848
0.0363197
0.0254335
6.77191
5.36696
0.565387
0.0252529
0.0526235
0.0247011
0.025391
0.0436296
6.99497
0.0354714
4.6456
0.0484762
0.146248
0.194856
0.0253278
7.02768
6.04025
0.0251796
0.0317128
0.130944
0.0312999
0.0367838
0.0282947
0.0349733
2.08541
0.0249775
0.044824
0.0250774
0.0254527
3.54642
6.13146
0.0622513
0.0253568
0.024827
0.0247105
0.0271493
0.044076
7.05874
0.0595947
0.252383
17.722
0.0670771
0.0333651
5.41725
0.0253428
4.86361
0.0263533
0.0252198
0.0253219
0.0308314
0.0752268
0.0249494
0.0286902
0.0423352
0.12822
0.0329841
0.196118
0.0252798
0.187398
0.0528972
0.0424549
0.0394356
0.0255354
0.0255144
8.66219
5.09804
0.0253671
0.109995
0.0253543
0.0247997
0.0254378
0.0273731
0.290317
0.0250008
0.0390562
0.0249151
0.0289187
0.0252727
0.0447471
0.026029
0.0250083
0.0254172
0.057719
0.0443425
4.0272
1.08069
0.0251904
0.0252958
0.025242
3.27993
0.0320399
0.0625619
5.83481
0.0355723
0.0296586
3.41723
0.0251096
0.0251904
0.0252957
0.0248941
0.121502
0.0251748
0.0248125
0.470682
0.125305
0.0306002
0.0248266
3.51726
8.53452
0.0531297
0.0294844
0.0315848
1.3406
0.0655106
3.27805
0.496938
0.116743
5.85291
0.0272688
0.0363871
0.689557
0.0251234
0.504549
0.0258177
0.0256368
6.81166
0.0349289
0.103422
3.66405
0.135419
0.0251675
3.26513
0.0251027
0.0265322
0.0274328
0.0264791
0.0256253
6.48288
6.97632
0.0375984
0.175291
0.0288414
6.84793
3.51907
0.0377584
5.85555
0.0258176
0.0250992
0.0248741
0.0254643
0.0253275
15.3201
0.0320422
5.98264
0.240483
0.0253329
0.0583578
0.0377822
0.0248794
0.0254146
6.01464
16.9214
0.0255966
0.0627431
0.0255903
0.0252584
0.0453434
0.0271539
5.44887
0.17379
1.76614
2.77406
0.0326221
0.202461
0.0254769
20.2254
0.118162
0.0248864
0.0298859
16.9112
0.0252536
0.0578976
0.0248045
17.1259
0.0578596
0.0257431
0.0255699
0.0248114
0.0249407
0.0291644
20.7711
0.0250544
0.0249116
0.0302688
0.0257252
5.79162
0.0724167
0.0253611
0.0248162
0.0253418
0.0435571
0.0253635
0.0252241
0.178719
1.41017
0.0253295
0.0247007
0.0474812
6.46444
0.0253803
0.0249235
0.0249974
0.126862
0.0248089
6.31311
0.045005
0.0517262
1.07911
5.01331
0.0248995
0.740066
0.0245581
3.26378
0.0364383
0.0292398
0.0254351
0.0253186
7.14528
0.0255155
4.23707
0.0252649
0.0709292
7.46525
8.247
0.165551
0.0255503
4.73004
0.0256897
0.0250542
0.0301381
1.29467
0.0256282
0.231738
0.0641289
0.0256929
0.0318108
0.0256628
0.0256912
0.0253361
0.0253174
0.0252304
0.142764
0.0254656
0.047489
0.0261398
20.6404
0.0256904
1.29764
0.0247678
0.0472497
0.0338813
0.137793
0.0431013
0.0659153
0.0312345
0.0284177
0.0256782
0.030867
0.145741
0.0308526
0.0249842
0.0247926
7.77999
0.0822348
0.0452091
0.0249434
0.0251213
0.148831
0.0929073
3.29531
4.86876
0.133973
0.0562802
6.71566
0.0246997
0.0255913
19.9291
0.0362412
0.754799
0.0709125
0.0254504
0.0248603
0.101333
0.0248752
3.26535
0.0268089
0.0643627
0.0248531
0.184422
0.0255488
3.56214
0.0248801
0.0249801
0.0952052
0.159747
0.202548
5.51966
0.0749307
4.15337
0.0315708
0.0723426
4.76926
0.0365823
0.531057
0.0257241
0.0247943
0.101693
6.56928
0.0671073
0.0268391
0.0251078
0.0666516
0.0254702
5.05288
6.92159
0.0252199
0.0255725
0.0252461
0.0332071
2.10536
0.0256155
5.81877
0.889139
4.20962
0.0376354
0.0253681
0.0255178
1.62042
0.0251119
3.53837
0.0282272
0.0380892
0.0253319
0.0253869
0.0670644
0.0538693
1.49714
0.277024
0.0502236
0.0247078
0.0255655
0.0255637
4.02703
0.0898603
5.41543
0.0255078
4.84302
0.169085
0.0722943
0.0259056
0.025541
0.0252823
0.0253081
6.17793
0.0451619
0.0247858
0.115393
0.592716
0.0307432
0.0451551
0.0355056
0.0252237
0.541622
0.0253998
0.0381769
0.0253739
0.0522392
0.0475465
0.0252467
7.26392
0.0262851
7.66666
0.0249472
0.0254331
0.0248046
3.43608
5.62819
0.033196
0.210872
0.117906
0.0257139
0.0263068
0.0253734
8.38474
6.27598
0.142815
0.320101
0.0254688
0.0263198
20.432
0.0267573
0.0349676
1.96291
0.0286631
0.0281078
6.07655
0.11297
8.27708
0.0264843
0.0907115
0.0259105
0.601734
3.90888
0.025367
0.0266053
4.24341
0.160406
0.0565559
0.0252872
3.38679
5.1701
0.0254243
0.0725533
0.0246994
0.025327
7.10504
0.0253369
0.0439527
0.0359408
0.206538
0.0254067
0.0254472
0.0247921
0.0460301
0.0278803
15.6731
7.09817
0.0888428
1.75471
0.0248831
0.0250665
0.0253312
0.0253922
0.0484151
0.0312135
7.73943
0.0367276
0.0260978
0.0607485
0.0247061
0.0249333
0.0248992
0.519145
4.86055
3.99722
0.0252159
0.0385683
3.94286
0.0253802
0.0251668
0.0258658
8.34278
3.17886
0.0256018
0.102168
0.0460265
0.0298827
0.0272784
0.0253596
0.122536
0.110152
0.0382263
0.417095
4.23996
0.0254433
0.0256544
0.0380867
0.0252949
0.0685892
0.0263101
0.0957082
0.0254053
5.74695
5.65711
0.0257208
0.0253618
0.0267753
0.0247247
0.146308
0.0250605
0.0255318
0.0249103
0.157957
0.0253709
0.207377
0.0256798
0.0255559
2.59644
0.0362687
0.0253549
0.187287
8.70517
0.905103
0.0252815
6.39452
0.0252519
0.024986
0.0255351
0.0350448
0.0273512
0.0490757
0.0532722
0.0324988
0.0254132
0.0247745
4.98713
0.104256
5.18698
0.789715
0.0250359
6.18625
0.075176
0.0265378
0.0250615
0.117631
7.88546
0.0249202
1.84815
10.2036
10.1963
0.0449634
0.0253778
0.0359356
0.0275799
0.0253897
0.0250387
0.0874988
0.0255449
0.0250556
0.0256623
8.38369
6.88981
3.3989
13.9436
0.0353552
0.0249305
5.25667
0.397422
0.117871
0.0248376
0.0249455
0.0253554
0.0319974
0.0282905
0.0929233
0.0249354
0.0366038
7.17781
0.0308028
0.0308212
0.148579
0.0552548
0.025662
6.84585
0.0247984
5.14296
0.0253467
4.43894
7.20291
0.159138
0.053151
0.0250179
0.0247887
0.0254114
0.0252613
0.0248455
2.98962
7.35035
0.0253523
0.0960677
0.120883
0.0274015
0.025385
1.444
0.0284928
21.6503
7.23822
5.75222
0.0757673
0.0254548
0.0249783
6.41602
0.024696
0.0252921
0.0298993
0.198425
0.0294031
0.0254627
0.182878
0.177909
0.261538
3.72164
6.59374
0.0249255
0.0249623
0.189032
0.024883
0.0253624
0.0250438
0.301261
0.192487
0.025245
0.030742
6.28186
0.0254146
0.0523264
0.261156
0.0254408
0.0253944
0.0679513
0.0355495
0.0429112
4.07024
0.136372
0.0256511
0.0253384
0.0245903
3.84621
0.0249831
6.07433
0.0252887
1.53808
0.025636
0.0253597
0.029564
0.0263922
0.336111
3.74863
0.368416
0.0493917
0.025299
0.0455913
0.0254373
0.0628139
1.50819
0.0247559
0.0606668
0.0252873
0.0248634
0.0252562
4.17841
0.100523
0.0255551
0.02649
0.093069
0.0257136
0.184547
2.27908
5.2204
6.43806
0.0259395
0.0892864
0.0253069
5.99798
0.0280164
0.0253055
3.726
0.0287611
2.49828
0.0255111
0.139228
0.0440841
0.0256818
7.4727
6.38094
0.0411009
6.15099
7.75447
4.35045
0.0305333
3.36456
0.0254683
0.0254103
0.132135
5.58958
0.0419502
0.0254915
0.024798
0.0254312
0.0255737
0.0254699
5.83683
4.00447
0.0253108
0.325855
0.0310941
0.0329306
5.27587
4.40201
0.0248781
0.0251246
0.0495485
4.56647
0.0253148
6.21052
0.0249398
0.0248961
0.0293467
0.0248095
0.659117
0.0247047
5.45636
6.24179
0.0276028
0.0594752
0.0271978
0.0686198
0.0253717
0.0287361
4.08152
0.646347
0.0253795
0.138714
0.0286401
5.98058
0.260122
0.0248333
0.0262975
7.17283
5.12792
0.623018
0.0251218
0.0283238
0.711972
7.65646
0.0293746
0.035617
0.357996
0.0384227
0.0271941
6.00534
0.10443
0.406799
0.59717
0.0256949
0.0262539
0.0248654
3.9667
0.0258638
0.025843
7.42623
0.0256806
0.0255537
0.0255265
0.119296
0.0254599
5.53958
0.0254562
0.0666913
0.0295217
0.102754
0.0309839
0.0463362
0.0274995
0.179865
4.6571
5.60565
0.0252672
6.49834
0.0297031
0.150205
0.0297172
0.0343407
0.0256614
0.0296397
0.0251289
4.19515
0.362518
0.0259054
0.0252151
0.0254692
0.0444802
0.0247016
0.030983
2.31294
0.025913
0.0345622
5.95062
3.12317
0.0289189
0.47042
0.0256264
0.0247962
0.0255388
0.0453659
0.0253534
0.0252568
0.0250002
0.0254961
0.0248922
3.20073
0.0289291
5.24945
6.02678
0.0256799
0.127182
0.0252794
0.0310641
6.29751
1.24477
5.05133
0.0252517
0.0332141
0.0246901
0.0247375
7.98622
0.0427169
0.506219
0.0247657
0.0249417
0.0253702
0.026674
0.543729
0.134408
0.0249738
0.0256905
0.025288
4.67373
0.135851
0.0252849
2.25772
2.19912
5.85361
0.0332845
0.0839988
0.109996
0.0248883
0.0248042
0.0254556
0.0249253
4.66338
10.3311
0.127744
0.0314317
0.193306
1.76013
0.0293198
0.0254287
0.0253798
0.417352
0.0305399
0.0418812
0.0312328
0.0252694
0.0392501
0.0313389
0.0269903
0.0262228
6.77863
5.39224
0.0249555
0.0579715
0.0262875
0.0249468
0.0256872
4.67081
0.0253445
0.178502
0.0350275
0.02627
0.0253499
0.025372
2.17079
0.0257182
0.0596824
7.2174
5.8474
0.025006
0.0786875
0.0265601
0.0255347
0.0249371
0.0284756
0.0254215
0.0604383
0.0251197
7.15336
0.0298123
0.0253513
0.0262977
0.0536175
0.0303585
0.0308504
0.0312526
0.0299995
0.0248108
0.0247273
0.048312
0.0249053
1.03115
0.025652
0.0883783
5.27981
5.36012
0.025114
0.221567
0.0564684
5.98177
6.01134
0.57291
3.74451
0.0247688
6.49869
0.0261585
0.0274236
0.209982
5.36554
0.044484
3.4268
0.0251209
0.0285152
0.238178
0.179856
6.01248
0.630186
0.0735521
0.0283988
7.04318
0.028973
0.413621
0.0255153
0.0593462
0.252956
0.0263344
0.0736963
0.0247329
0.0254723
0.0854352
0.0253591
4.90513
0.0306792
0.0253719
0.268681
4.12349
0.0247079
5.85852
0.0288364
0.0248125
5.03845
5.60835
0.0262211
0.0252092
0.0255019
0.112058
0.0284852
5.82229
4.22765
0.197937
6.84875
0.0255451
0.0625823
0.0255302
3.85713
0.0253492
0.281147
5.27407
0.153237
4.37182
0.025278
0.0250884
0.0245859
0.0253291
0.0256615
0.0313641
6.98615
0.0270824
0.0510715
1.26424
4.517
9.06593
3.95062
0.0249935
0.0252105
0.0365521
0.0262237
3.69122
0.04235
0.0249644
6.261
4.31159
0.0257293
0.0252941
0.025013
3.28867
0.0313846
0.0252208
0.0251758
0.0254172
0.0253817
0.0253127
0.0248078
0.170117
0.0247301
0.505506
0.0914279
0.0276649
0.0314878
0.0274804
0.0254338
0.0602679
0.0256623
0.0256798
0.0530258
0.571935
0.0251077
0.0569106
0.0263072
0.0510835
7.37189
0.0248169
0.0410001
0.0253367
8.28932
0.0262454
6.56433
1.62915
16.4525
8.05313
0.432358
0.135951
1.46452
6.7697
0.0260854
7.35426
0.025294
0.2084
5.88572
0.0658902
0.0249943
0.0252937
0.0247908
8.14857
0.15881
0.0247862
0.0246692
0.025244
0.104345
0.187961
0.0255839
0.0572857
6.12863
0.0248948
0.122996
0.0249471
0.0251656
0.0251273
0.0303352
8.44742
0.246665
0.273183
0.177647
8.25674
0.120929
2.64441
17.1026
0.544545
7.10761
0.0249933
0.0900205
0.0255094
0.0255434
0.025517
0.0356005
0.0253507
0.0265807
17.9668
0.0263375
0.0273279
0.0274102
0.0323112
0.0250756
0.167848
0.0256557
0.0254307
0.121897
0.0423378
7.34807
0.044743
0.0270665
0.0472076
8.60359
5.43537
0.0252863
0.165781
0.0264046
0.0580351
0.0254751
0.0253303
0.0268649
6.19835
0.0373613
9.31153
0.032202
5.59552
11.9456
6.3919
3.25337
0.0253011
0.0248561
7.30701
0.0509857
0.0689457
3.96945
0.025497
0.0248725
0.0257132
0.0267115
0.0899651
6.71579
0.0871859
0.0248294
0.0249501
0.0253805
0.0600548
0.601749
0.0252956
0.035834
0.0551802
0.0253777
0.0480602
0.205191
4.74519
18.4092
0.0252727
0.0480543
5.59123
0.0592761
0.0322054
0.0756689
5.74806
0.025299
0.0247157
0.0248423
0.0250389
0.0262659
6.97649
0.0247049
0.0253827
0.0448451
0.029864
3.64587
0.0267815
0.0291854
0.0342883
0.0475154
0.0252292
5.85085
0.025299
0.0256619
0.112401
0.0375044
0.0251495
0.0256707
0.0423564
5.59194
0.0318997
0.027386
0.122704
0.055819
0.028227
4.6581
4.34116
0.0298047
0.0260925
0.0260339
5.88022
0.334075
0.0338815
0.0549031
0.024803
0.0713142
0.025161
0.0310992
5.96188
0.031512
0.0506119
0.0280606
0.778886
0.0567139
0.0255256
0.124488
0.104103
0.0253743
0.0614602
0.0255046
0.0438292
14.4312
5.52316
1.92213
0.0688057
0.410504
0.344998
0.063662
0.0253201
0.025367
0.0313331
0.0442037
6.42722
0.0337356
0.0255082
0.0251793
7.13235
0.0755318
7.07227
0.0261408
0.0249428
6.68901
7.11303
0.0252692
0.0253394
0.0247848
0.0354219
0.060705
0.0258633
0.0295398
0.0353196
0.0331219
3.81795
0.0251191
0.0301976
5.92771
0.024819
0.0608617
0.0246829
0.0291911
7.37801
0.0295459
0.0386209
0.0249926
0.0250486
0.103014
0.0255274
0.0252207
0.0254452
0.0362945
0.114084
0.0294917
0.052526
0.0253801
0.0250968
0.0358871
4.6502
5.68517
0.0291334
3.99006
0.0295032
0.0284817
0.0271422
4.97018
0.0280922
0.0255523
0.0254104
0.234941
0.0347143
0.0803678
0.0257553
0.0254281
7.03673
0.026228
0.0254369
4.83098
0.0312612
0.0252526
0.0248255
0.0366218
5.70246
3.36969
0.025028
0.0346177
0.0270183
0.0251639
0.0249369
0.0347656
0.0344037
0.0832109
0.0247161
0.0373293
0.0387578
3.3538
0.0300714
7.52575
0.196064
0.0262973
3.75187
0.527815
0.52245
0.0363071
0.0358484
0.0254874
0.0252478
0.0305433
4.56987
0.708219
0.0254894
7.20645
0.0254957
0.0363917
0.0667147
0.0305116
0.0252447
0.428157
13.6952
0.0246076
0.0253629
0.0368999
0.0252514
0.0330361
0.0759275
1.71693
0.0352157
0.0256792
0.0247776
0.0609451
0.0383579
0.128089
0.0280783
0.168309
0.0359849
0.126602
0.0554449
0.318535
0.150427
0.0674397
0.160873
3.17767
0.028882
1.1273
0.0285934
0.111652
0.0253359
0.024887
0.0409908
0.0252421
0.0560492
0.454639
0.0427008
0.0291217
6.41734
0.0362562
0.0327824
4.84488
0.0250887
0.655682
0.103064
0.0256804
5.66768
0.193986
0.108924
0.0572312
3.63748
0.0399576
0.0256356
0.0562498
0.0373528
7.5711
0.0562732
0.0371605
0.0355505
0.029557
0.0689813
0.0615988
0.532879
1.77765
0.0270614
0.0249321
0.0257522
6.1365
0.0336339
0.0276794
0.0288128
6.93837
0.0342975
0.0254321
0.0350045
0.0248957
0.0253786
0.0286508
0.149727
0.0253715
4.92253
0.0256513
0.0251483
0.0569287
0.0323956
3.22963
0.0253013
0.0264286
6.7582
0.0344126
0.0253735
5.11236
3.15349
0.029303
0.213153
0.0293806
0.0349004
6.32325
0.0335973
13.9462
0.336152
0.0464301
0.0363767
0.0369089
0.0249594
0.0253092
0.0248814
0.0373179
0.364894
5.67815
0.0362866
0.0570802
0.0252525
0.0249513
0.0269493
5.83031
0.0286418
0.0350327
0.0288611
0.0254045
6.67406
0.0254894
0.0247278
0.239111
0.0256216
0.0252548
0.0251117
0.025394
0.0270286
3.28479
0.102366
0.0254554
0.0247018
0.0441513
0.0267862
0.0271942
4.5737
1.47998
5.617
0.0252733
0.0570789
5.94476
9.67617
0.271199
9.82435
0.0279449
0.025381
3.38347
0.0349156
4.47123
0.0262238
0.0252347
0.0262253
0.0275524
4.21419
3.25041
0.0274286
0.0352962
0.230655
0.0255909
13.2203
7.46039
0.0260763
0.0567549
9.72463
0.0252304
0.181245
5.24546
0.0255684
0.0252418
5.41828
0.0251447
0.0254367
0.0292945
6.75887
4.43126
0.0250111
0.0342327
0.026138
4.23524
0.202242
0.0254425
0.0249058
4.10637
6.37978
5.36809
0.0247996
0.0249768
0.0252625
0.0563949
0.036133
0.0295745
0.0249152
0.0287487
5.79994
0.0537058
0.0249852
5.87846
0.0350909
0.0248495
0.0276883
0.0341873
0.0253732
0.110157
0.0416485
5.21344
0.0559038
0.035395
3.80067
0.0414545
0.126991
3.36341
0.0464971
5.65631
0.0339297
5.47563
5.01424
3.59075
0.0347423
10.5142
0.169322
0.0249684
0.0304004
0.0835982
0.0715237
0.039425
6.79712
0.0278063
0.0250032
0.034812
0.0248293
0.025294
0.0292692
0.0900937
0.112546
0.0346784
18.637
0.0251975
0.0269087
0.0250914
0.0253577
0.0593825
0.0263249
0.0276981
0.0253747
0.0253716
0.833016
0.0251459
0.0255118
0.0589802
0.0266865
4.53922
0.0646733
0.498007
0.0343995
0.0268542
0.025882
0.106856
0.0252641
14.1048
3.34231
0.0260464
0.0253927
5.28313
0.150804
0.165379
4.87638
0.0247152
0.0251427
0.0289343
0.897824
0.0267796
0.0254506
0.0409759
0.035234
3.60587
5.89723
1.34681
0.0865562
0.0254888
9.45729
0.0259039
0.0289917
0.025277
0.0290485
0.0851789
0.0529226
0.387091
0.0249273
0.0290444
0.0290556
0.0252545
5.96335
0.0345757
0.0284241
3.00412
0.603965
0.0252996
0.0249855
0.028275
5.80167
0.0247546
0.052144
0.0293418
0.0261814
0.0652389
0.0807877
0.0266017
18.8093
0.025584
0.147413
0.0341063
0.0607057
0.0625411
0.0269592
0.6724
0.0620292
0.0255043
0.0309705
0.0513197
0.0250001
0.0421001
0.0334981
4.31313
0.0256162
7.98736
0.0252498
0.0403815
0.0328053
0.0250795
6.40578
0.114067
0.0249029
0.0502038
0.0253663
0.0252475
0.0252078
0.0268863
0.0291132
0.0494949
0.0256795
0.0283896
0.111611
0.0567138
0.0594481
0.0486118
0.0248616
0.0255684
0.0250756
0.0686279
0.0251425
0.0280258
0.167303
0.0992429
0.0252876
0.0253744
0.0252727
0.112586
0.0255353
0.028303
0.177975
0.0304437
22.5326
0.16018
0.0256356
0.134822
15.2557
0.0254874
0.0253071
6.42655
0.0461345
0.0425916
0.0254913
0.0249469
0.0246224
0.0262813
4.56179
6.69807
0.0252625
0.0955589
0.0447562
0.0284892
0.0250276
0.0256193
4.05181
0.02523
0.0251121
5.97556
2.72586
0.0248679
0.0248123
0.0253805
4.39736
0.0268334
0.026
4.15201
3.97062
0.0251515
0.0389959
0.0252959
0.148571
0.185942
0.0253956
6.94019
0.0279337
0.0735828
0.0251597
1.20674
4.57117
0.0905482
3.88127
5.78839
0.0247053
3.69198
0.0253575
0.025209
3.91707
0.0256484
0.129722
0.0349928
6.01713
0.0252974
2.57595
6.56596
0.0252177
0.0256644
0.266947
3.73246
0.0272719
0.0255045
0.0306665
0.13431
0.0314863
0.0251731
6.1959
0.0257281
0.0305167
0.0261519
0.109881
8.18778
0.025153
5.36173
0.088496
0.204079
0.0256307
0.0265413
0.131482
0.178124
8.09634
0.025204
0.0253131
0.0250015
0.939949
0.169828
7.67932
9.23232
0.145131
0.0250038
0.0254747
0.0251995
5.8429
0.0252696
4.31817
7.5323
0.0253356
0.12328
0.045054
0.0491879
0.20454
0.0253713
0.0250705
0.357568
1.30536
0.0250273
0.0256391
5.43784
0.386747
0.0304537
0.450228
0.0261373
0.0258458
6.24099
7.66717
0.0254824
0.027248
0.0247972
4.65968
7.94187
0.0249482
0.025246
0.0260944
0.0253102
0.0357882
0.0305592
0.0253204
5.32934
0.15533
0.0300857
0.0277802
5.63381
0.0250716
0.02552
0.025282
12.1694
0.403007
0.02528
0.0252762
4.33753
0.030371
5.69283
0.0255304
5.77669
6.82389
0.0919368
0.0250784
0.0254791
0.0252311
0.0446147
0.969127
0.294106
0.571532
0.0395943
0.0253906
0.998262
17.63
4.21726
0.0379376
0.0251921
0.0249723
0.0246195
0.189691
2.22032
0.0273341
0.0372924
0.0252462
0.0253791
0.0251732
0.0818876
0.025283
0.131758
0.0249778
0.083865
5.30988
6.42252
3.11305
0.19533
0.0253073
0.0301653
0.0845105
0.0429405
0.0278337
0.0308108
0.025322
0.0253336
0.0289699
0.0250823
0.0252004
0.0676367
0.0248226
0.0412516
3.36056
0.0254588
0.0337148
0.147627
0.0256624
13.2723
0.0444271
0.0298502
0.0253231
0.0246589
0.72386
0.0252713
0.0274892
0.0248979
0.0253942
0.0254209
0.540437
1.9457
0.0672291
0.0246896
5.92054
4.16964
5.82203
0.0269303
0.02472
0.0249233
0.0247689
0.0249347
4.99389
4.82766
0.111704
6.77802
0.0282541
0.0378335
0.0255392
5.60129
0.0267614
0.0246703
0.0260195
0.0420951
2.63743
0.471528
0.0256715
1.55069
0.0287194
5.39902
3.2483
5.40635
5.95639
0.100358
0.621717
12.6285
0.369862
4.75453
13.9035
0.0333244
0.0371968
0.0860943
0.680183
0.0251593
0.0352375
6.90138
0.0254156
0.456109
0.0260564
0.025999
0.0304753
0.0252342
5.29731
9.83471
0.0248121
4.54242
0.0252973
0.838048
0.0256777
0.025551
0.157479
6.55925
16.8527
0.0251
0.148388
0.0364631
0.0268051
5.04901
0.0248827
0.0249133
0.0251209
0.0251446
3.75448
15.3605
0.10049
5.38212
0.037198
0.0250204
0.0269914
7.52068
0.0271401
0.0257431
1.03773
0.0253037
0.0364297
0.2914
0.0909172
4.46918
0.025509
0.032732
0.530237
0.0259573
0.15183
0.0259793
0.0357334
0.0252607
0.0343637
0.127289
7.97657
17.2356
0.0251095
5.85201
4.21959
0.0714098
0.179071
0.189158
7.77325
6.28764
0.029294
6.82377
0.0261682
5.7363
0.0257517
0.0437326
0.0324868
1.47961
0.0247841
0.0250753
0.0261313
0.127089
7.9038
0.0264995
0.0362956
0.348907
1.60346
0.0772375
6.43663
0.0362413
1.07938
0.0255429
0.0248068
0.0251482
0.0939596
0.450029
0.0366692
0.0294038
0.0453324
0.0253571
0.115747
5.68736
5.17818
9.1457
0.48717
0.0253299
1.45332
0.0249093
0.0251605
0.623613
7.28581
6.05081
7.21575
7.28636
5.99093
1.12172
0.0253178
0.024939
0.334123
4.25456
3.19978
0.0616226
0.0550024
5.31469
5.32112
4.23287
5.85816
0.0254061
0.0308269
0.0288576
0.03116
0.0253015
0.0361158
0.0255058
0.0253612
0.0306214
0.0253285
0.0261432
0.0788445
0.0285611
0.0333431
0.0520519
0.0349777
0.0347634
3.81974
0.0251667
6.60138
0.0256526
0.0353881
3.97018
13.33
0.350545
0.0302787
0.025264
4.8445
2.34948
5.7657
8.81181
0.0253802
0.555031
7.32242
0.036471
0.025534
0.0288391
0.235908
8.44992
0.0938163
7.01765
0.0254767
3.49515
0.0462973
5.8546
0.284849
0.0262637
4.19348
3.84244
0.0249699
13.27
0.340121
0.0298621
0.0862114
5.5025
8.42755
0.195711
5.82789
0.884378
0.0770146
0.0358387
0.0258621
0.0299373
6.10236
1.39747
4.64918
1.64604
0.14668
0.0256645
0.318868
0.298611
0.0758797
0.0252076
0.0253603
0.025944
4.67467
4.52587
5.43886
0.266261
0.0253119
0.0310594
0.028381
0.469775
0.0966933
0.0281987
0.0256801
1.80885
0.025357
13.3451
0.06302
3.83855
4.78471
5.69596
0.0256516
0.208265
0.025325
1.71595
0.0250417
0.901369
4.70502
0.0338349
0.0253194
0.0477173
7.82089
0.431597
0.799816
3.63762
0.0254118
0.0252942
0.079208
11.9013
0.0248199
0.409791
0.0247222
0.0302217
6.92568
0.228926
0.0466094
3.37123
0.255707
9.76628
0.0253175
0.0412259
0.0362164
8.98273
4.9614
0.0255186
5.0871
0.0396098
0.0256363
3.21938
0.0249093
1.64962
0.0252031
4.68154
0.0311206
5.78634
0.0494601
0.0265438
0.165259
8.75706
0.171415
5.10327
5.95626
0.0349082
0.121026
0.0246905
0.0263946
0.0254467
0.0249266
0.0285128
0.0250685
0.0255331
4.73737
0.436039
0.179121
8.95887
5.2685
0.263411
0.0384331
6.57011
0.0310805
4.58265
6.06971
3.65113
0.0280516
0.0256502
0.081945
4.82531
0.182833
0.0251262
7.69724
0.05582
0.645819
0.0446901
5.78655
0.0284994
0.0263026
0.0338406
0.0322835
0.16732
0.0253607
0.714789
0.0377711
0.184309
0.0255492
0.0358487
5.05427
7.42026
0.0290256
0.0369996
0.0254761
0.0270102
0.317945
5.26301
14.3356
0.0444628
3.20448
0.0362745
0.0250979
0.0260518
0.467117
7.26583
0.0262371
0.025097
0.100092
1.11131
0.0587499
6.63042
0.0253006
8.42797
10.134
0.249184
8.27802
0.0254275
0.0250801
0.129565
0.0379748
4.09158
0.0310183
0.139091
0.0509017
0.0333391
0.224643
0.184247
0.0248908
0.0254788
0.0372024
0.615946
5.85209
5.76215
0.0974581
0.0249397
0.163393
0.0332305
3.93394
0.233778
0.0252103
0.0322798
1.95841
0.0249118
0.0256377
0.299483
0.0254934
0.272447
0.0386619
0.0594005
8.23474
0.0253249
0.024976
0.0253265
0.02533
0.02468
0.0274192
0.025336
0.0253447
0.0253562
0.157825
0.0253673
0.0467303
0.025319
0.0253811
0.0253964
0.506009
0.0254127
0.133213
0.0254305
0.0318688
0.0313502
8.5918
6.31786
6.87817
0.0254496
0.0353038
0.72383
0.164461
0.0314092
0.0254501
0.0280665
5.64643
0.0388403
0.0982172
0.0367903
0.102392
21.7669
0.0908707
0.0250867
0.0254354
2.21561
0.928286
0.0285916
0.025303
0.0383947
5.3266
0.340194
0.156385
0.0333226
6.95089
0.453488
0.0268692
0.0254917
4.37092
7.39901
0.025471
0.0363377
5.87862
6.4494
0.170533
0.0248893
0.0382953
0.0249185
6.54916
0.0250162
6.37825
5.91294
0.0337286
7.14319
0.0248358
0.143975
0.0253001
0.0261436
0.0605085
4.20021
0.0303519
0.0713671
0.0506252
0.0403128
0.0246616
0.0249577
0.0272662
0.0247203
0.0331609
0.0262422
6.15824
0.0253669
0.0248848
6.62466
0.0476987
7.79655
0.210444
6.78086
0.027893
0.0250054
6.98279
4.45134
5.85051
6.06512
0.0350347
0.507527
0.138758
0.0252127
5.76797
0.025516
5.92308
4.06973
6.16522
6.69602
0.0366513
0.0526837
7.26337
5.87057
0.024723
2.56638
0.0542015
3.90921
1.03147
0.0811517
0.0253289
0.907556
4.82071
11.3224
0.0377705
0.54858
0.0290083
7.50227
6.38987
8.93961
0.0252695
0.176266
0.0326833
6.21968
5.85716
6.0226
1.76321
0.0580329
9.72784
0.0288335
0.984582
0.0416005
0.0376141
0.0252387
0.133072
0.0261488
0.0361589
3.76599
6.04391
0.0336954
5.36445
0.0359429
1.50642
0.0518047
5.61344
0.0259972
5.51831
0.0371102
8.23708
0.0249801
0.0364745
0.02526
0.0563038
0.122573
0.0345777
6.26413
0.229149
0.476514
0.627049
0.0388632
0.0254871
0.0252868
5.88451
0.0252599
3.46167
4.27614
0.213574
0.0294484
0.645494
0.0253549
0.0416125
0.0307718
0.0439296
0.0341466
4.08968
0.0493803
0.568897
0.0256705
0.0278338
0.0314226
0.0301723
0.0284029
0.152956
0.0254904