/*--------------------------------*- C++ -*----------------------------------*\
| =========                 |                                                 |
| \\      /  F ield         | OpenFOAM: The Open Source CFD Toolbox           |
|  \\    /   O peration     | Version:  v2012                                 |
|   \\  /    A nd           | Website:  www.openfoam.com                      |
|    \\/     M anipulation  |                                                 |
\*---------------------------------------------------------------------------*/
FoamFile
{
    version     2.0;
    format      ascii;
    class       volScalarField;
    location    "100";
    object      omega_0;
}
// * * * * * * * * * * * * * * * * * * * * * * * * * * * * * * * * * * * * * //

dimensions      [0 0 -1 0 0 0 0];


internalField   nonuniform List<scalar> 
14804
(
3.49383
0.0251103
0.094503
0.0318422
0.0372358
0.0626022
0.0261988
0.0253973
0.10862
0.0255686
0.380838
0.0998679
0.0255573
0.0377829
0.176315
7.44847
0.0382374
0.0307048
20.4259
0.0493554
0.0256905
0.0279325
0.0405575
0.0257249
13.1859
0.0257296
0.037518
0.0370074
3.52309
0.0256864
0.0248429
0.0380773
0.049455
0.0440705
0.100126
0.0262175
1.05714
0.0256333
10.6237
0.0496102
0.0944917
0.0959076
0.162003
0.0252444
0.0372257
0.0264584
2.64687
0.0255265
0.0282472
0.481571
0.0255875
0.0248272
0.0253902
0.0271906
0.58584
2.53496
0.321029
3.47452
0.0254916
0.0265151
5.66562
0.0256397
0.0252326
2.87591
0.0252357
0.0254132
0.0256801
0.0260228
0.02542
4.68064
0.0248625
0.0362316
0.394215
5.05176
0.0254605
4.75274
6.30108
0.0251042
0.052481
0.0246939
5.83116
0.025412
0.0247228
0.0254687
0.0256505
0.148744
0.0249544
0.0261333
0.0250409
0.0369459
0.0371246
0.0274509
0.0848734
0.0248122
0.493631
6.4565
3.51137
0.0367795
0.0256741
0.429318
3.47142
4.94728
0.0256612
0.0406257
0.204554
4.89293
0.0993583
0.42261
0.0254207
0.0248556
0.0253289
3.29521
0.085703
8.11684
3.26696
5.88036
0.240616
0.0382212
0.025646
0.0309809
6.10565
0.0250438
0.0269293
0.0437722
0.0255
0.0256521
0.226486
0.0393788
0.042952
0.0363147
0.0362299
0.166542
4.16578
0.354122
1.86621
0.04308
0.025251
2.04751
0.0255211
0.0444451
0.0252255
8.89774
0.0250564
7.70891
6.30248
0.0254352
0.191158
0.0254244
0.297389
18.6872
0.108762
25.3672
0.0505846
0.0409137
0.0247152
3.46953
0.0354885
0.488343
6.98493
0.366817
0.0251978
0.0252986
4.21347
23.7138
0.0279713
3.44634
0.025567
5.33533
0.0256324
0.0253977
0.419413
0.0284289
0.119446
0.161821
1.18982
0.359159
0.0405101
0.04746
0.0248415
0.342656
0.0625905
6.42945
0.0260031
0.032397
0.0272546
4.25842
0.0644869
0.0609503
0.0294487
0.0247902
0.155686
3.48542
0.0253218
2.11796
0.394567
0.0251938
4.97723
0.0255204
0.0720726
6.82985
7.19054
0.0247849
0.026705
0.108833
0.0262528
7.09649
0.0347208
0.733783
0.0395511
0.0262699
0.0256395
5.31032
0.0261056
0.0251974
0.0260267
0.0255779
0.0397285
0.0251623
0.0253509
0.0252332
0.0321434
0.0903423
0.0721095
0.0281588
0.0250033
0.549783
0.0485305
1.86785
4.2252
0.0275916
0.0248264
0.0265122
0.025348
4.58589
4.9527
0.0256605
0.0263908
0.193805
0.135703
0.0290327
7.39658
0.437205
0.0256748
0.0252406
0.0249065
0.158224
0.0311242
0.0279329
0.0406926
0.0248785
14.8033
0.0251951
0.0252419
0.0251104
3.90675
0.0261467
0.0248029
0.0271901
0.0248497
0.0254491
3.3464
0.029443
0.042982
0.0254708
0.819709
0.0254563
0.0341372
0.0248933
6.51131
6.56416
6.1188
8.73855
0.0256649
0.0254939
10.4503
0.193224
0.0262195
7.01259
0.0889217
4.83056
0.193472
0.0251489
4.27814
5.43641
5.65901
0.914704
0.0910418
0.0261946
0.0332632
0.287349
0.025161
0.0253837
0.0278254
0.0255092
0.059686
1.0011
0.177872
0.0434662
0.0251619
0.0335382
0.024915
0.0251489
0.0351177
0.0491157
0.0509376
0.0259023
9.73786
5.00862
0.160708
8.6282
6.36839
0.0255195
0.03014
0.0289228
3.98567
0.0260362
3.2987
0.235766
0.0246701
11.6725
0.180263
0.224691
1.45096
7.90072
0.0253598
0.0480219
0.233289
0.0255004
1.66847
5.98692
0.0405844
0.037191
0.0398098
0.0295681
0.0254551
0.0248255
0.0251603
7.47342
0.0260165
0.119558
0.027985
0.0254133
0.0314925
0.0255909
0.0248195
3.58785
5.71961
4.57225
0.117218
5.9749
7.29629
0.0271854
0.0254013
0.0248931
0.0260096
0.189805
0.0255703
20.3604
0.0247116
0.025236
0.0259383
0.137731
0.0854635
0.125663
7.19129
4.87154
0.0260987
0.0368087
0.0593548
0.0252226
0.0270398
0.0255484
0.0463239
0.0256922
0.0250989
18.3975
0.0249032
0.0257058
4.14995
0.444745
1.3317
0.031286
0.0663507
5.86913
0.0310334
0.0252088
6.31932
0.0264549
0.0254658
7.70356
0.0324483
0.0246879
0.0259392
0.0271617
6.92016
0.0270773
0.288755
0.0364583
10.0132
0.0255583
0.15026
0.0252933
0.442368
18.7193
0.0386729
0.0285301
0.263244
0.0255696
0.048203
0.025663
0.0250239
0.0357983
15.2489
0.0255653
0.025538
0.663935
0.0254718
0.0313536
0.0257372
3.51187
0.240623
0.0591016
0.0247085
6.39821
0.0284019
0.0378239
6.83735
0.0476159
0.0294264
0.0247741
0.0265031
0.0255339
0.741641
0.0254421
0.0262529
0.0253619
0.0249172
3.61875
0.0251636
0.0258918
0.0469939
5.57082
0.0249939
0.0254595
0.0249456
0.0291338
7.78874
6.31333
0.44245
0.0269238
4.4933
0.0270032
0.0253583
0.0256608
0.02508
0.0251861
0.026149
7.41724
0.0273092
0.0256513
3.97381
0.0249388
0.493206
0.265554
0.0377985
3.06049
0.0313419
5.04628
0.0595591
0.025679
0.0256513
0.0356563
0.0252981
0.0250069
7.28881
0.0316341
0.0255259
0.0352587
6.36659
6.03674
0.0428575
0.0305286
0.0288029
0.0906467
0.0254119
0.0308938
6.47432
0.0253394
0.024993
0.0397225
0.0310725
1.02784
0.0446257
0.024909
0.0376882
0.02565
0.0253649
7.28435
0.0434441
0.0251801
0.140256
0.0258814
0.0252189
0.0526537
5.59836
0.0254304
0.0253037
0.0249514
0.0249835
5.59422
0.0254366
0.0256603
4.5211
0.025253
0.0257432
7.619
0.0254236
1.1543
0.0246412
0.217636
8.83096
0.667596
0.025482
0.0254742
0.0356324
0.0263067
0.0246558
0.0266412
0.0249424
0.0369255
0.0247819
0.0383997
0.0377878
0.0254986
5.95368
0.0912322
8.03569
0.0282356
0.0246351
0.126956
0.0253937
0.0298242
0.217915
0.0346692
0.200549
4.57573
0.0252936
9.79571
0.110528
0.027261
0.0285491
7.61076
7.14794
0.024695
0.0251417
0.0251629
0.231031
0.108747
6.66692
6.01511
0.02531
0.0589403
0.15778
0.588632
0.036876
0.0286847
0.0305098
0.0249241
0.185031
6.88539
0.037202
0.309577
0.0246689
0.0251728
0.024918
0.0367339
0.0250242
0.210144
0.0254617
18.437
0.3013
0.0355926
0.0945148
0.0249253
0.0252068
4.51817
0.0260283
18.1327
0.025087
0.0249204
0.0251073
0.0256521
0.0533627
0.0315002
5.71665
5.88584
0.0254643
0.0254027
0.030099
0.114758
0.0713987
0.0338337
0.0248869
1.03639
0.02728
5.84763
0.0247951
0.377067
7.08978
0.0250123
0.0252291
0.0544998
0.0256913
0.0246546
0.0446324
0.0255468
3.91744
0.059548
0.599534
0.0251624
0.36764
21.0698
0.0549056
0.025691
4.51718
0.0250674
0.327759
0.0253988
0.0255594
6.76635
0.111137
0.51429
0.0581147
0.033807
0.0247134
5.21956
0.0251792
8.15673
0.619913
0.0305024
0.0249991
0.0252753
0.0358607
0.0312678
0.0256234
0.0982824
0.0932674
0.0363192
0.0254335
6.77203
5.36698
0.565091
0.0252529
0.0526216
0.0247011
0.025391
0.0436306
6.99498
0.0354716
4.64564
0.0484773
0.146129
0.1949
0.0253278
7.02781
6.00723
0.0251796
0.0317125
0.130922
0.0312996
0.0367831
0.0282946
0.0349739
2.08049
0.0249775
0.0448232
0.0250774
0.0254527
3.54641
6.13156
0.0622537
0.0253568
0.024827
0.0247105
0.0271493
0.0440533
7.05889
0.0595949
0.253051
17.7221
0.0670767
0.0333649
5.41727
0.0253428
4.86366
0.0263532
0.0252198
0.0253219
0.0308311
0.0752248
0.0249494
0.0286902
0.0423346
0.128221
0.0329839
0.196081
0.0252798
0.18736
0.0528962
0.0424542
0.039435
0.0255354
0.0255144
8.66222
5.09807
0.0253671
0.109987
0.0253543
0.0247997
0.0254378
0.0273731
0.290348
0.0250008
0.0390627
0.0249151
0.0289186
0.0252727
0.0447463
0.0260289
0.0250083
0.0254172
0.057717
0.0443416
3.90498
1.0783
0.0251904
0.0252958
0.025242
3.27993
0.0320399
0.062562
5.83489
0.0355721
0.0296583
3.41722
0.0251096
0.0251904
0.0252957
0.0248941
0.121504
0.0251748
0.0248125
0.444621
0.125284
0.0306002
0.0248266
3.51726
8.53479
0.0531294
0.0294843
0.0315845
1.34017
0.065511
3.2773
0.504164
0.116746
5.85294
0.0272687
0.0363859
0.690101
0.0251234
0.492692
0.0258176
0.0256368
6.81181
0.0349285
0.103508
3.66406
0.135502
0.0251675
3.26513
0.0251027
0.0265322
0.0274327
0.026479
0.0256253
6.48303
6.97646
0.0375978
0.175293
0.0288413
6.84794
3.53062
0.0377589
5.8556
0.0258175
0.0250992
0.0248741
0.0254643
0.0253275
15.32
0.0320419
5.98275
0.240523
0.0253329
0.0583569
0.0377818
0.0248794
0.0254146
6.01479
16.9216
0.0255966
0.0627425
0.0255903
0.0252584
0.0453425
0.0271538
5.44888
0.173957
1.76578
2.77333
0.032622
0.202495
0.0254769
20.2264
0.118164
0.0248864
0.0298857
16.9114
0.0252536
0.0579052
0.0248045
17.1258
0.0578655
0.0257431
0.0255699
0.0248113
0.0249407
0.0291643
20.7716
0.0250544
0.0249116
0.0302685
0.0257252
5.79169
0.0724201
0.0253611
0.0248162
0.0253418
0.0435204
0.0253635
0.0252241
0.178682
1.44004
0.0253295
0.0247007
0.0474803
6.46446
0.0253803
0.0249235
0.0249974
0.126852
0.0248089
6.31304
0.0450041
0.0517246
1.07884
5.01681
0.0248995
0.744914
0.0245581
3.26378
0.0364379
0.0292396
0.0254351
0.0253186
7.14545
0.0255155
4.23689
0.0252649
0.0709278
7.46528
8.24707
0.165472
0.0255503
4.73006
0.0256897
0.0250541
0.0301378
1.29841
0.0256282
0.232764
0.0641281
0.0256929
0.0318105
0.0256628
0.0256912
0.0253361
0.0253174
0.0252304
0.142748
0.0254656
0.0474885
0.0261397
20.6409
0.0256904
1.29057
0.0247678
0.0472237
0.0338809
0.137816
0.0431006
0.0659134
0.0312342
0.0284175
0.0256782
0.0308667
0.145763
0.0308525
0.0249842
0.0247926
7.78022
0.0822345
0.0452081
0.0249434
0.0251213
0.148859
0.0929068
3.29531
4.8688
0.133949
0.0562798
6.71582
0.0246997
0.0255913
19.9293
0.0362407
0.755252
0.0709111
0.0254504
0.0248603
0.101333
0.0248752
3.26536
0.0268088
0.0643618
0.0248531
0.184423
0.0255488
3.55604
0.0248801
0.0249801
0.0952591
0.159775
0.20258
5.51971
0.0749524
4.15353
0.0315704
0.0723452
4.76926
0.0365817
0.531273
0.0257241
0.0247943
0.101692
6.56934
0.0671055
0.026839
0.0251078
0.0666503
0.0254702
5.05288
6.92158
0.0252199
0.0255725
0.0252461
0.0332069
2.1833
0.0256155
5.81877
0.889334
4.20965
0.0376348
0.025368
0.0255178
1.61703
0.0251119
3.5747
0.0282272
0.0380887
0.0253319
0.0253869
0.0670626
0.0538692
1.50103
0.276707
0.0502289
0.0247078
0.0255655
0.0255637
4.02704
0.0898585
5.40195
0.0255078
4.84306
0.169115
0.0722932
0.0259055
0.025541
0.0252823
0.0253081
6.17798
0.0451612
0.0247858
0.115384
0.59965
0.0307429
0.0451548
0.0355056
0.0252237
0.541635
0.0253998
0.0381763
0.0253739
0.0522383
0.0475456
0.0252467
7.26396
0.0262851
7.66669
0.0249472
0.0254331
0.0248046
3.43607
5.62819
0.0331956
0.210028
0.117895
0.0257139
0.0263068
0.0253734
8.38496
6.276
0.142791
0.318594
0.0254688
0.0263197
20.432
0.0267572
0.0349673
1.96128
0.028663
0.0281077
6.07659
0.112967
8.27736
0.0264842
0.0907109
0.0259105
0.602258
3.90891
0.025367
0.0266053
4.24344
0.160307
0.0565545
0.0252872
3.38678
5.17015
0.0254243
0.0725525
0.0246994
0.025327
7.10279
0.0253369
0.0439519
0.0359404
0.206576
0.0254067
0.0254472
0.0247921
0.0460266
0.0278802
15.673
7.09837
0.0887632
1.75209
0.0248831
0.0250665
0.0253312
0.0253922
0.048417
0.0312132
7.73946
0.036727
0.0260978
0.060746
0.0247061
0.0249332
0.0248992
0.513336
4.86059
3.99724
0.0252159
0.0385677
3.94287
0.0253802
0.0251668
0.0258658
8.34288
3.17885
0.0256017
0.102168
0.0460257
0.0298826
0.0272782
0.0253595
0.122538
0.11015
0.0382257
0.413087
4.25554
0.0254433
0.0256544
0.0380857
0.0252949
0.0685886
0.02631
0.095708
0.0254053
5.74697
5.65712
0.0257208
0.0253618
0.0267752
0.0247247
0.146298
0.0250605
0.0255318
0.0249103
0.157935
0.0253709
0.206759
0.0256798
0.0255559
2.59942
0.0362682
0.0253549
0.187245
8.70525
0.898654
0.0252815
6.39465
0.0252518
0.024986
0.025535
0.0350444
0.0273511
0.0490706
0.0532715
0.0324987
0.0254132
0.0247745
4.98717
0.104255
5.18702
0.75667
0.0250359
6.18635
0.075174
0.0265377
0.0250614
0.117613
7.88549
0.0249201
1.84856
10.2038
10.1964
0.0449629
0.0253778
0.0359351
0.0275797
0.0253896
0.0250387
0.0874979
0.0255449
0.0250556
0.0256623
8.3839
6.88987
3.3989
13.9439
0.0353547
0.0249305
5.25672
0.401549
0.117867
0.0248376
0.0249455
0.0253554
0.0319971
0.0282904
0.0929471
0.0249354
0.0366026
7.17786
0.0308026
0.030821
0.148602
0.055261
0.025662
6.84582
0.0247984
5.143
0.0253467
4.43895
7.20297
0.159125
0.0531494
0.0250179
0.0247887
0.0254114
0.0252613
0.0248455
2.99892
7.35043
0.0253523
0.0960744
0.120879
0.0274013
0.025385
1.49715
0.0284926
21.6502
7.23823
5.75228
0.075769
0.0254548
0.0249783
6.41612
0.024696
0.0252921
0.029899
0.198443
0.029403
0.0254627
0.182883
0.177956
0.261457
3.72164
6.59383
0.0249254
0.0249623
0.189008
0.024883
0.0253624
0.0250438
0.300742
0.192112
0.025245
0.0307417
6.28188
0.0254146
0.0523254
0.262662
0.0254408
0.0253943
0.0679495
0.0355495
0.0429105
4.07025
0.136264
0.0256511
0.0253384
0.0245903
3.84623
0.0249831
6.07437
0.0252887
1.5376
0.025636
0.0253597
0.0295639
0.0263922
0.336181
3.74864
0.363448
0.0493908
0.025299
0.0455905
0.0254373
0.0628144
1.50917
0.0247559
0.0606644
0.0252873
0.0248634
0.0252562
4.17844
0.100524
0.0255551
0.0264899
0.0930684
0.0257136
0.184553
2.28752
5.22043
6.43431
0.0259394
0.0892838
0.0253069
5.998
0.0280163
0.0253055
3.72601
0.0287609
2.49821
0.0255111
0.139083
0.0440831
0.0256818
7.47274
6.38097
0.0411003
6.15106
7.75417
4.35047
0.0305331
3.36112
0.0254683
0.0254103
0.132066
5.58963
0.0419495
0.0254915
0.024798
0.0254312
0.0255737
0.0254699
5.83681
4.0045
0.0253108
0.325316
0.031094
0.0329302
5.2759
4.40201
0.0248781
0.0251246
0.0495529
4.56647
0.0253148
6.21705
0.0249398
0.0248961
0.0293464
0.0248094
0.69399
0.0247047
5.45647
6.24181
0.0276027
0.0594739
0.0271977
0.0686188
0.0253717
0.0287361
4.08152
0.64273
0.0253795
0.138729
0.0286401
5.98061
0.259837
0.0248332
0.0262971
7.17298
5.12791
0.627425
0.0251218
0.0283237
0.712134
7.6566
0.0293745
0.035617
0.361376
0.0384253
0.027194
6.00541
0.104428
0.406785
0.60543
0.0256949
0.0262539
0.0248654
3.96671
0.0258637
0.025843
7.42644
0.0256806
0.0255537
0.0255265
0.119274
0.0254599
5.53968
0.0254562
0.066691
0.0295215
0.102753
0.0309838
0.0463376
0.0274994
0.180289
4.65713
5.59935
0.0252672
6.49849
0.0297029
0.150458
0.029717
0.0343405
0.0256614
0.0296395
0.0251289
4.19516
0.362646
0.0259054
0.0252151
0.0254692
0.0444763
0.0247016
0.0309827
2.3127
0.025913
0.0345617
5.95065
3.17842
0.0289187
0.451001
0.0256264
0.0247962
0.0255388
0.0453651
0.0253534
0.0252568
0.0250002
0.0254961
0.0248922
3.20074
0.028929
5.2495
6.02684
0.0256799
0.127179
0.0252794
0.0310639
6.29751
1.21
5.05133
0.0252517
0.0332137
0.0246901
0.0247375
7.98623
0.0427164
0.506444
0.0247657
0.0249417
0.0253702
0.0266739
0.542642
0.134398
0.0249738
0.0256905
0.025288
4.69942
0.135971
0.0252848
2.25872
2.11131
5.85551
0.0332844
0.0839967
0.109991
0.0248882
0.0248042
0.0254556
0.0249253
4.65382
10.3313
0.127754
0.0314315
0.193316
1.76073
0.0293196
0.0254287
0.0253798
0.417069
0.0305396
0.0418804
0.0312326
0.0252694
0.0392498
0.0313387
0.0269902
0.0262228
6.77883
5.39227
0.0249555
0.0579658
0.0262875
0.0249468
0.0256872
4.67079
0.0253445
0.17849
0.0350271
0.02627
0.0253499
0.025372
2.17066
0.0257182
0.0596791
7.21756
5.8475
0.025006
0.0786854
0.0265601
0.0255346
0.0249371
0.0284755
0.0254215
0.0604356
0.0251197
7.15513
0.0298122
0.0253513
0.0262977
0.0536212
0.0303582
0.0308502
0.0312524
0.0299992
0.0248108
0.0247273
0.0483111
0.0249053
1.00369
0.025652
0.0883772
5.27983
5.36018
0.025114
0.221534
0.0564191
5.9819
6.01139
0.572551
3.74452
0.0247688
6.49881
0.0261585
0.0274235
0.209936
5.36559
0.0444835
3.49948
0.0251209
0.028515
0.238084
0.179834
6.01256
0.629955
0.0735503
0.0283986
7.04337
0.0289729
0.412259
0.0255153
0.0593441
0.253031
0.0263343
0.0736948
0.0247329
0.0254723
0.0854352
0.0253591
4.90515
0.0306789
0.0253719
0.268504
4.12352
0.0247079
5.8586
0.0288364
0.0248125
5.03848
5.60835
0.0262211
0.0252092
0.0255019
0.112056
0.0284852
5.82241
4.22766
0.197896
6.8489
0.0255451
0.0625851
0.0255301
3.85715
0.0253492
0.280926
5.2741
0.153369
4.37178
0.025278
0.0250884
0.0245859
0.0253291
0.0256615
0.0313638
6.98627
0.0270823
0.0510707
1.26366
4.51703
9.06606
3.95064
0.0249935
0.0252105
0.0365516
0.0262237
3.69124
0.0423493
0.0249644
6.26113
4.31161
0.0257292
0.0252941
0.025013
3.28844
0.0313846
0.0252207
0.0251758
0.0254172
0.0253817
0.0253127
0.0248078
0.170108
0.0247301
0.504518
0.0914269
0.0276648
0.0314875
0.0274803
0.0254338
0.0602647
0.0256623
0.0256798
0.0530299
0.57261
0.0251077
0.0569115
0.0263072
0.0510834
7.37207
0.0248169
0.0410076
0.0253367
8.28273
0.0262453
6.56438
1.63843
16.4519
8.0532
0.434687
0.135919
1.40314
6.76978
0.0260853
7.35438
0.0252939
0.208332
5.8858
0.0658897
0.0249943
0.0252937
0.0247908
8.14865
0.15894
0.0247862
0.0246692
0.025244
0.104344
0.188012
0.0255839
0.0572839
6.12876
0.0248948
0.122981
0.0249471
0.0251656
0.0251273
0.030335
8.44741
0.246765
0.273403
0.177642
8.25672
0.120933
2.63317
17.1023
0.558904
7.10782
0.0249933
0.0900185
0.0255094
0.0255434
0.025517
0.0355998
0.0253507
0.0265807
17.971
0.0263375
0.0273278
0.0274101
0.0323109
0.0250756
0.167843
0.0256557
0.0254306
0.12189
0.0423371
7.34811
0.0447432
0.0270665
0.0472068
8.60365
5.44589
0.0252862
0.165884
0.0264045
0.0580332
0.0254751
0.0253303
0.0268648
6.19833
0.0373608
9.31201
0.0322018
5.59575
11.9458
6.39208
3.25337
0.0253011
0.0248561
7.30709
0.0509848
0.0688846
3.96947
0.025497
0.0248725
0.0257132
0.0267115
0.0899641
6.7158
0.087184
0.0248294
0.0249501
0.0253804
0.0600559
0.601186
0.0252956
0.0358343
0.0551792
0.0253777
0.0480521
0.205234
4.74523
18.4091
0.0252727
0.0480535
5.59131
0.0592786
0.0322051
0.0756842
5.74814
0.0252989
0.0247157
0.0248423
0.0250389
0.0262659
6.9765
0.0247049
0.0253827
0.0448443
0.0298638
3.64588
0.0267814
0.0291853
0.0342882
0.0475041
0.0252292
5.85095
0.025299
0.0256619
0.112401
0.037504
0.0251495
0.0256706
0.0423556
5.59201
0.0318996
0.0273859
0.122702
0.055826
0.0282269
4.65806
4.34117
0.0298045
0.0260925
0.0260339
5.88022
0.333614
0.0338812
0.0549038
0.024803
0.0713127
0.025161
0.0310991
5.96192
0.0315119
0.050612
0.0280606
0.763187
0.0567115
0.0255256
0.124458
0.104103
0.0253743
0.0614583
0.0255046
0.0438284
14.4423
5.52315
1.92954
0.0688012
0.408042
0.344956
0.0636603
0.0253201
0.025367
0.0313332
0.044196
6.42737
0.0337353
0.0255082
0.0251793
7.13246
0.0755299
7.07243
0.0261407
0.0249427
6.68903
7.1131
0.0252692
0.0253394
0.0247848
0.0354216
0.0607046
0.0258632
0.0295396
0.0353192
0.0331217
3.81796
0.0251191
0.0301975
5.92777
0.024819
0.0608599
0.0246829
0.0291909
7.37805
0.0295457
0.0386206
0.0249926
0.0250486
0.103012
0.0255274
0.0252207
0.0254452
0.0362942
0.114074
0.0294915
0.0525253
0.0253801
0.0250968
0.0358867
4.65011
5.68524
0.0291332
3.99007
0.029503
0.0284816
0.0271421
4.96906
0.0280921
0.0255523
0.0254104
0.234748
0.034714
0.080366
0.0257553
0.0254281
7.03676
0.026228
0.0254369
4.831
0.031261
0.0252526
0.0248254
0.0366214
5.6999
3.36969
0.025028
0.0346178
0.0270182
0.0251639
0.0249369
0.0347652
0.0344036
0.0832087
0.0247161
0.0373287
0.0387573
3.3538
0.0300711
7.5259
0.196069
0.0262973
3.75188
0.526211
0.522618
0.0363066
0.0358479
0.0254874
0.0252477
0.030543
4.5699
0.707733
0.0254894
7.20652
0.0254957
0.0363913
0.06672
0.0305113
0.0252446
0.431965
13.6959
0.0246076
0.0253629
0.0368995
0.0252514
0.0330358
0.0759255
1.69337
0.0352153
0.0256792
0.0247775
0.0609449
0.0383575
0.128081
0.0280783
0.168227
0.0359845
0.126579
0.0554447
0.318617
0.150339
0.0674382
0.161178
3.17766
0.0288818
1.14608
0.0285932
0.111649
0.0253359
0.024887
0.0409966
0.0252421
0.056047
0.446133
0.0427
0.0291215
6.41744
0.0362557
0.0327823
4.84492
0.0250887
0.659911
0.10317
0.0256804
5.66775
0.193953
0.109031
0.0572288
3.63747
0.039958
0.0256356
0.0562482
0.0373522
7.57113
0.0562691
0.0371601
0.03555
0.0295568
0.06898
0.0615983
0.524734
1.77798
0.0270613
0.0249321
0.0257521
6.13647
0.0336335
0.0276794
0.0288126
6.93287
0.0342973
0.0254321
0.035004
0.0248957
0.0253786
0.0286506
0.149734
0.0253715
4.92252
0.0256513
0.0251483
0.0569285
0.0323952
3.22962
0.0253013
0.0264286
6.75821
0.0344122
0.0253735
5.11239
3.15349
0.0293028
0.213576
0.0293805
0.0349
6.32318
0.0335968
13.9343
0.336128
0.0464293
0.0363762
0.0369085
0.0249594
0.0253092
0.0248814
0.0373174
0.36475
5.67811
0.0362865
0.0570787
0.0252525
0.0249513
0.0269492
5.83032
0.0286416
0.0350323
0.028861
0.0254045
6.67405
0.0254894
0.0247278
0.239455
0.0256216
0.0252548
0.0251117
0.025394
0.0270285
3.28479
0.102368
0.0254554
0.0247018
0.0441504
0.0267861
0.0271941
4.57371
1.4875
5.61702
0.0252733
0.0570791
5.94483
9.67636
0.271194
9.83216
0.0279448
0.025381
3.38346
0.0349152
4.47124
0.0262238
0.0252347
0.0262253
0.0275524
4.2142
3.2504
0.0274285
0.0352958
0.230624
0.0255909
13.2216
7.46046
0.0260763
0.0567529
9.7248
0.0252304
0.181224
5.24551
0.0255684
0.0252418
5.41821
0.0251447
0.0254367
0.0292945
6.75064
4.43126
0.025011
0.0342323
0.026138
4.23522
0.202248
0.0254425
0.0249058
4.10636
6.37984
5.36817
0.0247996
0.0249767
0.0252625
0.0563953
0.0361325
0.0295743
0.0249151
0.0287485
5.80001
0.0537068
0.0249852
5.8785
0.0350905
0.0248494
0.0276883
0.0341871
0.0253732
0.110155
0.0416481
5.2135
0.0559014
0.0353946
3.80068
0.0414579
0.126982
3.36341
0.0464997
5.65639
0.0339293
5.47566
5.01426
3.59075
0.0347419
10.5141
0.169327
0.0249683
0.0304003
0.083595
0.0715337
0.0394202
6.79716
0.0278063
0.0250032
0.034812
0.0248293
0.025294
0.0292691
0.0900921
0.112546
0.034678
18.6369
0.0251975
0.0269086
0.0250914
0.0253577
0.0593831
0.0263248
0.027698
0.0253746
0.0253716
0.831845
0.0251459
0.0255118
0.0589792
0.0266864
4.53923
0.0646562
0.497314
0.0343991
0.0268541
0.025882
0.106852
0.0252641
14.1055
3.34231
0.0260463
0.0253927
5.28317
0.150795
0.165407
4.8764
0.0247152
0.0251427
0.0289341
0.898627
0.0267795
0.0254505
0.040975
0.0352336
3.60587
5.89729
1.34225
0.086556
0.0254887
9.4541
0.0259039
0.0289916
0.025277
0.0290483
0.0851783
0.0529199
0.386811
0.0249273
0.0290442
0.0290554
0.0252545
5.96337
0.0345753
0.0284239
3.00689
0.584279
0.0252996
0.0249855
0.0282749
5.80175
0.0247546
0.0521444
0.0293416
0.0261814
0.0652233
0.0807963
0.0266016
18.8094
0.025584
0.147442
0.0341059
0.0607045
0.0625434
0.0269592
0.672372
0.0620581
0.0255043
0.0309702
0.0513178
0.0250001
0.0420996
0.0334977
4.31313
0.0256162
7.97617
0.0252498
0.0403784
0.032805
0.0250795
6.40582
0.114047
0.0249028
0.0502025
0.0253663
0.0252475
0.0252078
0.0268863
0.029113
0.0494941
0.0256795
0.0283895
0.111607
0.0567186
0.059448
0.0486107
0.0248616
0.0255684
0.0250756
0.068624
0.0251425
0.0280257
0.167286
0.0992414
0.0252876
0.0253744
0.0252727
0.112583
0.0255353
0.028303
0.177677
0.0304435
22.5345
0.160174
0.0256356
0.134768
15.2544
0.0254874
0.0253071
6.42661
0.0461337
0.042591
0.0254913
0.0249469
0.0246224
0.0262812
4.56181
6.69814
0.0252625
0.0955556
0.0447554
0.028489
0.0250276
0.0256193
4.05183
0.02523
0.0251121
5.97305
2.5976
0.0248679
0.0248123
0.0253805
4.39738
0.0268334
0.026
4.15204
3.97063
0.0251515
0.0389963
0.0252959
0.148087
0.185947
0.0253956
6.94035
0.0279335
0.0735813
0.0251596
1.20103
4.57116
0.0905457
3.88129
5.78847
0.0247053
3.692
0.0253575
0.025209
3.91708
0.0256484
0.129675
0.0349927
6.23594
0.0252974
2.57588
6.56602
0.0252177
0.0256644
0.266697
3.73247
0.0272717
0.0255045
0.0306662
0.134312
0.031486
0.0251731
6.19607
0.025728
0.0305165
0.0261518
0.109865
8.18777
0.025153
5.36176
0.0884961
0.204112
0.0256307
0.0265413
0.131474
0.17812
8.09638
0.025204
0.0253131
0.0250015
0.89118
0.169812
7.6794
9.23252
0.145117
0.0250038
0.0254747
0.0251995
5.8429
0.0252696
4.31814
7.53235
0.0253356
0.123274
0.0450533
0.0491775
0.204541
0.0253713
0.0250705
0.357666
1.30542
0.0250273
0.0256391
5.43782
0.391714
0.0304536
0.460802
0.0261373
0.0258458
6.24117
7.66731
0.0254824
0.0272479
0.0247972
4.65969
7.94198
0.0249482
0.025246
0.0260946
0.0253102
0.0357881
0.0305591
0.0253204
5.32941
0.155325
0.0300854
0.0277801
5.56553
0.0250716
0.02552
0.025282
12.1696
0.40298
0.0252799
0.0252762
4.33753
0.0303707
5.69293
0.0255304
5.77677
6.82391
0.0920341
0.0250784
0.0254791
0.0252311
0.044618
0.969327
0.293745
0.557994
0.0395913
0.0253906
0.997329
17.6358
4.21667
0.0379389
0.0251921
0.0249722
0.0246195
0.189982
2.22002
0.0273341
0.0372922
0.0252462
0.0253791
0.0251732
0.0818937
0.025283
0.131753
0.0249778
0.0838624
5.3099
6.42264
3.11306
0.195071
0.0253073
0.0301651
0.0845085
0.0429398
0.0278337
0.0308107
0.0253219
0.0253336
0.0289699
0.0250823
0.0252004
0.0676358
0.0248226
0.0412568
3.36056
0.0254588
0.0337148
0.147532
0.0256624
13.2725
0.0444264
0.0298499
0.025323
0.0246589
0.731266
0.0252713
0.0274891
0.0248979
0.0253942
0.0254209
0.540158
1.87241
0.067208
0.0246896
5.9206
4.16967
5.82222
0.0269302
0.02472
0.0249233
0.0247689
0.0249347
4.99392
4.82768
0.111695
6.77808
0.0282541
0.0378329
0.0255392
5.60161
0.0267613
0.0246703
0.0260195
0.0420945
2.6384
0.4877
0.0256715
1.4775
0.0287192
5.39912
3.24831
5.30358
5.95651
0.100353
0.6238
12.5924
0.369958
4.75457
13.9036
0.0333243
0.0371963
0.0860937
0.675948
0.0251593
0.0352373
6.90148
0.0254156
0.456159
0.0260564
0.0259989
0.030475
0.0252341
5.29736
9.83487
0.0248121
4.54246
0.0252973
0.846588
0.0256777
0.025551
0.157469
6.5516
16.8536
0.0251
0.148528
0.0364627
0.026805
5.04901
0.0248827
0.0249133
0.0251209
0.0251445
3.76471
15.36
0.100485
5.38218
0.0371975
0.0250204
0.0269913
7.52081
0.02714
0.0257431
1.03865
0.0253037
0.0364293
0.2915
0.0909132
4.46921
0.025509
0.0327317
0.530192
0.0259573
0.151915
0.0259793
0.0357331
0.0252607
0.0343634
0.127308
7.97661
17.2337
0.0251095
5.85206
4.2196
0.0714109
0.179073
0.189109
7.77335
6.28795
0.0292939
6.82378
0.0261681
5.73639
0.0257517
0.0437322
0.0324867
1.47999
0.0247841
0.0250753
0.0261312
0.127078
7.90388
0.0264994
0.0362951
0.351882
1.60394
0.0772741
6.43364
0.0362411
1.06025
0.0255428
0.0248068
0.0251482
0.0939569
0.450036
0.0366687
0.0294036
0.045332
0.0253571
0.115745
5.68741
5.17822
9.14569
0.48135
0.0253299
1.45268
0.0249093
0.0251605
0.623952
7.28581
6.05088
7.21586
7.28642
5.991
1.12859
0.0253178
0.024939
0.334644
4.25458
3.15908
0.0615955
0.0550568
5.31476
5.3212
4.23289
5.85824
0.0254061
0.0308274
0.0288574
0.03116
0.0253015
0.0361153
0.0255058
0.0253612
0.0306213
0.0253285
0.0261431
0.0788438
0.0285611
0.033343
0.0520526
0.0349775
0.034763
3.81973
0.0251667
6.60148
0.0256526
0.0353876
3.9702
13.3301
0.350476
0.0302786
0.025264
4.8445
2.32487
5.7658
8.80422
0.0253802
0.554274
7.3211
0.0364705
0.025534
0.0288389
0.23602
8.44996
0.093836
7.01803
0.0254767
3.49515
0.0462958
5.85469
0.285071
0.0262637
4.19351
3.84121
0.0249699
13.2685
0.339353
0.029862
0.0862094
5.5026
8.42778
0.19568
5.82795
0.913413
0.0770131
0.0358382
0.025862
0.029937
6.10249
1.397
4.64909
1.59938
0.146689
0.0256645
0.322219
0.296418
0.0758784
0.0252076
0.0253603
0.025944
4.67467
4.52589
5.45023
0.266378
0.0253119
0.0310596
0.0283808
0.462145
0.0966911
0.0281985
0.0256801
1.79197
0.025357
13.3625
0.0630204
3.83856
4.78883
5.69597
0.0256516
0.208168
0.025325
1.71607
0.0250417
0.951006
4.70505
0.0338347
0.0253194
0.0477189
7.82102
0.431378
0.791683
3.63761
0.0254118
0.0252942
0.0792059
11.9014
0.0248199
0.406358
0.0247221
0.0302214
6.92572
0.228939
0.0466086
3.37123
0.255541
9.76655
0.0253175
0.0412283
0.0362161
8.98267
4.96143
0.0255186
5.08713
0.0396044
0.0256363
3.21938
0.0249093
1.61924
0.0252031
4.69578
0.0311204
5.78643
0.0494626
0.0265438
0.165073
8.7571
0.171415
5.1033
5.95628
0.0349091
0.121221
0.0246905
0.0263946
0.0254467
0.0249266
0.0285126
0.0250685
0.0255331
4.73741
0.43346
0.179078
8.95905
5.26857
0.26339
0.0384345
6.57024
0.0310803
4.58269
6.0698
3.65115
0.0280536
0.0256502
0.0819447
4.82535
0.182892
0.0251262
7.69738
0.0558201
0.647233
0.044689
5.78663
0.0284992
0.0263026
0.0338405
0.0322833
0.167464
0.0253607
0.710371
0.0377706
0.184273
0.0255492
0.0358482
5.0543
7.4203
0.0290254
0.0369992
0.0254761
0.0270101
0.319576
5.29632
14.3363
0.0444656
3.20448
0.0362742
0.0250979
0.0260517
0.478401
7.2659
0.0262371
0.025097
0.100088
1.05328
0.0587604
6.63043
0.0253006
8.42795
10.134
0.249893
8.27813
0.0254275
0.0250801
0.12956
0.0379748
4.0916
0.0310182
0.13909
0.0508996
0.033339
0.22445
0.184307
0.0248908
0.0254788
0.0372019
0.618364
5.85218
5.76223
0.0974544
0.0249397
0.163383
0.0332308
3.93395
0.233753
0.0252102
0.0322798
2.00295
0.0249118
0.0256377
0.299496
0.0254934
0.272794
0.0386612
0.0593984
8.23488
0.0253249
0.024976
0.0253265
0.02533
0.02468
0.0274191
0.025336
0.0253447
0.0253562
0.157965
0.0253673
0.0467329
0.025319
0.0253811
0.0253964
0.503564
0.0254127
0.133207
0.0254305
0.0318687
0.03135
8.59184
6.31789
6.87838
0.0254496
0.0353037
0.729465
0.164463
0.031409
0.02545
0.0280665
5.64649
0.0388397
0.0982201
0.0367899
0.102388
21.7677
0.0908691
0.0250867
0.0254354
2.22232
0.964133
0.0285914
0.025303
0.0383942
5.32668
0.345172
0.156453
0.0333226
6.95101
0.453427
0.0268691
0.0254917
4.37093
7.39917
0.025471
0.0363339
5.87873
6.44956
0.170431
0.0248893
0.0382948
0.0249185
6.54931
0.0250162
6.37838
5.91306
0.0337284
7.14333
0.0248358
0.143967
0.0253
0.0261436
0.0605062
4.20022
0.0303517
0.0712565
0.0506254
0.0403126
0.0246616
0.0249577
0.0272661
0.0247203
0.0331608
0.0262422
6.1584
0.0253669
0.0248848
6.62473
0.0476971
7.79669
0.210424
6.781
0.0278928
0.0250054
6.98295
4.45136
5.85061
6.06526
0.0350343
0.486834
0.138756
0.0252127
5.76805
0.025516
5.92317
4.06975
6.16535
6.69612
0.0366508
0.0526736
7.25642
5.87069
0.024723
2.61098
0.0541997
3.9092
1.05625
0.08115
0.0253289
0.934617
4.82071
11.3219
0.0377699
0.551568
0.0290081
7.5024
6.38999
8.93997
0.0252695
0.176236
0.0326829
6.21982
5.85725
6.02271
1.76317
0.0580302
9.72856
0.0288333
0.985332
0.0415998
0.0376358
0.0252387
0.133073
0.0261488
0.0361487
3.75911
6.04398
0.0336952
5.36453
0.0359424
1.45849
0.0518051
5.61352
0.0259972
5.51832
0.0371097
8.23707
0.0249801
0.036474
0.02526
0.0562997
0.122575
0.0345773
6.26422
0.228947
0.479854
0.595192
0.0388305
0.0254871
0.0252868
5.88451
0.0252598
3.46167
4.27616
0.213496
0.0294482
0.651208
0.0253549
0.0416118
0.0307716
0.0439288
0.0341464
4.08965
0.0493821
0.57435
0.0256705
0.0278338
0.0314225
0.0301722
0.0284028
0.153013
0.0254904
0.0252377
6.05814
0.0252341
0.131497
0.208091
9.51909
3.28281
5.23105