/*--------------------------------*- C++ -*----------------------------------*\
| =========                 |                                                 |
| \\      /  F ield         | OpenFOAM: The Open Source CFD Toolbox           |
|  \\    /   O peration     | Version:  v2012                                 |
|   \\  /    A nd           | Website:  www.openfoam.com                      |
|    \\/     M anipulation  |                                                 |
\*---------------------------------------------------------------------------*/
FoamFile
{
    version     2.0;
    format      ascii;
    class       volScalarField;
    location    "100";
    object      p;
}
// * * * * * * * * * * * * * * * * * * * * * * * * * * * * * * * * * * * * * //

dimensions      [0 2 -2 0 0 0 0];


internalField   nonuniform List<scalar> 
14804
(
-0.0149684
0.0211468
-0.0192972
-0.0196199
-0.0276415
-0.0331339
0.00333951
0.0535438
-0.0168718
0.0255019
-0.100132
-0.0197387
0.0628122
-0.0220375
-0.122355
-0.271851
-0.0284491
-0.0194535
-0.0150463
-0.0193352
0.0329638
0.0208652
0.0501549
7.89575e-05
-0.0446291
0.00132229
-0.0190308
-0.0254504
-0.0143142
-0.00622035
-0.00146842
0.0694919
-0.0192668
-0.0436173
-0.0176939
0.00225579
-0.0204368
0.0292802
-0.260809
-0.0204694
-0.0189526
-0.017883
0.241866
0.0380193
-0.026903
0.0755411
-0.0177428
0.0502165
0.0205526
-0.15372
0.064231
0.00768298
0.032485
-0.0149924
-0.151288
-0.0148039
-0.0123494
-0.0146962
0.0354899
0.0777937
-0.0168729
0.0657214
0.0364209
-0.0151632
0.0367855
0.0330369
0.0329604
0.0100657
0.0243522
-0.00186331
-0.00366255
-0.0189343
-0.110815
-0.0078199
-0.00960587
-0.00288583
-0.262175
0.0208468
0.174585
0.00569539
-0.2087
0.0327633
0.00591364
-0.00943967
0.0280326
-0.0537917
0.0153675
-0.0121609
0.01833
-0.026013
-0.0384116
0.0466684
-0.0177138
-0.00259187
-0.162709
-0.26022
-0.0144248
0.0706953
0.0150527
-0.103855
-0.0157527
-0.00793944
0.0281869
-0.0224199
-0.0162315
-0.00522362
-0.0197115
-0.132452
0.039324
-0.00188794
0.0386234
-0.0168584
-0.0176592
-0.190531
-0.0186466
-0.206512
-0.0142501
-0.0398309
0.0276837
-0.019846
-0.254534
0.0181841
-0.00583912
-0.0332545
0.0350409
0.0292519
-0.0137694
-0.0221515
0.0529445
-0.0317009
-0.0316159
-0.0875272
-0.0032184
-0.0888813
-0.0109342
-0.0324197
0.0387297
-0.0648117
-0.00648859
-0.0454311
0.0266283
-0.296155
0.00744984
-0.258907
-0.0183705
0.0245469
-0.0164518
0.038836
-0.0356067
-0.0120849
-0.0168271
-0.015574
-0.0204317
-0.0218419
0.00597789
-0.0153685
-0.0188896
-0.144704
-0.00635102
-0.034527
0.022947
0.0228424
-0.0051443
-0.0428447
-0.0180152
-0.0161573
0.0506752
-0.0153784
-0.00689108
0.0535399
-0.0112723
0.0380313
-0.0260677
-0.117488
-0.0102103
-0.0907554
0.172818
-0.045426
0.0118689
-0.0122023
-0.0322953
-0.048114
0.001806
0.141635
0.0469899
-0.00777544
-0.0578447
-0.0564314
-0.0222878
0.00877018
0.255463
-0.0152511
0.0196051
-0.0487917
-0.0202733
0.0322678
-0.00642779
0.06141
-0.0811639
-0.00310817
-0.036151
0.0084971
-0.0132819
-0.101448
0.0803378
-0.00531735
-0.018835
-0.0525286
-0.0411231
0.00466942
-0.00636044
-0.0182837
0.00865205
0.0228073
0.030658
-0.00686847
-0.0218135
0.0288944
0.044273
0.036406
0.135394
-0.0175128
-0.0842608
0.040048
0.00270713
-0.0651757
-0.0192109
-0.014206
-0.00608903
0.018714
-0.00211243
-0.0122513
0.0449013
-0.00792268
-0.00879702
0.0286016
0.0718164
-0.0189217
-0.0697177
-0.0134459
-0.297544
-0.0588143
0.0165199
0.0373473
0.00807256
-0.0541128
-0.0270321
-0.0178519
0.0554676
-0.00215396
-0.293048
0.0323911
0.022913
0.0209044
-0.00783936
0.0798572
0.00949768
-0.0159018
-0.00330042
0.0332089
-0.0111815
-0.0226843
0.0574023
0.0582439
-0.117495
-0.00407356
-0.018681
0.00840957
-0.00490694
-0.00774762
-0.0457901
-0.274259
0.027822
0.034786
-0.293792
-0.124582
-0.0125416
-0.0174099
0.218764
-0.00496839
-0.0191859
0.0200798
-0.0145036
-0.0159988
-0.0755901
-0.0641528
0.210969
-0.012434
0.133976
-0.0117385
0.0286103
-0.00255055
0.0184569
-0.00961218
-0.033394
-0.217152
-0.0880797
0.0674899
0.028427
0.139086
0.0119585
0.0223885
0.123674
-0.0192043
0.179159
0.00267668
-0.253986
-0.00681306
-0.115182
-0.220879
-0.00331831
-0.00978344
0.0753668
-0.0114815
-0.00744996
0.0321287
-0.0113943
-0.0968161
0.00667002
-0.271011
-0.0204159
-0.0149267
-0.0149293
-0.00342624
-0.00882995
-0.019377
-0.118984
0.0346048
-0.170271
-0.00569518
-0.022828
-0.0200848
0.169901
0.0748215
0.0329571
-0.00119473
0.022783
-0.253186
0.0604494
-0.0256916
0.033371
-0.00781865
-0.0279879
0.0641726
-0.00245265
-0.012923
-0.0429922
-0.00537144
-0.016647
-0.0372784
-0.0226412
-0.0158821
0.03215
0.00878738
0.061599
-0.020297
0.0186928
-0.0135411
0.00311763
0.0229546
0.0569986
-0.0564592
-0.0194915
-0.0678877
-0.0834599
-0.0113233
-0.0121395
-0.0378486
-0.0427737
0.034513
-0.00547422
0.0339122
0.0577902
-0.00673504
0.0201593
-0.301431
0.00848936
0.0422045
-0.00914271
-0.115066
-0.0651897
-0.0220326
-0.0765315
-0.0742052
-0.0267854
0.0334402
-0.200812
0.0738998
0.0298729
-0.270428
0.130022
3.49941e-05
0.0580988
-0.0148849
-0.0613655
-0.00602776
-0.0159899
-0.0199253
-0.233867
0.0338726
-0.110597
0.0326502
-0.121867
-0.293813
-0.0358813
0.0968258
-0.0168178
0.0629692
-0.0192537
0.0316104
0.00256711
0.123023
-0.292083
0.0254523
-0.00981943
-0.114432
0.0358532
-0.0227048
0.00175848
-0.0140562
-0.100256
-0.0279177
-0.00057913
-0.259188
0.0938176
-0.019249
-0.0800414
0.172694
-0.0170709
-0.00132132
-0.0079421
0.0186809
-0.20722
0.0294933
0.00601478
0.0466847
0.0122273
-0.0136734
0.0292504
0.0542187
-0.0203335
-0.0427729
0.0097226
-0.00353996
0.0143934
-0.0174788
-0.205263
-0.0753235
-0.060918
-0.00715248
-0.00652436
-0.00422302
-0.00858488
0.0319692
0.0084738
0.0294419
0.00848842
-0.144086
-0.0166299
0.0317678
-0.191569
0.0140044
-0.141755
-0.038662
-0.0222942
-0.172753
-0.021961
-0.00755997
-0.0274639
0.0659316
0.0284312
0.117361
0.0104121
0.012071
-0.19327
-0.0192939
0.0611634
-0.0360715
-0.00581769
-0.0257573
-0.0311179
-0.020947
-0.00863435
-0.0174794
-0.0091072
0.105765
-0.208271
0.0482218
0.00914008
-0.0433072
0.109197
-0.0205493
-0.0487548
0.0111523
-0.0203316
0.0321122
0.0466321
-0.00972474
-0.0320752
0.0293457
-0.104368
0.0549596
0.0261786
0.114425
-0.0176901
0.0381137
0.0336067
0.0150627
0.00227365
-0.00817362
0.0377817
0.0644224
-0.177463
0.0216082
0.0237251
-0.21657
0.0365296
-0.166236
0.00561131
-0.0129398
-0.00962968
-0.0212727
0.0589443
0.036088
-0.0198685
-0.0128667
0.00614338
0.04944
0.0146147
-0.0202118
-0.00114974
-0.0418323
-0.025638
-0.00944516
-0.206849
-0.0194358
-0.149691
0.0335799
0.00539
-0.0513596
0.0327546
-0.0172976
-0.115844
0.126555
-0.0134406
-0.00533646
0.0225798
-0.238596
-0.0504242
-0.0162301
0.0986738
-0.15258
-0.0679678
0.00600908
0.0198751
0.0231091
-0.129241
-0.10024
-0.207882
-0.257623
0.0332171
-0.0215259
0.227263
-0.0140841
-0.019128
-0.0171821
-0.0248016
0.000662445
-0.0169735
-0.0714601
-0.0396379
-0.0147542
0.00644367
0.0229735
-0.00264274
-0.0330483
0.0176809
-0.0143137
0.0301374
-0.0146083
-0.0375727
-0.0178878
0.265577
0.00110792
0.0332696
-0.00542078
-0.0117183
-0.014286
0.0197602
-0.00303168
0.0223389
0.0258815
-0.0221499
-0.0226758
-0.108598
-0.250397
0.0362028
-0.00753998
-0.0208668
-0.0391418
0.0127494
0.00690925
-0.00129074
-0.159303
0.0393595
-0.0753294
0.00494549
-0.107781
-0.00443088
0.017542
0.0361891
-0.0369643
0.0301352
0.00593058
-0.0493981
-0.00768078
-0.0182024
-0.0466621
-0.051421
0.0289643
-0.0975491
-0.262902
-0.0408075
0.0309735
-0.0115025
0.0180119
-0.0114257
0.0376881
0.0339989
-0.0193085
-0.0167435
-0.0111523
-0.0217407
0.0333783
0.00279493
-0.00875238
0.0265989
-0.24003
-0.151426
-0.0206177
0.0164858
0.0406812
-0.0189494
-0.0266207
0.0290787
-0.0983062
0.182425
-0.0221097
0.0380481
-0.267134
-0.0146813
-0.161272
0.0383746
0.107857
0.00565275
-0.00589009
0.0738058
-0.00514657
0.077982
-0.0079706
0.113489
-0.056187
-0.0167162
0.0107745
-0.0748808
-0.237602
0.0230438
-0.0197081
-0.0525067
-0.027576
0.0773648
-0.0072017
0.00566715
-0.0455181
0.0158616
-0.0479557
0.0186505
0.000717106
-0.0132724
-0.0323912
-0.0641757
0.0458556
0.0114345
0.00665577
0.0322453
0.166484
-0.158045
-0.0440084
-0.131532
-0.0123067
-0.077108
0.0427959
-0.013474
0.0203383
-0.00789831
0.00366567
0.0218116
0.0458726
-0.0189927
-0.0776086
0.0153998
0.101914
-0.0441382
-0.104059
0.0443433
-0.0139826
0.0201117
-0.0142784
-0.0192072
-0.0298219
-0.0194949
0.0253118
0.0531858
-0.20327
-0.00948429
0.0295059
-0.0170132
0.0459994
0.00925468
0.0377848
0.0326681
-0.01502
0.0124082
0.0522647
-0.000916916
-0.0107951
0.0408115
-0.0498056
-0.011804
0.0166651
0.0399325
-0.0457056
-0.043686
-0.238339
-0.0206153
0.0228736
0.0330685
0.0217955
-0.0179017
0.125237
-0.0653146
-0.0306083
0.00652833
-0.0202681
-0.015487
0.0222483
0.0263779
0.0228757
-0.000998732
-0.0386773
0.0143726
0.0102966
-0.0941979
-0.027718
0.0987657
-0.00297308
-0.0125126
-0.294556
-0.023915
0.010169
-0.0234028
-0.0167823
-0.0744089
-0.00893319
-0.0966316
-0.0167086
-0.30461
0.0372188
0.0105595
-0.12096
0.0189951
-0.106815
-0.00987554
0.0259418
-0.106991
-0.0188345
0.264387
-0.0182739
-0.114167
0.0295392
-0.0177483
0.0206051
0.0474781
-0.0161524
-0.00675217
0.0329771
-0.29475
-0.0749983
-0.0194147
-0.0209202
0.0178851
-0.00463169
-0.191559
0.00665522
-0.0288597
-0.0102261
0.0186685
0.00898785
0.0358758
0.0471784
-0.00919347
-0.0205464
-0.202939
-0.0135996
0.0183872
-0.0414821
0.112458
0.0066186
0.00149172
-0.0457184
-0.0162996
-0.00526995
-0.0664948
0.0197413
0.0271602
-0.0486124
-0.0147291
-0.0135897
-0.096215
-0.016228
-0.0095491
0.048495
-0.0157612
0.0291278
-0.278205
-0.0340818
-0.00220354
-0.0181296
-0.0148455
0.037734
0.0294984
0.00368086
-0.0135592
0.0205678
0.0412062
0.0172638
-0.00183494
0.013198
0.0123718
-0.299647
0.0167728
-0.00203471
-0.0174085
0.0438502
-0.117501
0.0250138
0.0362673
0.0111569
0.0485985
0.168834
0.0272134
0.0218947
-0.014663
-0.0519771
0.0279779
0.00316541
-0.0438272
-0.0161928
0.0310949
-0.0048474
0.00216719
-0.0165779
0.0100415
-0.0603136
-0.0515519
-0.0224529
-0.14554
-0.122706
-0.00170796
-0.20229
0.00599884
-0.0183293
-0.032932
-0.0179475
0.0374177
0.0457392
-0.0463138
0.060563
-0.00677764
0.027066
-0.0228498
-0.0114017
-0.267891
-0.0897927
0.0340539
-0.0158417
0.025791
0.0161853
-0.0173089
-0.21607
0.0624566
-0.137795
-0.0188369
0.0396068
-0.0201446
0.0294572
0.0249555
0.0477379
0.0190552
0.0221916
-0.126654
0.0363891
-0.045494
-0.0123515
-0.300616
0.0321875
-0.0484693
0.00586691
0.174567
-0.0185637
-0.072283
-0.0306524
-0.0735326
-0.0274176
-0.0160837
0.0306407
-0.0193951
-0.0517171
0.102948
0.0136918
0.00931115
-0.204444
-0.01897
-0.049603
0.00149262
0.0194336
-0.108427
-0.0182033
-0.0181851
-0.00984361
-0.0271138
-0.02876
-0.203709
0.00354295
0.0255825
-0.00565533
-0.0327528
-0.110814
-0.022351
0.0362634
0.00728503
-0.018153
0.00943814
-0.0181814
-0.0139327
-0.0188728
0.00646571
-0.0206491
0.0274671
-0.187824
-0.00180579
0.00638066
0.116533
-0.0948768
-0.0157261
-0.0686789
0.0257379
-0.0103462
0.137424
0.0138119
-0.00401183
-0.0192862
-0.11774
0.0683215
0.00371297
-0.0184557
-0.0237147
-0.0211662
-0.0140646
0.0231905
-0.069849
-0.00661083
-0.00797704
-0.00651768
0.03429
0.0613696
0.0363204
0.0330604
-0.226606
0.0390778
-0.00637313
-0.204424
-0.00750815
-0.0250018
-0.00853133
0.0345578
-0.0430114
0.023128
-0.194835
0.104279
-0.024884
0.0277937
0.0354122
-0.0215508
-0.0235829
-0.0453452
-0.0227648
-0.00928609
0.00635696
0.0273042
0.0539498
-0.0153745
-0.0187717
-0.203066
0.0351545
-0.00914892
-0.0350439
-0.0637724
0.0105664
-0.0087476
0.0213848
-0.00696641
-0.116679
-0.0511653
0.00629376
-0.0519349
-0.178253
-0.018707
-0.0504115
0.0181203
0.0339595
-0.156348
0.0116441
-0.0194627
0.0317241
-0.0192031
-0.0198135
0.0369148
-0.264541
0.00288643
-0.00865203
0.0138007
0.0559657
0.00664045
-0.0160769
-0.0146691
0.0107271
-0.129369
-0.103269
0.0677794
-0.0107363
0.0285514
-0.200581
-0.0143909
-0.0956734
-0.0152682
0.0365103
-0.0127867
-0.128704
-0.0138113
-0.0141356
-0.0139165
0.107568
-0.00514804
-0.107399
-0.0165722
-0.212682
-0.0117225
0.194113
-0.011564
-0.0137099
-0.00718659
0.0262385
-0.0054482
-0.00466028
-0.134342
-0.0294157
0.00718622
-0.0158332
-0.0307783
0.0392006
-0.0828274
0.00660315
0.0381356
-0.130496
0.0385036
-0.0243297
-0.0301702
-0.0152172
0.0373815
0.0297766
0.00626484
0.0645812
0.0386353
-0.127817
-0.210197
0.236225
-0.014165
0.00876232
0.0173466
-0.00118263
0.0317948
0.12044
-0.0273694
-0.223153
-0.0378933
0.0704889
-0.0492054
0.002194
-0.00114639
0.000890963
-0.197298
-0.0105408
-0.00843853
0.0327363
-0.0192324
-0.00794195
0.0297809
0.0292401
-0.00995214
-0.281456
-0.0207617
-0.00804369
-0.0227761
-0.0203861
0.0545357
-0.0159133
0.0250463
-0.0727018
-0.0486683
-0.0191422
-0.190135
-0.249695
0.0362506
0.032876
0.107339
0.0279779
-0.0470988
-0.0126941
-0.0180146
0.0483024
-0.00736534
-0.0664071
0.000249422
0.0353893
-0.00661377
0.00241463
-0.129379
0.019917
0.0341313
-0.00125725
-0.135489
0.0314326
-0.0860883
0.0324303
0.0278049
-0.0140436
-0.0338644
0.0489753
-0.0143012
-0.0106566
-0.212316
0.0276901
-0.113245
0.0226854
0.0160572
-0.00488397
-0.0353186
0.0128611
-0.00903038
-0.0231853
0.0519314
0.0483014
0.00584745
-0.00991145
-0.0457128
-0.0142327
-0.185911
0.0173426
-0.033676
-0.0217035
0.00313936
0.00703263
-0.101492
-0.00172051
-0.00497142
0.0162837
-0.248642
-0.246882
0.118328
0.030811
-0.0223497
-0.0170788
-0.00205666
0.0141439
-0.0189075
0.0276204
0.0194985
0.032473
-0.292352
-0.0099898
-0.0147441
-0.304556
-0.0200103
0.0145274
-0.0107936
-0.0532057
-0.0163432
0.00974021
-0.00514902
0.0366786
-0.027901
-0.0160037
0.108604
0.00458896
0.0143021
-0.218726
-0.020824
-0.0215868
-0.130152
-0.0296225
0.0299196
-0.305317
-0.000499123
-0.0306189
0.0221284
-0.00777048
-0.188236
-0.0972551
-0.0218025
0.016794
-0.00174282
0.0242383
0.039159
0.00605212
-0.237575
-0.278957
-0.00555225
0.247792
-0.0350834
-0.0157983
0.0330222
-0.158378
-0.0168428
-0.296116
-0.00444971
-0.0280817
-0.0674298
0.0292752
0.0107959
-0.0349481
0.00171923
0.0422832
-0.0181219
-0.0135791
0.0490355
0.0250114
-0.0342244
-0.0174891
-0.017341
-0.0122989
-0.0461469
0.0100409
0.00397866
-0.01845
0.00913629
0.0242142
0.0187945
-0.0227116
-0.0838228
-0.0082822
-0.019836
-0.0108669
0.0368735
-0.0230083
-0.140404
0.0246829
0.0113668
-0.0721731
0.0835865
-0.0407681
-0.00796292
-0.115517
0.0318342
-0.000733979
0.00645935
-0.00978685
0.0161108
-0.0241438
0.0417625
-0.0170061
0.0327781
-0.00898822
0.0785142
0.0846128
-0.102728
-0.0096671
-0.0595139
-0.0198782
0.02807
-0.0292332
0.0382209
-0.0718428
0.0237815
0.00704695
-0.0479296
-0.00775179
0.0121446
-0.00756225
-0.00712718
-0.0182542
0.0281834
-0.00793874
-0.0184154
0.0686745
-0.0140621
-0.0172513
-0.0200008
-0.24876
-0.011513
-0.0191118
0.041652
-0.00464115
-0.0157314
-0.00682023
-0.0129536
-0.0175048
-0.0144647
0.058794
-0.121332
-0.0437821
0.0257704
-0.00217045
-0.011246
-0.0423384
-0.253368
-0.133034
-0.00623946
-0.0183692
-0.0783715
0.0288252
0.0488015
-0.073878
-0.0263598
-0.0273258
0.025098
0.0045117
0.0366337
0.033782
0.0293541
-0.0196986
-0.00892179
0.0278143
-0.0240372
0.111349
-0.0183663
-0.011093
-0.00379283
0.0104641
0.0240284
0.0349788
-0.00595153
-0.00816109
-0.242258
0.00621671
0.0112144
-0.0177801
0.0065729
-0.163381
0.00247053
-0.0122392
-0.00397296
0.0122212
-0.0193341
0.0414685
-0.0483659
0.0294418
0.104184
-0.00635453
-0.208264
0.0317989
-0.0305447
0.104409
-0.305011
-0.071385
-0.00186058
0.0822483
-0.110354
-0.00820997
-0.195598
0.0215974
0.0763974
-0.0129883
-0.117887
-0.0225182
0.127065
-0.0518915
0.0621283
-0.0153479
-0.304808
-0.0473753
-0.0200812
-0.196943
0.0681467
0.0810935
-0.00102124
-0.00914679
-0.0110173
0.0383036
-0.254483
0.0662223
0.0598247
0.028791
-0.0271332
0.0248392
-0.0458383
0.0370268
-0.0661126
-0.0202325
-0.0231856
0.0424933
0.05409
-0.0164251
-0.14124
-0.00585796
-0.0700224
0.0193739
-0.125142
-0.0236453
-0.122858
-0.0225836
0.0837856
0.0323656
-0.0237063
0.0234556
-0.011055
-0.135261
0.0667177
0.0331742
-0.00698792
0.0174123
0.00181326
-0.0202442
-0.0167148
0.0674171
-0.0188542
-0.0154921
-0.223607
-0.0167616
-0.153373
0.031183
0.00960858
0.034104
-0.0194587
0.034979
0.0231745
0.0134816
0.0355825
0.0107726
-0.0182961
0.0505698
-0.0328201
-0.254628
0.0319637
-0.0323558
0.00907394
-0.0163669
-0.00563573
-0.059708
-0.00844605
0.0364066
-0.0188816
0.00363281
0.00231352
-0.00585692
-0.0478721
-0.131845
0.00735021
0.00104423
0.0352471
-0.0136732
-0.0218978
-0.0918497
0.00340852
0.0305491
-0.00838612
-0.240193
-0.119291
0.0411712
-0.0185502
-0.19516
-0.0684033
0.088391
-0.0204225
-0.0277578
0.00136533
-0.00202213
0.0248964
0.00799232
-0.189243
-0.289165
-0.102281
-0.0284511
-0.015461
-0.0356451
-0.0170397
0.0377995
0.0291386
-0.173547
-0.018292
-0.0262771
-0.0267413
0.0344839
-0.0386273
-0.0282126
-0.0151306
0.0719216
-0.251581
-0.0146138
0.00803193
0.198358
0.0742319
0.0136057
0.0278154
-0.0061451
0.0350632
-0.0154741
-0.0354512
0.0829943
-0.00220733
0.0307476
-0.00993483
0.0685972
-0.0563203
-0.116131
-0.245648
0.0131485
-0.021772
0.0823056
0.000314106
0.0145645
0.0797734
0.0546778
-0.0697209
0.00217609
-0.159343
0.0509006
0.0277209
0.0179777
0.0344058
-0.0175196
-0.0163457
-0.0258791
-0.018393
0.00913529
0.00781736
-0.019452
-0.00330852
-0.0299293
0.0297035
-0.0176362
-0.00902595
-0.0567834
0.0239017
-0.0198945
0.200064
-0.248952
-0.0255557
-0.0121326
-0.00833976
0.00462583
-0.0492434
0.0182879
0.0351795
-0.0134283
-0.0297949
-0.0456654
-0.24416
0.0239647
0.0179743
-0.0183483
-0.0187678
-0.230887
-0.19057
-0.0746003
-0.016563
-0.0533806
0.0778199
-0.121403
0.0252048
-0.0310834
-0.0221493
-0.0128476
-0.0376835
0.00925826
0.0267808
-0.0324354
0.0492736
-0.00708874
-0.0227455
0.0510277
-0.0222323
-0.00470423
-1.20496e-05
-0.302904
0.070821
-0.00073007
-0.0196565
-0.0186147
0.0706356
0.0319907
0.0338744
-0.0170676
0.0679225
-0.0478153
-0.00422576
-0.0183384
-0.261752
0.0279799
-0.0625643
0.00074476
-0.00668369
0.0455777
-0.0252934
-0.0110577
-0.12856
-0.00733486
0.0237394
0.0214838
0.00631406
0.0473569
0.0303541
-0.0206868
-0.0913689
-0.0145791
-0.0195849
-0.0119699
-0.00608635
-0.301684
-0.00639554
0.00328414
0.0316116
-0.0340379
0.0818182
-0.00836778
-0.0242095
0.00813415
-0.113613
-0.00597752
0.0224078
0.00927349
0.0161614
-0.00958414
0.126618
0.0268199
0.0277181
0.0488904
0.0468377
0.0378299
0.00880147
-0.015833
0.00806876
-0.0216651
-0.0182796
0.0819441
-0.0263646
0.0164468
0.0381196
-0.0661178
0.0320243
0.0303373
0.0308159
-0.192044
0.0205952
0.128805
-0.0101822
-0.0240385
-0.256259
0.00997579
0.0278599
0.0346731
-0.259661
0.0211092
-0.0228801
-0.164323
-0.302923
-0.155985
-0.0611161
-0.1084
-0.218161
-0.051012
0.00763784
-0.0939809
0.0335638
-0.0200377
-0.252393
-0.0735517
0.0153465
-0.00732806
-0.00072185
-0.168875
0.0100258
0.00495153
0.000603844
0.0373946
-0.0175867
-0.0171802
0.0337064
-0.0265085
-0.121369
0.013157
-0.116644
0.00403081
0.0274266
0.00751322
-0.0242449
-0.166559
-0.0276927
-0.034571
-0.0935218
-0.152743
-0.0748148
-0.218341
-0.296774
-0.175258
-0.213904
0.00642705
-0.0198227
0.0252011
0.0611471
0.0348505
-0.00139626
0.0434733
0.0818891
-0.284251
-0.0127515
-0.0165407
-0.0160698
-0.0288266
0.0189329
-0.0187899
0.0671767
-0.00906553
-0.0168592
-0.0259481
-0.121857
0.12389
0.0297062
-0.0195099
-0.179736
-0.136565
-0.00848087
-0.133678
-0.0117309
0.121918
0.0362166
-0.00871437
-0.0140259
-0.0265664
-0.0292391
-0.238462
0.0290681
-0.150958
-0.292795
-0.246811
-0.0176536
0.0314517
-0.000561406
-0.0803856
-0.0194887
0.0483971
-0.00935224
0.035444
0.0127645
0.0676109
0.0620357
-0.017961
-0.00248231
-0.0944812
0.00968694
0.00625596
0.0339165
-0.0697795
-0.186083
0.0416141
0.0222683
-0.0191668
0.0355981
-0.0210478
-0.0132815
-0.0108355
-0.293698
0.0220898
-0.01958
-0.0943868
-0.06751
0.0117251
0.0434038
-0.288174
-0.00487398
0.00894566
0.00911087
0.0186191
-0.00541714
-0.00827731
0.00874802
0.047845
-0.0284266
-0.0220122
-0.0104
-0.0138632
-0.0164737
0.00033166
0.163021
-0.00796718
-0.229751
-0.00444959
0.0329121
-0.0170016
-0.024996
0.0238658
0.0192375
-0.0269558
-0.0321424
0.0251237
-0.0150446
-0.117949
-0.0327662
-0.00425418
-0.00579319
-0.00751101
-0.0171348
0.078839
0.068025
-0.00568329
-0.180399
-0.00217836
-0.0409634
0.0101266
-0.0248522
0.0258584
0.0548313
-0.303334
0.0573521
-0.0380242
0.0831987
-0.0300062
-0.0309899
0.0271235
-0.0656736
-0.017758
-0.00810502
-0.0215162
0.0249351
-0.0379043
-0.280108
-0.00531997
-0.232211
-0.000248255
-0.190089
-0.0890244
-0.018701
0.0447813
0.0416478
0.121772
0.0158773
-0.115306
-0.0118634
-0.00847879
-0.00742225
-0.0668021
-0.0786488
-0.143614
-0.00918443
0.00512466
-0.0119273
-0.0661099
0.0324078
-0.00776461
0.00638237
-0.023201
-0.0686989
-0.0102427
-0.021364
-0.0363756
0.0293625
-0.0107386
0.00154045
0.0566978
-0.176083
0.0102289
-0.0670421
0.00698069
-0.0168612
-0.0816061
-0.0226728
-0.0381865
0.0163971
0.0144014
-0.0203958
0.0513725
0.0129185
0.036968
-0.0350528
-0.10589
-0.0230227
-0.0492828
0.0279477
0.0214492
-0.0222848
-0.00639424
-0.113817
-0.0167369
-0.00907517
-0.0229913
0.0350632
-0.0156653
-0.0795364
0.0679045
0.0337566
0.0403445
-0.067638
-0.027668
-0.0203777
0.070119
0.0389833
-0.0132967
0.0257918
-0.00577382
-0.00797271
0.0247505
0.00304876
0.0107302
-0.0386431
-0.0796767
-0.0145976
0.0171565
0.0259616
-0.0143454
0.0254394
0.0147209
-0.0189231
0.088459
-0.0178955
0.000112196
-0.0286928
-0.0419021
-0.0142209
-0.0201408
-0.140216
-0.0135924
0.0226803
-0.00821147
-0.142596
-0.0817626
-0.0196001
-0.0188372
0.0516057
-0.00376108
-0.0227645
-0.00527661
-0.0116661
0.035593
-0.0705581
0.0336798
-0.0359095
-0.0512367
-0.0177066
-0.00602499
-0.189545
-0.298909
0.00549852
0.0410082
-0.0358015
0.0381863
-0.000754415
-0.0245056
-0.0596235
-0.0354092
0.0330084
0.00454714
-0.0615626
-0.0385843
-0.0332684
0.101049
-0.0396031
0.0655551
-0.0590991
-0.0636984
-0.1271
-0.12715
-0.0185732
-0.0739773
-0.02091
-0.0213943
-0.153746
-0.0168923
-0.0453476
0.0336548
0.0132742
0.182847
0.0378258
-0.0315522
-0.167733
-0.0451733
-0.0196272
-0.0335206
-0.0238639
0.0840487
-0.00989769
0.020935
-0.155055
0.216709
0.0307769
-0.0144262
-0.0137062
0.184672
-0.0615703
-0.0133599
0.106333
0.0313371
-0.065665
-0.0195731
-0.0145761
-0.0495048
-0.0396282
-0.0210277
-0.0196807
-0.0221657
-0.0717469
-0.199995
-0.0102701
-0.0149858
0.00567368
0.0144298
-0.0258622
-0.0187098
0.0837274
-0.0167159
-0.163689
-0.0208545
0.0384181
-0.0196401
0.0018147
0.0461387
-0.0163768
-0.130064
0.0288416
-0.00532292
0.030143
0.0233317
-0.0661546
-0.0186184
-0.0192009
0.0250104
0.0828234
-0.0476041
-0.018702
0.0410411
-0.0226493
-0.0185036
-0.0180334
-0.132408
0.0601481
-0.0324801
-0.0634955
-0.0185977
-0.244619
-0.0131381
-0.0192337
-0.0265105
-0.0371175
0.0129586
0.044748
0.00237327
-0.021596
-0.164682
-0.0169302
0.10404
-0.0643527
0.0358136
0.0127491
0.0340873
-0.0176208
-0.0197675
-0.0323732
0.0610216
0.0535284
-0.00320133
0.0248744
0.00873662
-0.0414486
0.0278361
0.0314264
0.0238793
-0.00544933
-0.00350511
-0.0183886
-0.0294322
0.0562178
0.00686697
-0.0202433
-0.0100969
-0.0153452
-0.00347148
-0.226844
-0.01373
0.028834
-0.0611337
-0.246719
-0.226973
-0.0645882
-0.26891
-0.0157072
0.0274109
-0.0176382
-0.0220896
-0.00614175
-0.0114233
0.0196877
-0.0107794
0.090876
-0.0052206
-0.0191838
-0.0162988
-0.0364029
-0.0274849
0.0371985
-0.27429
-0.090849
-0.010593
-0.0570035
-0.223517
0.0342117
-0.0387629
-0.035841
0.00258273
0.0224652
-0.0108896
0.00767776
0.0382887
0.0706338
-0.154279
-0.0041838
0.0167691
-0.0198758
0.0738592
-0.00715377
-0.114559
0.0378646
0.0125159
-0.00790543
-0.128582
-0.0587197
0.00740101
0.014569
0.0110834
-0.0527455
-0.021445
-0.0197095
0.000690398
-0.0164595
-0.127429
-0.0349165
0.0147907
-0.0189786
-0.0343933
0.000220786
0.098114
0.0377344
0.0517866
-0.0288481
-0.0457242
-0.0360703
-0.0478648
-0.0195157
-0.0104576
0.188144
-0.0164828
-0.0179895
0.00482922
-0.104515
-0.0187306
-0.0117364
-0.0207567
-0.012713
-0.0187121
-0.24388
-0.0215311
0.0069365
0.045
-0.0180277
-0.0564471
0.0937316
-0.0492083
0.102785
0.016379
0.0730129
0.0109689
0.0318104
0.0153047
-0.0178989
-0.0739096
-0.03034
-0.0148402
-0.00708875
-0.0145712
0.0193364
0.0497184
-0.0514995
-0.0127785
0.104793
-0.00807905
0.0504315
0.173325
0.0244032
0.0345859
-0.0268568
-0.0138904
-0.00614609
-0.0404627
-0.132813
-0.028162
-0.0143016
0.00966512
-0.0322559
0.0332268
-0.291622
-0.0164507
-0.0120779
0.0524557
-0.0343353
-0.0298129
-0.0175219
-0.00530632
0.0074596
0.00284737
-0.0151638
-0.0159315
-0.0142049
0.0509949
-0.0391623
-0.0235938
-0.0157548
-0.164142
-0.190016
-0.0176192
0.00352743
-0.235255
-0.0115386
-0.0216383
0.0397544
-0.021139
-0.0176979
-0.0315017
-0.0113805
-0.00357546
-0.0191358
-0.0197396
0.0248319
-0.00391347
-0.020833
-0.0164039
-0.163214
-0.205071
0.0375176
0.015005
-0.0160741
-0.157478
0.00975314
-0.0284442
-0.0169157
0.024273
-0.043525
0.239007
-0.00916657
-0.296915
0.0400147
-0.132078
-0.0195067
-0.019243
0.0153354
-0.00192149
-0.0189307
0.0637566
0.0595433
-0.0180857
-0.0260567
0.0156819
-0.0463182
-0.0185562
-0.00662674
0.0249769
-0.258405
0.0286845
0.0620834
-0.0183977
0.0203951
-0.00993073
-0.111163
0.00711376
-0.0231143
0.0503222
-0.0065837
0.0265306
0.0292282
-0.0204993
-0.0216935
0.0313846
-0.0122694
-0.0870973
0.113925
-0.0286375
-0.0206183
-0.000266626
-0.00986895
0.020112
0.0595689
0.0233504
-0.00211959
-0.0199847
-0.020329
0.0326695
0.0473641
0.0398333
-0.112361
0.0336604
0.0737261
-0.141579
-0.0259413
-0.292222
-0.0191091
0.0145469
0.0447898
-0.290473
0.0302493
0.0450105
-0.132006
-0.0192756
-0.0280959
0.0338126
0.0147823
0.00596003
-0.00777789
-0.00578501
-0.0325505
0.0238142
-0.0214705
-0.0197964
-0.0162634
0.0177891
0.027921
-0.00754074
-0.00785238
0.00349637
-0.161649
-0.236062
0.0114253
0.00941884
0.0304429
-0.00579196
0.0643326
0.0721101
-0.00478263
-0.00932487
0.0271411
0.149054
-0.00141714
-0.12099
-0.0159987
0.0275686
-0.121673
-0.0175579
-0.0366995
0.0283949
-0.21169
-0.00669829
-0.0917194
-0.00634491
-0.17855
0.00737603
-0.00859806
0.0409455
0.0328826
-0.0115462
0.045268
-0.0546172
0.0675478
-0.2633
0.0438228
-0.0178615
-0.178095
0.0228641
0.0328634
-0.0567574
-0.0122843
-0.0152297
0.0299576
-0.0178973
-0.112844
-0.0234626
0.0294121
-0.303858
-0.0101424
-0.0257382
-0.0112663
0.0625348
-0.0996066
0.0243908
-0.0162301
-0.0960639
-0.013233
0.0281076
0.044918
0.037426
-0.0163537
-0.140341
0.0267222
0.0454129
0.0166212
-0.161393
-0.0203072
-0.0314289
-0.213382
-0.125457
0.0168278
0.0577742
0.0312555
-0.0183863
0.0223275
-0.00707071
-0.0926556
-0.00472171
-0.0904515
-0.042637
-0.014873
-0.0404424
0.027563
0.0200129
-0.0114393
-0.0109729
0.0176042
-0.00961436
-0.0114474
-0.118948
0.0490908
-0.063624
0.0734385
0.0400166
-0.0296637
-0.120908
0.0296582
0.0169047
-0.00138934
-0.00416449
-0.143395
0.00739449
0.0252809
0.0778795
0.043794
0.103366
0.0961305
0.0460217
-0.0533873
-0.019911
-0.0175192
0.0355738
-0.2533
0.0188183
0.0335243
0.041387
-0.304682
-0.0798264
-0.00709141
0.0390566
-0.00573103
-0.0255536
-0.0920068
0.0392874
-0.288713
-0.0507094
0.167728
0.0191894
0.0551821
0.0337298
0.157349
0.0439438
-0.0599476
-0.0213652
0.0331646
0.0527222
0.127605
-0.280652
-0.00928185
0.0933011
0.0218086
0.00994763
0.00574941
-0.090567
-0.0147404
0.0821345
0.114911
0.0257734
0.0452316
0.0297275
-0.0425491
0.0403836
-0.123915
0.0154015
-0.0945994
-0.00974492
-0.0349139
-0.0198412
-0.094777
0.0229784
-0.0250655
-0.0409031
-0.0293437
0.0651617
0.0384663
0.0413536
0.026802
0.0541321
0.0202329
0.0217623
-0.0667163
0.00403046
0.154104
-0.0174885
0.0563925
0.126593
-0.115088
0.0307859
-0.294017
-0.0498872
-0.0221661
0.0292621
0.00659295
-0.124117
0.0258706
-0.0153022
0.00754412
0.0349463
0.0143075
-0.17944
-0.230969
-0.0111958
0.00136005
-0.158943
-0.00620688
-0.0182568
-0.0150551
0.00795368
-0.00253002
0.00811075
0.0111802
-0.017919
-0.00599452
-0.0575858
-0.0111734
0.0882923
-0.0196244
0.0253658
-0.0144013
0.0333392
0.00346312
0.0670475
-0.0468429
-0.136525
-0.0784667
0.0452501
-0.229454
-0.016526
-0.0115269
-0.0197412
-0.252407
-0.232688
-0.0729256
-0.120876
-0.272342
-0.125202
-0.00997472
-0.288827
0.0144731
-0.0197521
-0.0186486
-0.20706
0.0281716
-0.0119796
-0.284589
0.0308417
-0.0120939
0.001837
0.00582835
-0.025754
0.0208008
-0.030977
-0.227847
0.00407628
-0.00601161
0.0220221
-0.210634
0.032337
0.0334927
-0.0214422
-0.129949
-0.29783
0.0224774
-0.117312
-0.0299636
-0.0142869
-0.00817054
0.0121757
0.0132893
0.0209773
-0.00712156
-0.203222
-0.300078
-0.0328077
-0.0613352
-0.0386179
0.0173739
-0.0147449
-0.108054
-0.0157792
0.0106915
0.0579757
0.0407941
-0.0365897
-0.108116
-0.0255691
-0.00536271
0.0349604
0.0217421
-0.0195207
0.0695685
-0.0746338
-0.0116577
-0.0270405
0.0122622
-0.00815765
-0.117675
-0.175133
-0.285104
0.0224562
-0.304271
-0.00902123
0.00122685
-0.0212656
-0.0389784
-0.114446
-0.0301207
-0.00469948
-0.30422
-0.0122465
-0.130405
-0.0106603
-0.0416848
0.0181212
-0.0671376
0.0102911
-0.00484332
-0.00670863
-0.0459383
-0.123523
-0.0134343
-0.0349219
-0.0498214
-0.0106401
0.254369
-0.138469
0.0598463
-0.21833
0.0151912
0.0103667
0.027014
-0.0937591
-0.169002
-0.0351167
-0.0216721
-0.0517378
0.0279674
-0.0163047
-0.0984481
-0.0113944
-0.132141
-0.195129
0.0320865
-0.0164067
0.0122068
0.0237489
-0.0109634
-0.10205
-0.024872
-0.0853402
-0.00889309
-0.249526
-0.207952
0.0372798
0.0134652
-0.0129599
-0.00448504
-0.247718
-0.0334746
0.210542
-0.0377813
-0.0529048
-0.00710636
-0.220416
0.0431467
0.131736
0.00776491
0.126285
0.032307
-0.0231538
0.0336412
0.0436237
0.0276198
0.034773
-0.00855953
-0.0180011
0.0584094
0.122578
0.14853
0.0297822
-0.00602275
-0.0107203
0.0286529
-0.289199
0.0326744
-0.0205003
-0.00586356
-0.290437
-0.154508
0.0375311
0.0268287
-0.0096339
-0.233695
-0.103119
-0.271679
0.0410088
-0.193819
-0.256253
-0.0228952
0.0330784
-0.0210676
-0.0213575
-0.147951
0.0858553
-0.304782
0.0577867
-0.0124585
-0.0156433
-0.302986
-0.0121985
0.0816604
-0.00688734
-0.00933922
0.00289139
-0.281752
-0.022883
0.0434124
-0.0237862
-0.0571781
-0.176063
-0.0138453
-0.0270274
-0.215923
-0.018894
-0.0203266
-0.0110934
-0.0173199
-0.303814
-0.0147749
-0.00690697
-0.0693485
-0.118828
0.0326467
-0.0864946
-0.0307986