/*--------------------------------*- C++ -*----------------------------------*\
| =========                 |                                                 |
| \\      /  F ield         | OpenFOAM: The Open Source CFD Toolbox           |
|  \\    /   O peration     | Version:  v2012                                 |
|   \\  /    A nd           | Website:  www.openfoam.com                      |
|    \\/     M anipulation  |                                                 |
\*---------------------------------------------------------------------------*/
FoamFile
{
    version     2.0;
    format      ascii;
    class       surfaceScalarField;
    location    "100";
    object      phi;
}
// * * * * * * * * * * * * * * * * * * * * * * * * * * * * * * * * * * * * * //

dimensions      [0 3 -1 0 0 0 0];
oriented        oriented;


internalField   nonuniform List<scalar> 
21991
(
0.0338267
-0.04585
0.0120232
0.234938
-0.476021
0.241082
0.124161
-0.0668954
-0.0572657
0.143679
-0.158753
0.015074
-0.0578167
0.162661
-0.104844
0.134132
-0.060459
-0.0736726
0.215382
-0.0240283
-0.191354
-0.265752
0.0201817
0.24557
-0.100029
0.0392542
0.0607752
0.356261
-0.664479
0.308218
-0.0442524
0.101382
-0.0571293
0.105735
-0.106201
0.000466474
0.354526
-0.207765
-0.146761
0.0410235
-0.15505
0.114027
0.0513109
0.0531906
-0.104501
-0.0046815
0.000597279
0.00408423
0.0521199
-0.109937
-0.160621
0.175488
-0.0148663
0.0192766
-0.0192766
-0.132956
0.0874273
0.0455291
0.418815
0.1782
0.0217642
0.147003
-0.168767
-0.0578671
-0.0803185
0.138186
-0.31431
0.223799
0.0905111
0.00214124
-0.00100698
-0.00113425
-0.243314
-0.070996
-0.00209241
-0.106472
0.108565
-0.165762
0.0877153
0.0780467
0.0559472
-0.0452622
-0.0106851
0.292612
-0.132832
-0.15978
0.170945
0.200338
-0.371282
-0.146524
0.154959
-0.00843446
-0.0979374
-0.035019
-0.136563
0.144529
-0.00796672
0.0514767
-0.0913744
0.0398977
0.0274142
0.187968
-0.0143381
0.0726858
-0.0583477
-0.573524
0.363198
0.210326
-0.047133
-0.0188282
0.0659612
-0.0938293
-0.0288397
0.122669
0.0482229
0.0759382
0.0918369
-0.0403602
-0.0552963
0.0298713
0.025425
-0.153747
-0.181565
0.335313
0.049221
0.11344
0.122747
0.108063
-0.23081
-0.0458034
0.0843069
-0.0385036
0.266605
-0.223326
-0.0432793
0.166685
-0.144921
0.0993127
-0.059137
-0.0401757
0.326243
-0.204486
-0.121757
0.515739
-0.635922
0.120184
-0.247003
-0.202159
0.449163
-0.205196
0.195111
0.0100858
-0.0462335
0.100213
-0.0539797
0.0129132
0.0479093
-0.0608225
-0.0855901
0.052512
0.0330781
-0.0417533
0.0601216
-0.0183683
-0.520747
0.062808
0.457939
-0.0658287
0.188576
0.0312073
-0.026528
-0.00467935
0.119003
0.20724
-0.36592
0.0986324
0.267288
0.0597919
-0.0468787
-0.193823
-0.172097
0.170857
-0.405251
0.234394
-0.0231412
0.441956
0.231434
-0.0438254
-0.187609
-0.738718
0.449116
0.289602
-0.0373027
0.035327
0.0019757
-0.195199
0.301017
-0.105819
-0.127793
0.125701
-0.0438968
0.0976303
-0.0537335
-0.0113628
-0.0201011
0.031464
-0.311691
0.078752
0.232939
-0.00439677
-0.0329059
-0.00183264
0.000225679
0.00160696
-0.239321
0.474259
-0.12437
0.0951824
0.0291877
-0.17638
-0.261619
0.437999
-0.0024067
-0.00247341
0.0048801
0.427596
-0.256738
0.24823
0.171001
-0.419231
-0.224801
-0.08689
-0.472597
-0.0830364
0.555633
0.00197489
-0.0822392
0.0802643
0.54523
-0.0730764
-0.472154
-0.175403
0.234871
-0.0594674
0.213183
0.230811
-0.443993
-0.072825
-0.092937
0.0389345
-0.162255
0.12332
-0.176033
-0.00296444
0.178998
-0.121259
0.0548671
0.0663922
-0.323015
0.141565
0.18145
0.0800393
0.0192734
-0.00184183
9.18749e-06
0.0141939
-0.146535
1.08246e-05
-0.293588
0.16164
0.131948
-0.0954222
0.0511698
0.0137274
0.0463942
0.0130226
-0.0498238
0.0368012
0.163222
-0.635819
0.0867354
-0.164407
0.077672
0.0497268
-0.076558
0.0268313
0.0411596
-0.028137
0.00896023
0.0967745
-0.0990307
0.0527971
-0.371995
0.0235989
0.348396
-0.159646
0.33059
0.122074
-0.395479
0.273405
-0.0262813
0.0428999
-0.0166185
-0.0827389
-0.0385204
0.00904373
-0.00968024
-0.0387964
0.012515
0.00471808
-0.00712478
-0.0665428
-0.00448967
0.0710325
-0.0823986
0.121333
-0.504224
0.564846
-0.0606225
0.00629461
-0.166916
0.00448347
-0.0035917
-0.000891777
0.442495
-0.229312
-0.125506
0.235891
-0.110385
0.128822
0.00971915
-0.138541
0.000256829
-0.521004
-0.353346
-0.220179
-0.0345197
-0.0472224
0.0817421
0.127759
-0.0692238
-0.0579271
0.127151
-0.166134
0.00533532
0.160798
-0.153821
-0.0123126
0.0645327
-0.120884
0.0563516
-0.0423209
0.0369156
0.00540532
-0.100974
0.0752388
0.0257357
-0.0334346
-0.0337512
0.0671858
0.143933
-0.0151108
0.153683
-0.307431
-0.0648438
0.0747305
-0.00988675
-0.145233
-0.108243
0.253476
-0.166595
0.0300328
0.267316
0.177292
-0.444608
0.00380782
0.000680631
-0.00448846
0.544962
-0.0292235
8.96364e-05
0.0130677
-0.00402828
-0.00903942
-0.330153
-0.408565
0.0850835
-0.0353567
-0.373532
0.00153758
0.0270511
-0.0772796
0.0502285
-0.0230442
0.0230442
-0.0391948
-0.0608346
-0.00638606
0.00638606
-0.126832
0.0330028
-0.0285186
-0.0828554
0.111374
0.443703
-0.195473
0.0518937
-0.0381663
0.0713476
-0.123639
0.0522916
0.113122
-0.0534301
-0.0596923
-0.0159226
0.0155582
0.000364427
-0.0428592
0.0699103
-0.0649715
-0.334192
0.399163
0.613659
-0.0965187
-0.51714
-0.0333191
-0.00900182
0.00214124
-0.198019
0.190122
0.00789716
0.0436474
0.00824636
0.260493
0.00611213
0.008124
-0.0306881
0.0225641
-0.321541
0.0857821
0.235759
-0.323672
0.0579202
-0.0085887
-0.0534001
0.0619888
-0.209797
0.203256
0.00654076
0.098708
-0.0992553
0.000547233
0.106561
-0.0552505
-0.0686767
0.0352421
-0.0596297
-0.0413448
-0.156049
0.081083
0.074966
0.139844
-0.151918
0.0120735
0.612611
-0.277683
-0.334929
-0.0453143
-0.0402758
0.111796
0.0223353
0.012355
0.0135128
-0.0258678
-0.105902
-0.102424
0.208326
-0.124549
0.146311
0.00922891
-0.185262
-0.0597843
0.0466267
0.0131577
-0.0260165
-0.0832307
0.109247
-0.119033
0.0930168
0.201732
-0.181788
-0.0199443
0.541217
-0.407953
-0.133265
-0.060038
0.00474163
-0.0735836
0.0277803
-0.1314
-0.14805
0.279449
0.0825965
-0.0443969
-0.0381995
-0.0796346
0.0652964
-0.391936
0.306333
0.0856023
-0.0310587
-0.0187651
0.310307
-0.278399
-0.0319083
0.136872
-0.114377
-0.0224955
-0.0243417
0.00155796
0.0227837
-0.00721327
-2.29246e-05
0.0072362
0.340482
0.200735
-0.0681962
0.214426
-0.14623
0.121061
-0.0460485
-0.0750126
-0.116769
-0.0977479
0.214517
-0.0172766
0.0161957
0.00108093
-0.0341723
0.10552
0.0402784
0.0386093
-0.0788877
0.0812391
-0.163638
-0.277143
0.193557
0.083586
-0.210773
-0.110768
-0.00284561
0.0278494
-0.0250038
0.23171
-0.000275848
-0.392094
0.327123
-0.12705
-0.103421
0.230471
0.0958959
-0.241129
0.0992403
-0.16546
0.322576
-0.157116
0.391737
-0.189247
-0.20249
-0.192479
0.370131
-0.177651
0.0435664
-0.150631
0.107065
-0.108121
0.0486733
0.0594482
0.0483917
0.0884807
-0.0562608
-0.153536
-0.100586
0.291174
-0.190588
0.0509494
0.0311103
-0.0820597
0.122985
-0.00341981
-0.119565
0.0539788
0.0129224
-0.0669012
-0.0208701
0.0398126
-0.0189425
0.0280823
0.158482
-0.186565
0.219627
-0.344318
0.124691
-0.223858
0.155662
0.26003
0.131707
0.0252343
0.00304381
-0.0282782
0.0289915
-0.0204698
-0.00852171
0.384698
0.195304
-0.580003
0.064924
-0.209801
0.144877
0.086874
-0.0254276
-0.0614464
0.0480236
-0.104943
0.0569198
-0.191175
0.0083372
0.182838
0.00252293
-0.00133501
-0.00118791
0.074481
0.00753502
-0.082016
-0.13029
-0.163298
-0.374045
-0.210313
0.374315
-0.164002
0.069235
-0.0672601
-0.131171
0.168918
-0.0377462
-0.0371743
-0.160845
-0.127091
-0.35793
0.198284
-0.0179651
0.0317109
-0.0137458
-0.250358
-0.141577
0.28895
-0.571762
0.282812
0.309779
-0.5491
-0.0181404
-0.0214679
0.0396082
-0.214493
0.0977248
0.142719
0.307156
-0.449875
-0.240931
0.147582
0.0933494
0.155522
-0.350721
-0.0373579
-0.328692
0.36605
0.0658085
-0.0550928
-0.0107157
0.020105
0.181627
0.052416
-0.110343
0.0475249
-0.24906
0.201535
0.0381267
-0.0853371
0.0472104
-0.287005
0.120431
0.166574
-0.149895
0.115722
-0.236399
-0.112563
0.348961
-0.0126711
0.0216105
-0.00893943
-0.0272922
0.0271534
0.000138811
0.020994
-0.00863899
0.00394216
-0.0097292
0.00578704
-0.58726
-0.508414
0.0594942
0.44892
-0.00663612
0.0104439
-0.0503053
0.103496
0.00953655
0.154781
-0.164318
0.000744105
0.0123236
0.0937155
-0.0410285
-0.052687
0.0350889
0.00607075
0.00898884
0.0778852
0.546308
0.010647
-0.556955
0.0253802
-0.0172562
0.023382
0.00782537
0.00544052
-0.00967108
0.00423057
-0.0249301
0.0758795
0.0325526
0.061163
-0.0115734
-0.16383
-0.143684
0.00715068
0.136533
0.0566044
-0.0651931
-0.361906
0.196446
0.132954
-0.300694
0.167741
0.175085
0.287693
-0.18692
-0.100773
0.040651
-0.10111
0.0283718
0.0756825
-0.104054
-0.0336581
0.0981908
-0.12434
0.100617
0.0237228
0.211041
0.111536
-0.0783714
0.121938
-0.241677
0.452716
-0.211039
-0.601825
0.2012
0.400625
-0.120776
0.14236
-0.0215841
0.1095
0.0134846
-0.0947157
-0.0296544
0.0996591
-0.205561
0.0309516
-0.0780846
-0.044621
0.0135623
0.0593663
0.0471951
0.0114477
-0.0109202
-0.00519151
-0.0191502
0.0628918
-0.186356
0.176668
0.00968785
-0.186342
-0.00483362
0.0313161
-0.0494564
-0.20747
0.0804207
0.0161733
0.0496352
-0.114145
0.0655776
0.0485674
0.169529
-0.481089
0.31156
0.030551
-0.0493792
-0.0592202
0.0846897
-0.0254695
0.0102478
-0.0767906
-0.0119012
0.06588
-0.0169657
0.00429455
-0.161836
0.250875
-0.0890384
0.123468
-0.0360402
0.0381986
0.0554244
-0.093623
-0.508157
0.0577882
0.0420244
-0.0998126
-0.0135416
-0.002381
-0.094166
-0.0702414
0.0840574
-0.123888
0.0398309
-0.0848704
-0.0711786
-0.171502
-0.0148542
-0.324068
0.28671
-0.138411
0.338748
-0.409659
-0.192166
0.0020259
-0.217132
0.0320372
0.185094
0.0847421
0.013966
0.0619408
-0.191569
0.129628
0.241653
0.0256516
-0.267305
-0.173763
0.042592
0.15004
-0.141465
-0.18155
-0.00635683
0.035506
-0.0291491
0.016315
-0.00754286
-0.00877218
-0.0250625
-0.0138007
0.0388631
0.106147
-0.066893
-0.00679365
-0.00041962
-0.0101716
0.00938413
0.00078747
-0.129674
-0.111257
0.227887
-0.474891
0.148485
-0.384884
-0.221883
0.00475188
0.0241994
-0.0834196
-0.158764
0.27653
-0.117766
-0.0195041
0.0195041
0.118919
0.241876
-0.360795
0.518624
-0.229674
-0.254412
0.0703599
0.184052
0.0380633
0.0555551
-0.0936184
0.0239185
-0.096857
0.0729385
0.112144
-0.0641208
0.0130113
0.013272
-0.0262833
-0.0256072
0.0142443
-0.16898
0.178517
-0.0171085
-0.145146
-0.139788
0.0977236
0.0420645
0.392841
-0.207321
-0.18552
0.183955
-0.194998
0.0110427
-0.405902
0.0182198
0.387682
-0.141992
0.0673532
0.0746391
0.0818395
0.608643
-0.363149
-0.245494
0.0162509
-0.0212083
0.00495739
-0.322876
0.261899
-0.134981
-0.126918
0.0160455
0.0482203
-0.0921171
-0.0897739
0.177554
-0.152214
-0.0253401
-0.139464
0.114048
0.0254161
-0.00559225
0.0110328
-0.148937
-0.0109574
0.159894
0.408565
-0.236449
-0.172116
0.00144441
-0.00302515
0.00158074
0.172987
-0.154239
0.4987
-0.344461
-0.000739347
-0.0304903
-0.113194
-0.386002
-0.222375
-0.162639
-0.0425575
0.00264403
-0.00301577
0.000371742
0.0584488
-0.024932
0.0670479
-0.0421158
-0.0356326
0.11969
-0.011589
-0.0266839
0.038273
0.137382
-0.543285
0.109203
-0.0498366
-0.159259
-0.222912
0.382171
-0.0465778
-0.0524528
0.0375014
-0.0212505
0.0131345
0.124957
-0.138092
-0.0522447
-0.0911227
0.143367
-0.0801293
0.0551973
0.18855
0.011563
0.440921
-0.574667
0.133746
-0.254273
0.153687
-0.0102061
-0.0887632
0.0989693
-0.050026
0.0320609
0.533801
-0.17754
-0.0937548
0.189571
-0.0958167
0.0863469
0.227116
0.233126
-0.460241
0.164399
-0.152847
-0.011552
-0.212739
-0.030575
-0.0121669
0.0459937
-0.0342908
-0.0798542
0.115173
-0.120897
0.00572412
-0.352863
-0.00701873
0.00710837
-0.180416
0.128172
-0.0452943
0.12745
-0.0821558
0.0208613
-0.00785005
-0.116334
0.0216187
0.0305706
-0.155248
0.124677
-0.34778
0.129595
0.218185
-0.22835
0.208471
0.019879
0.534404
-0.534404
0.0981516
-0.0697798
-0.233623
-0.274751
0.508374
-0.137134
-0.140009
-0.255545
-0.0426136
0.298159
-0.386682
0.145005
0.0351293
-0.0414862
-0.196438
-0.165468
-0.258372
0.110199
0.148173
0.100853
-0.129693
-1.31229e-05
0.0163282
0.337459
-0.064528
-0.272931
-0.154051
0.48754
-0.350679
-0.13686
-0.0399882
-0.135528
0.175517
0.00231444
-0.0096474
0.00733296
-0.0323999
-0.0281931
0.0605929
-0.00981485
0.0842958
0.0987933
0.137098
0.0219415
0.011226
-0.0331675
-0.16334
-0.0316577
-0.282387
0.125102
0.157285
0.115064
0.490664
-0.605728
0.0458587
0.346683
-0.392542
-0.214598
0.343461
-0.128863
0.526119
-0.48026
-0.0203373
-0.0424738
0.0628111
-0.180664
0.187135
-0.00647085
0.555985
-0.0921148
0.0881818
0.00393306
0.147573
0.339967
0.0784363
0.0346861
0.0470878
-0.0875747
0.0404869
-0.0135018
-0.141549
-0.0370134
0.0948016
0.181609
-0.00405554
-0.0139002
-0.0307208
0.108752
0.00642076
-0.0835707
-0.146869
0.23044
0.547921
0.106296
-0.116502
-0.119051
0.284521
-0.16547
-0.130324
0.33139
-0.201066
0.00183465
0.00720908
0.0115564
0.132122
0.0497595
-0.257524
-0.154045
0.136937
-0.00356432
-0.0137123
-0.0106348
0.0306945
-0.0200597
-0.131
0.145114
-0.0141133
-0.136467
0.184511
-0.0480432
-0.0183929
0.194159
-0.175766
-0.0532543
0.0796321
-0.241468
0.0394756
0.118074
-0.15755
0.00703252
-0.257945
-0.000699917
0.258645
0.298537
0.0389219
0.0876025
0.0788301
-0.166433
-0.0673122
0.106788
0.0334816
-0.0649702
0.0314886
0.136124
-0.131961
-0.00416209
0.0394403
0.499248
-0.538688
0.0889069
-0.132247
0.0433405
0.0232909
0.467373
0.115675
-0.37122
-0.0218936
-0.00247392
0.0243676
0.0129327
-0.306453
0.0918554
-0.0619328
-0.0494102
0.111343
-0.188012
-0.154347
0.421663
0.133409
-0.0892536
-0.0441549
0.0101785
-0.0330125
0.022834
-0.289189
-0.0258424
0.315031
0.0595092
-0.303098
0.243589
0.0421169
0.503113
-0.193637
-0.135887
0.329524
-0.0245522
-0.00273997
0.172893
-0.462081
0.175296
-0.258866
-0.0784661
0.0414527
0.185284
-0.341999
0.156715
-0.257652
0.223793
0.0338595
0.0025352
0.00557507
-0.00811027
0.454097
-0.232315
-0.221782
-0.0547255
0.0967499
0.143302
-0.447932
0.30463
-0.0227661
-0.0527745
0.0755405
-0.0228671
0.000973457
0.0729993
-0.0395177
0.22864
-0.181115
0.232553
0.239519
-0.472072
-0.151475
0.115843
0.130139
-0.141712
-0.469476
0.16876
0.300716
0.014699
-0.168881
0.154182
0.305147
-0.538208
0.233062
-0.03007
0.118977
-0.200642
-0.147138
-0.0329621
0.120565
0.119808
-0.0320929
0.134956
-0.22871
-0.00197012
-0.000503286
0.0923228
-0.0684043
-0.051233
0.0308957
-0.0803035
0.142244
-0.276812
0.420114
-0.0754646
-0.0283801
0.103845
0.225436
-0.109795
0.140366
-0.0550093
0.0932079
-0.131268
0.0104919
-0.0859153
0.0631492
0.0357528
-0.0138113
0.618826
-0.00516737
-0.0275857
0.0159967
-0.0753157
0.117848
-0.0425323
-0.166383
-0.0142814
0.0940716
-0.185194
-0.00235508
-0.0131151
0.0154701
-0.00658147
0.0314804
-0.0248989
-0.449807
0.273427
0.466783
0.0795257
-0.0751666
-0.334492
0.0468008
0.0475688
-0.0943696
0.0565089
0.0645523
0.00342859
-0.00428557
0.000856986
0.00264165
0.336032
-0.276522
-0.0711944
-0.0189284
0.0901229
-0.0348946
0.064766
0.0849171
-0.0625353
-0.0223818
-0.111944
0.0666494
0.158148
-0.198136
0.0197833
0.141214
-0.160997
-0.347464
0.294828
0.052636
-0.0605345
0.0871591
-0.0266246
-0.0254626
0.0193896
0.00607295
-0.161077
0.128115
0.0587866
-0.0756736
0.016887
-0.299947
0.306315
-0.381482
0.255627
0.0696318
-0.325259
-0.147276
0.16041
0.193855
0.24864
0.0497503
-0.0842701
-0.433671
0.279432
0.00151164
0.0177649
-0.0301918
-0.162715
0.132645
0.0739705
-0.0439207
-0.244497
-0.102967
0.158206
0.0106903
-0.277659
0.108679
-0.000940165
-0.0183364
0.220375
0.388267
0.253835
0.00179233
0.226315
-0.377541
0.151226
0.0770995
-0.531481
0.454382
-0.0805477
0.123189
-0.0426417
0.0121853
0.00139726
-0.00136242
-3.48391e-05
-0.00492693
0.00133523
0.459668
0.015099
0.226554
0.0103195
-0.146787
0.0365511
0.0585372
-0.0950883
-0.029356
0.109151
-0.0797952
0.0329071
-0.166206
0.133299
-0.356185
0.205805
0.15038
-0.0975191
0.0646321
0.032887
0.144928
-0.205224
0.0602954
-0.0657989
0.033399
0.13031
0.245181
-0.375491
0.0546174
0.0430129
-0.0245661
0.00229624
0.0222699
-0.199813
0.393668
0.176307
0.14936
-0.0623892
-0.0869709
0.236417
-0.279172
-0.132292
0.141073
-0.00878139
-0.153741
-0.099786
0.253527
0.0285995
-0.0314451
0.0403473
-0.107379
0.0670322
-0.038687
0.0789654
-0.371218
0.174781
0.0570192
0.0443626
0.0413206
0.100917
0.048443
0.348705
0.24831
0.00676689
0.0209479
-0.0277148
0.370842
-0.169729
-0.201113
0.0377651
-0.0678114
0.0300463
-0.457099
0.170854
0.286245
0.298908
-0.497441
0.198534
-0.00125531
0.0291047
-0.0903605
0.090632
-0.000271528
0.0750022
-0.0372372
0.048343
-0.119537
-0.016462
-0.128102
0.144564
0.302315
-0.183396
-0.0408034
0.0207023
-0.140746
-0.235446
0.376191
0.0579669
-0.0808531
0.0228863
0.0460461
-0.0994762
0.109549
0.0749613
-0.216145
0.488763
-0.272618
0.397926
-0.19201
-0.205917
-0.0120254
-0.115768
-0.138854
0.158637
0.586281
-0.223084
0.0754532
-0.121502
-0.0810662
0.0434645
0.0376017
-0.138669
0.125167
-0.366709
0.342185
-0.000311815
0.000909094
0.025848
-0.0156695
0.0410762
-0.192661
-0.121109
0.31377
0.0617619
0.0716467
0.182084
0.100507
0.162761
-0.263268
-0.0352709
-0.0890694
-0.0184927
0.0185515
-5.8766e-05
0.143527
-0.142962
-0.000565513
-0.00736147
0.0325958
-0.12123
0.0319766
-0.0441759
0.024549
-0.233458
0.114407
-0.012902
-0.0125606
-0.0375688
0.0955356
-0.0630763
0.376907
-0.313831
-0.0128646
-0.145888
0.0122151
-0.0876798
0.0199809
-0.00300817
-0.187854
0.169461
-0.0840661
0.116973
0.0508728
0.0317237
-0.294583
0.500259
-0.205677
0.136244
-0.136489
0.000245966
-0.14995
-0.37121
0.521159
-0.191204
-0.0381813
0.229386
-0.0574291
0.0134599
-0.028681
0.0152211
-0.135233
0.0625872
0.0726457
0.317346
-0.359959
0.463672
0.148939
0.162285
0.28907
-0.451356
0.0366605
0.162039
-0.1987
-0.116209
0.0856229
0.0305858
-0.00883797
0.00648289
-0.070378
-0.0694101
-0.0421515
0.0889523
-0.00247706
-0.017027
-0.114728
0.123968
-0.00923979
-0.114179
0.151128
-0.0369494
0.0316282
-0.0248947
-0.00673351
0.121935
-0.253334
0.00338439
0.162308
0.0312488
-0.0176333
0.384183
-0.36655
0.257709
-0.291014
0.0333051
0.17581
-0.164254
0.0913211
-0.137667
0.046346
-0.405605
0.332529
-0.0640958
0.158167
0.0623213
0.0672488
-0.12957
-0.0508943
0.111193
-0.0602989
-0.14557
0.031391
0.0557744
-0.0812776
0.0255032
-0.291209
0.143159
0.0863504
-0.0305761
-0.0689054
-0.0261154
0.0950208
-0.123504
0.129479
-0.0059742
-0.0104315
-0.101104
0.111535
0.684277
-0.411638
-0.272639
0.229495
-0.0150072
-0.214487
-0.00968559
-0.0197386
-0.014163
0.0339016
0.290901
-0.167038
-0.123863
-0.0922378
0.00187734
0.0218663
0.29548
-0.265234
0.0394125
-0.406122
-0.14916
0.185821
-0.010717
0.0695035
-0.364187
0.233864
-0.120402
0.0400832
-0.19887
0.329842
-0.130972
0.00781711
0.140592
0.257334
-0.147281
0.14731
-2.96461e-05
-0.174591
-0.103068
-0.430493
0.214348
-0.403016
0.243463
0.159553
0.100969
-0.0606213
0.0205855
0.123944
-0.0552915
-0.0353416
0.0906331
0.0077156
-0.381813
0.318737
0.176772
-0.472422
0.454789
-0.0341874
0.0450941
-0.0109066
-0.145905
0.115415
-0.137722
0.0612071
0.0765147
0.0247178
-0.0112579
-0.168376
0.0843098
-0.16739
0.17771
-0.0604403
0.0219785
0.0384618
0.299366
-0.0730509
-0.406554
0.265808
0.428893
-0.525412
-0.215836
-0.140349
0.0882018
-0.0516507
0.480898
-0.175752
0.183845
0.299482
-0.483327
-0.0995433
0.0399136
0.0339032
0.0619004
-0.0958036
0.0170936
0.129827
-0.146921
0.297087
-0.0271513
-0.0186986
0.00528146
-0.00275854
0.105036
0.00743122
-0.112468
-0.184221
0.0066631
0.177557
-0.175744
0.0228965
-0.0474456
-0.0195076
0.0669532
-0.00515217
-0.109576
0.00728397
0.0440763
-0.0513602
-0.0425241
0.0684714
0.0376759
0.00631768
-0.00750802
0.201824
-0.0568956
0.11617
-0.145181
0.0290108
0.0484659
-0.0978752
0.0494093
0.607543
-0.0169098
-0.590634
-0.0408047
0.240141
-0.173598
-0.0665431
0.453432
-0.376332
-0.00152784
-0.0138035
0.0153314
-0.135995
0.123969
0.0374462
-0.00775657
0.036356
-0.11599
0.0622077
0.0537827
-0.195891
-0.175327
0.00871245
-0.127796
0.437574
0.197962
-0.183263
0.183426
-0.195357
0.0119303
-0.0576552
-0.170695
-0.271093
-0.224856
0.495949
-0.00273556
0.00140055
0.0128082
0.00899594
-0.11195
0.102955
-0.062554
0.0863054
-0.0237514
-0.0194311
0.16694
-0.147509
-0.00423871
-0.0203274
-0.0470638
-0.045051
0.13382
-0.0176501
-0.0230068
0.012372
0.215502
0.0246392
0.457594
-0.290388
-0.154802
0.44519
0.435369
-0.202244
0.269573
-0.20185
-0.0677234
-0.00538734
-0.0176569
0.15865
-0.174659
0.0160092
-0.000525714
0.0436296
-0.090852
0.523014
0.0113896
-0.0233532
0.121077
0.0645103
-0.13962
0.0751092
-0.309602
0.601729
-0.292128
-0.284146
0.0929414
0.0134512
-0.00564195
0.140271
-0.273103
-0.0509878
-0.0867339
0.0913371
-0.250102
-0.289792
-0.111092
0.400884
0.125757
0.0104867
0.053855
0.141255
-0.018446
-0.0114065
0.0298525
-0.0459191
0.101918
-0.0559985
-0.0608647
0.0134191
0.053648
-0.046364
-0.0996849
-0.0458851
-0.0809804
0.00442231
0.260485
0.269304
-0.529789
0.0134147
-0.0541059
0.0406913
-0.108769
0.0601127
0.0486562
-0.288298
0.171158
-0.0197326
-0.151426
0.00676227
-0.000376211
0.158513
-0.351173
0.121394
-0.0814273
-0.0399664
0.251782
-0.368992
0.11721
0.0093822
0.013662
0.0790698
0.0423238
0.112181
0.149718
0.146241
0.356237
-0.13661
-0.67127
0.225994
0.445276
-0.169623
-0.0145978
0.037992
-0.0306281
-0.00736393
0.359092
-0.243318
-0.115775
0.0491187
0.206799
-0.255918
-0.134425
0.017573
0.116851
-0.215893
0.0809128
0.00173948
-0.000301697
-0.00143778
-0.00797081
0.0912368
-0.083266
0.292969
0.133914
-0.426883
0.503113
0.0422499
-0.300195
-0.105721
-0.0104874
-0.189394
0.322953
-0.133559
-0.610402
0.42477
0.185632
-0.0550882
0.0841517
-0.0290635
0.0794263
-0.0408171
-0.136012
0.427536
-0.291524
-0.159056
0.400932
0.0416091
0.098235
-0.0281073
0.00157932
0.223935
0.24853
-0.472465
0.286958
-0.18826
-0.0986976
0.097537
0.0635057
-0.0940263
0.0305206
0.474527
-0.290682
0.000318969
0.00232506
0.00499023
-0.152271
-0.104794
0.0242463
-0.0490532
-0.0541673
-0.0263094
0.0804768
0.254924
-0.0337109
-0.0632094
0.0969202
-0.203147
-0.336669
-0.010399
-0.0343964
0.0447955
-0.158762
0.00494115
0.00869739
0.144366
-0.153064
0.221832
-0.43502
0.213189
0.0411935
0.216515
0.00339124
-0.00439822
-0.0377879
-0.0219965
0.150312
-0.440104
0.114268
-0.0702934
-0.043975
0.0244275
-0.0176606
0.0050455
-0.000961275
-0.0742954
-0.0465888
0.43629
0.0115331
0.0118489
0.37234
0.224675
0.293743
0.0653491
-0.0132066
-0.121218
-0.0379051
-0.0425571
0.0804622
-0.254449
0.067811
0.186638
0.0607645
0.039127
-0.0998914
0.10134
-0.0754749
-0.0258647
-0.126663
0.238844
0.164945
0.262514
-0.61586
-0.0798187
-0.177834
0.0127906
0.256783
-0.551313
-0.427608
-0.182794
-0.0968018
0.0868078
0.00999402
-0.211235
0.450754
-0.131332
0.0663055
0.168565
0.0151887
0.0228033
0.313917
0.283097
0.0350294
-0.246445
-0.140886
0.387331
-0.0307115
-0.0145333
-0.135361
-0.0884324
-0.016511
0.0216091
-0.0296552
-0.109809
0.156168
-0.160914
0.00474616
0.00532785
0.14511
-0.150438
0.585122
0.162623
0.0924794
0.135168
-0.319407
-0.351863
-0.175522
0.482678
0.00331691
0.00661497
-0.00993188
0.0281588
-0.100038
0.0718793
-0.000365935
0.338184
-0.120542
-0.217643
-0.485953
-0.10468
0.0472701
-0.0639119
-0.031005
0.0949169
0.0371715
-0.0475705
-0.018971
-0.000441585
0.0194126
-0.0572572
0.0911604
-0.134776
0.0618232
0.0729526
0.000403436
0.238799
-0.397856
-0.479717
-0.184762
-0.00110568
0.0142377
-0.013132
-0.146749
-0.0120129
-0.0638202
-0.034055
0.0800976
0.0341708
0.238029
0.197341
0.404589
0.140373
-0.110342
0.0813721
0.0289701
0.0370606
-0.327448
0.0269917
-0.0347482
0.187577
-0.0369919
-0.150585
0.0270699
0.0742697
0.378104
-0.144727
-0.233376
0.0221357
-0.177029
0.514333
-0.337303
0.0630803
0.0251014
-0.0333741
-0.182167
-0.144738
0.326905
0.0219473
-0.0673256
0.0453783
-0.107944
0.0620248
-0.0174702
-0.0635102
0.00450467
-0.00143961
-0.00306506
-0.0803003
0.0723295
0.00455616
0.0420705
0.0337307
-0.15828
0.0618808
0.024504
-0.023578
-0.000926006
0.122318
-0.113322
0.0954245
-0.0404037
-0.0550208
-0.26756
0.0890195
0.17854
0.348133
-0.0963511
-0.0621194
-0.00324928
-0.00692232
-0.118234
0.0912375
0.0269963
0.171527
0.0160499
0.177887
-0.361106
0.183219
-0.0859007
-0.0292897
0.11519
0.259237
-0.158731
-0.0312639
0.0490131
-0.0177492
-0.0228332
-0.000280098
0.0231133
0.156392
-0.0791431
-0.175306
0.194592
-0.363404
0.168811
0.136418
-0.15288
0.0385603
-0.0938518
0.129264
-0.255927
-0.0200442
-0.00278903
0.0455701
-0.0834752
-0.0294257
-0.0122642
0.0416899
0.0888631
0.0309451
-0.153581
-0.128806
-0.511236
0.272589
0.238647
-0.0778935
0.0153543
0.0625392
-0.199654
0.047984
-0.0902214
0.0422374
0.16359
-0.0137814
-0.149809
-0.0365059
0.125369
-0.386026
0.250014
0.453486
-0.22774
-0.225746
-0.0813354
-0.0368984
0.103925
0.00111149
-0.0270208
-0.0308122
0.0823545
-0.0515424
0.0516371
0.0588095
-0.110447
-0.287522
-0.526122
0.349093
0.212431
0.0170632
-0.0119123
0.0234454
0.0588742
-0.122658
0.063784
-0.0361324
0.0841164
0.482607
-0.234529
-0.248078
0.0149904
0.0200985
0.0419667
0.0505307
-0.0924974
-0.0503277
-0.072377
0.122705
0.182221
-0.226046
0.192856
0.0480077
-0.240864
-0.105925
0.265726
-0.250627
0.00176416
-2.4681e-05
0.0150184
-0.197787
0.376239
-0.178453
-0.103696
-0.0376293
0.0951552
-0.0575258
0.00496407
0.170846
0.00911173
0.141607
-0.14076
-0.000847161
0.16971
-0.377031
-0.0387298
0.0957083
-0.0569785
0.193859
-0.281274
0.0874149
0.0972459
-0.107677
0.286023
-0.158805
-0.127217
-0.103924
0.00888683
0.0993719
-0.108259
0.353105
-0.00177986
0.13828
0.0103972
-0.0121804
0.00178321
0.172176
0.211359
-0.383535
-0.301916
0.153984
0.147932
0.351921
-0.107335
-0.244587
-0.0167929
0.0213849
-0.0398309
-0.00762289
-0.158583
-0.09673
0.0464247
0.1125
-0.0559916
-0.252042
-0.0155177
0.0829204
-0.226399
0.143479
0.101507
0.0153632
-0.0120463
0.0479773
0.0601384
-0.108116
-0.00535648
0.0724044
0.468184
-0.239801
-0.228383
0.231706
-0.0769248
0.00881488
-0.00322983
0.00479022
0.209635
-0.0082199
-0.154495
-0.0632721
0.00592605
0.0573461
0.150167
0.0134234
-0.167474
-0.0203794
-0.000352785
0.00175004
-0.0540322
-0.0333395
0.0873718
-0.01059
0.0131252
-0.140938
-0.0485136
-0.172856
-0.0474285
0.0619884
0.0229287
-0.00546596
0.0352621
-0.0297961
0.193968
0.128985
0.0985738
-0.22033
0.121756
-0.0101882
0.0357974
-0.0256093
0.11928
-0.0569932
-0.0622871
-0.0800769
-0.0546989
0.494214
-0.0896243
0.048683
-0.0267045
0.00981999
-0.0134343
0.00361433
-0.158411
-0.244605
-0.102466
-0.0119106
-0.159146
0.448216
0.341041
-0.218967
-0.0243037
-0.0394856
0.0637893
-0.285469
-0.11001
-0.0120596
-0.099556
0.111616
-0.0076481
-0.139628
-0.0240424
-0.0557587
0.0798011
-0.261774
-0.195325
0.265077
0.154135
-0.0413749
0.138905
-0.195166
0.0031431
-0.00552165
0.00123608
0.0446171
-0.0856457
-0.0531075
-0.0101646
-0.240674
0.389159
0.127524
0.157953
-0.320326
0.162372
0.462222
-0.234334
-0.0824044
-0.0388258
0.169937
-0.0290721
-0.140865
0.00297517
-0.0121676
-0.148909
0.240296
-0.0438973
-0.196399
0.142651
-0.0900392
-0.0526123
-0.0682476
0.284713
-0.216465
0.114404
-0.313275
-0.196272
-0.132806
0.329078
-0.0394303
-0.05885
0.0982803
-0.0188247
-0.000146364
0.0446334
-0.0133173
0.19389
0.175718
-0.369608
-0.0990751
-0.0170069
0.116082
-0.0337116
0.0204741
0.0132375
0.301637
0.210463
-0.512101
0.181545
-0.377436
0.238239
-0.0783738
-0.159865
0.00261941
0.00400151
-0.00662092
-0.0102867
-0.0409155
0.0949303
-0.248671
-0.112909
0.0736143
0.039295
-0.0150413
0.115894
0.138489
0.0076755
-0.146165
0.0615829
-0.192381
0.130798
0.277069
-0.0831015
0.0267301
-0.108437
0.0817069
0.0647102
0.0531377
-0.119807
0.0207314
0.0471359
-0.101773
0.0546367
0.0892606
-0.0169905
-0.0722701
0.425161
-0.187133
-0.185317
0.506246
-0.320929
-0.0456065
0.110117
0.544876
-0.406767
-0.138109
-0.123075
0.0784201
0.0446549
0.145084
0.0866219
0.027925
0.22053
-0.347422
0.126892
-0.00452163
0.0247365
-0.0202148
0.00376803
0.000736635
0.0101304
0.213668
0.19022
-0.454381
0.264162
0.197367
-0.15328
-0.154041
0.307321
-0.00996021
-0.0868416
0.183564
0.148785
-0.332349
-0.253467
-0.257769
0.114006
0.0644246
0.0548557
-0.228911
0.452846
0.0385725
0.0495104
-0.0880829
0.581548
-0.267631
0.361495
0.169711
-0.531205
0.0244571
0.0598498
0.154034
-0.0136365
-0.140397
-0.162722
0.313988
-0.151267
0.0312622
-0.00911255
0.0112193
-0.0021067
0.0550058
-0.0887167
0.157279
0.387598
-0.00780274
0.0062749
-0.202007
-0.139992
0.19418
0.260702
-0.139363
-0.0146819
0.0231794
0.162908
-0.186087
0.12904
-0.0774032
0.0609215
0.0430034
0.0398733
-0.139558
0.06296
0.29543
-0.35839
0.129795
0.0117254
-0.111956
0.0488827
0.0630733
-0.0159196
0.0154781
0.057486
-0.0951153
0.377702
0.225386
-0.603089
-0.015376
-0.013305
0.0178948
0.0779139
-0.0958086
-0.144868
0.176117
0.184612
0.0616062
-0.0189054
0.0164132
0.00249218
0.0424403
-0.0641234
0.021683
-0.0347296
0.014987
0.0197426
-0.0294559
-0.00527374
-0.120273
0.0378681
0.118985
-0.0127724
-0.125896
0.156378
-0.193553
-0.142741
-0.188095
0.333544
-0.14545
-0.0685527
0.0967114
0.458766
-0.0972711
-0.196461
0.380025
0.334577
0.246972
0.00413567
0.0011458
-0.00314437
0.0425205
-0.0342741
0.00371848
-0.0143965
-0.137079
-0.308875
-0.218592
0.527467
0.0234621
-0.0376251
0.0424606
-0.0811476
0.0306503
-0.0846825
0.24679
0.170355
-0.417146
0.100398
-0.288658
-0.00507391
0.298043
-0.0133342
-0.138666
0.152001
-0.046697
0.171025
-0.124327
-0.0613172
0.0832645
0.15868
-0.347039
0.188359
-0.00357336
-0.00246206
-0.00845815
0.189923
-0.0977067
-0.0922164
0.113578
0.0763449
0.112692
-0.0482677
0.124146
-0.105548
-0.0185977
0.336074
0.251703
-0.587777
-0.00409498
0.000891553
0.00320342
-0.20324
0.335768
-0.132528
-0.00220228
0.0120223
0.0329725
-0.513014
0.480041
0.0213158
-0.0258374
-0.00286888
-0.00681136
-0.0599666
0.0545704
0.068619
0.395893
-0.19638
-0.199513
-0.214772
0.344367
-0.0940159
0.543132
0.210938
-0.332047
0.224495
0.153608
-0.033899
-0.0624518
0.0963508
0.00285839
-0.000238984
-0.101536
0.264297
0.0820633
-0.0785111
-0.0302578
0.0555047
0.127922
-0.287939
0.129134
-0.0943946
0.0481835
0.0462111
0.176691
-0.0185433
0.0274654
-0.0140508
-0.0196301
0.000157094
0.019473
0.0116
0.0131178
0.0735085
-0.123836
-0.523758
0.249008
0.485982
0.013266
0.0176931
-0.033069
-0.410471
0.260375
0.150096
0.273434
-0.0257119
-0.247723
0.0455516
0.125607
-0.0311536
-0.0547617
-0.158832
0.00602643
0.152806
0.309653
-0.588568
0.278915
0.0909415
-0.0489749