/*--------------------------------*- C++ -*----------------------------------*\
| =========                 |                                                 |
| \\      /  F ield         | OpenFOAM: The Open Source CFD Toolbox           |
|  \\    /   O peration     | Version:  v2012                                 |
|   \\  /    A nd           | Website:  www.openfoam.com                      |
|    \\/     M anipulation  |                                                 |
\*---------------------------------------------------------------------------*/
FoamFile
{
    version     2.0;
    format      ascii;
    class       surfaceScalarField;
    location    "100";
    object      phi_0;
}
// * * * * * * * * * * * * * * * * * * * * * * * * * * * * * * * * * * * * * //

dimensions      [0 3 -1 0 0 0 0];
oriented        oriented;


internalField   nonuniform List<scalar> 
21991
(
0.0338274
-0.0458507
0.0120233
0.234938
-0.47602
0.241082
0.124161
-0.0668952
-0.0572656
0.143679
-0.158753
0.015074
-0.0578165
0.162661
-0.104844
0.134131
-0.0604588
-0.0736724
0.215382
-0.024028
-0.191354
-0.265752
0.0201813
0.24557
-0.100029
0.0392541
0.0607751
0.356261
-0.664479
0.308218
-0.0442525
0.101382
-0.0571291
0.105735
-0.106201
0.000466397
0.354526
-0.207765
-0.14676
0.0410235
-0.15505
0.114027
0.0513104
0.0531905
-0.104501
-0.00468209
0.000597077
0.00408502
0.0521198
-0.109936
-0.160621
0.175487
-0.0148663
0.0192769
-0.0192769
-0.132956
0.0874272
0.045529
0.418815
0.1782
0.0217645
0.147002
-0.168767
-0.0578666
-0.0803187
0.138185
-0.314309
0.223798
0.0905111
0.00214192
-0.00100712
-0.0011348
-0.243313
-0.0709961
-0.00209241
-0.106472
0.108565
-0.165762
0.0877151
0.0780465
0.0559479
-0.0452629
-0.010685
0.292612
-0.132832
-0.15978
0.170944
0.200337
-0.371282
-0.146524
0.154959
-0.00843406
-0.0979372
-0.0350189
-0.136562
0.144529
-0.00796682
0.0514766
-0.0913742
0.0398975
0.0274139
0.187968
-0.0143382
0.0726858
-0.0583477
-0.573524
0.363198
0.210327
-0.0471343
-0.0188282
0.0659625
-0.0938292
-0.0288397
0.122669
0.0482227
0.0759381
0.0918367
-0.0403601
-0.0552961
0.029871
0.0254251
-0.153747
-0.181566
0.335312
0.0492209
0.11344
0.122747
0.108063
-0.23081
-0.0458032
0.084307
-0.0385037
0.266605
-0.223325
-0.0432796
0.166685
-0.144921
0.0993125
-0.0591366
-0.0401759
0.326243
-0.204486
-0.121757
0.515738
-0.635922
0.120184
-0.247003
-0.202159
0.449162
-0.205196
0.19511
0.0100858
-0.0462337
0.100213
-0.0539793
0.012913
0.0479097
-0.0608228
-0.0855897
0.0525115
0.0330782
-0.041754
0.0601222
-0.0183683
-0.520747
0.0628078
0.457939
-0.0658283
0.188576
0.0312077
-0.0265283
-0.00467938
0.119003
0.20724
-0.36592
0.0986321
0.267288
0.0597923
-0.0468792
-0.193823
-0.172097
0.170857
-0.405251
0.234394
-0.0231412
0.441956
0.231434
-0.0438256
-0.187608
-0.738718
0.449116
0.289602
-0.0373034
0.0353278
0.00197556
-0.195199
0.301017
-0.105818
-0.127793
0.1257
-0.0438964
0.0976301
-0.0537337
-0.0113632
-0.0201016
0.0314649
-0.311691
0.0787519
0.232939
-0.00439662
-0.0329068
-0.00183229
0.000225546
0.00160674
-0.239321
0.474259
-0.12437
0.0951825
0.0291874
-0.17638
-0.261619
0.437999
-0.00240628
-0.00247336
0.00487963
0.427596
-0.256738
0.248229
0.171001
-0.41923
-0.224801
-0.08689
-0.472597
-0.0830364
0.555633
0.00197492
-0.0822388
0.0802639
0.54523
-0.0730763
-0.472153
-0.175403
0.23487
-0.0594674
0.213182
0.230811
-0.443993
-0.0728248
-0.0929368
0.0389345
-0.162255
0.12332
-0.176034
-0.00296406
0.178998
-0.121259
0.054867
0.0663921
-0.323015
0.141565
0.18145
0.0800391
0.0192734
-0.00184177
9.47746e-06
0.0141939
-0.146535
1.03878e-05
-0.293587
0.16164
0.131948
-0.0954214
0.0511689
0.0137274
0.0463949
0.0130227
-0.0498247
0.036802
0.163222
-0.635819
0.0867352
-0.164407
0.0776718
0.0497268
-0.0765579
0.0268311
0.0411605
-0.0281378
0.00896027
0.0967743
-0.0990303
0.0527965
-0.371995
0.0235992
0.348396
-0.159645
0.33059
0.122074
-0.395478
0.273405
-0.0262817
0.0429003
-0.0166186
-0.0827388
-0.0385203
0.00904326
-0.00967976
-0.0387968
0.0125151
0.00471793
-0.00712421
-0.0665426
-0.00448983
0.0710324
-0.0823982
0.121333
-0.504224
0.564846
-0.0606225
0.00629464
-0.166916
0.00448334
-0.00359163
-0.000891714
0.442495
-0.229312
-0.125506
0.235891
-0.110385
0.128822
0.00971915
-0.138541
0.000257003
-0.521004
-0.353346
-0.220179
-0.0345196
-0.0472225
0.0817421
0.127759
-0.069224
-0.0579266
0.127151
-0.166133
0.00533538
0.160798
-0.15382
-0.0123127
0.0645325
-0.120884
0.0563513
-0.0423216
0.0369162
0.00540544
-0.100974
0.0752382
0.0257358
-0.0334347
-0.0337511
0.0671858
0.143933
-0.0151108
0.153683
-0.30743
-0.0648438
0.0747302
-0.00988638
-0.145232
-0.108243
0.253475
-0.166595
0.0300328
0.267316
0.177292
-0.444607
0.00380745
0.000681529
-0.00448898
0.544962
-0.0292235
8.96746e-05
0.0130685
-0.00402842
-0.00904012
-0.330153
-0.408565
0.0850833
-0.0353565
-0.373532
0.00153738
0.0270506
-0.077279
0.0502283
-0.0230448
0.0230448
-0.0391947
-0.0608345
-0.00638659
0.00638659
-0.126832
0.0330027
-0.0285185
-0.0828552
0.111374
0.443702
-0.195473
0.0518943
-0.0381669
0.0713475
-0.123639
0.0522915
0.113121
-0.0534291
-0.0596917
-0.0159233
0.0155589
0.000364422
-0.042859
0.0699097
-0.0649716
-0.334192
0.399163
0.613659
-0.0965187
-0.51714
-0.0333196
-0.00900199
0.00214192
-0.198019
0.190121
0.00789722
0.043648
0.00824628
0.260492
0.00611244
0.00812417
-0.0306886
0.0225644
-0.321541
0.0857822
0.235758
-0.323672
0.0579205
-0.00858891
-0.0533999
0.0619888
-0.209796
0.203255
0.00654111
0.0987078
-0.0992549
0.000547133
0.106561
-0.0552504
-0.0686768
0.0352422
-0.0596287
-0.0413452
-0.156049
0.0810832
0.0749656
0.139844
-0.151917
0.0120736
0.612611
-0.277682
-0.334928
-0.0453138
-0.0402759
0.111796
0.0223352
0.0123558
0.0135133
-0.0258691
-0.105902
-0.102424
0.208325
-0.12455
0.146311
0.0092286
-0.185262
-0.0597851
0.0466274
0.0131577
-0.0260165
-0.0832304
0.109247
-0.119033
0.0930164
0.201732
-0.181787
-0.0199444
0.541217
-0.407952
-0.133265
-0.0600379
0.00474185
-0.0735841
0.0277808
-0.131399
-0.14805
0.279449
0.0825962
-0.0443961
-0.0382001
-0.0796344
0.0652963
-0.391936
0.306333
0.0856025
-0.0310595
-0.0187652
0.310308
-0.278399
-0.0319086
0.136872
-0.114376
-0.0224956
-0.0243421
0.00155799
0.0227841
-0.00721411
-2.30063e-05
0.00723712
0.340482
0.200735
-0.0681962
0.214425
-0.146229
0.121061
-0.0460486
-0.0750121
-0.116768
-0.0977483
0.214516
-0.0172773
0.0161963
0.00108095
-0.0341723
0.10552
0.0402775
0.0386103
-0.0788877
0.081239
-0.163637
-0.277142
0.193557
0.0835856
-0.210772
-0.110768
-0.00284563
0.0278497
-0.0250041
0.231709
-0.000275601
-0.392094
0.327123
-0.127049
-0.103421
0.23047
0.0958959
-0.241128
0.0992401
-0.16546
0.322576
-0.157116
0.391737
-0.189247
-0.202489
-0.192479
0.37013
-0.177651
0.0435669
-0.150631
0.107065
-0.108121
0.0486731
0.0594481
0.0483918
0.0884803
-0.0562611
-0.153535
-0.100586
0.291174
-0.190588
0.050949
0.0311099
-0.0820589
0.122985
-0.0034198
-0.119565
0.053979
0.0129222
-0.0669012
-0.0208704
0.0398132
-0.0189429
0.0280826
0.158482
-0.186565
0.219626
-0.344317
0.124691
-0.223858
0.155661
0.26003
0.131707
0.0252352
0.00304377
-0.028279
0.0289924
-0.0204705
-0.00852193
0.384698
0.195304
-0.580003
0.0649243
-0.209801
0.144876
0.086874
-0.0254275
-0.0614464
0.0480233
-0.104943
0.0569197
-0.191175
0.00833743
0.182838
0.00252289
-0.00133447
-0.00118842
0.0744807
0.00753526
-0.0820159
-0.13029
-0.163297
-0.374045
-0.210313
0.374315
-0.164002
0.0692346
-0.0672597
-0.131171
0.168917
-0.0377463
-0.0371744
-0.160844
-0.127091
-0.357929
0.198284
-0.0179692
0.0317135
-0.0137442
-0.250358
-0.141577
0.28895
-0.571762
0.282812
0.309779
-0.549099
-0.0181408
-0.0214682
0.0396089
-0.214493
0.0977251
0.142719
0.307155
-0.449874
-0.240931
0.147582
0.0933491
0.155522
-0.350721
-0.037358
-0.328692
0.36605
0.0658089
-0.0550929
-0.010716
0.0201051
0.181627
0.0524162
-0.110343
0.0475253
-0.249061
0.201535
0.038125
-0.0853386
0.0472135
-0.287005
0.120431
0.166574
-0.149894
0.115722
-0.236398
-0.112562
0.348961
-0.0126715
0.0216111
-0.00893959
-0.0272928
0.027154
0.00013881
0.0209952
-0.00863944
0.00394225
-0.00973013
0.00578788
-0.58726
-0.508414
0.0594944
0.44892
-0.00663739
0.0104448
-0.0503048
0.103495
0.00953642
0.154781
-0.164317
0.000744117
0.0123244
0.0937153
-0.0410281
-0.0526872
0.0350898
0.00607073
0.00898875
0.0778852
0.546308
0.0106469
-0.556955
0.0253806
-0.0172564
0.0233823
0.00782546
0.00544088
-0.00967175
0.00423087
-0.0249299
0.075879
0.0325522
0.0611631
-0.0115733
-0.16383
-0.143684
0.00715107
0.136533
0.0566042
-0.0651931
-0.361905
0.196445
0.132954
-0.300694
0.16774
0.175085
0.287693
-0.186919
-0.100773
0.0406509
-0.10111
0.0283714
0.0756821
-0.104054
-0.0336579
0.0981904
-0.12434
0.100617
0.0237224
0.21104
0.111536
-0.0783711
0.121938
-0.241677
0.452716
-0.211039
-0.601825
0.2012
0.400625
-0.120775
0.14236
-0.0215844
0.1095
0.0134846
-0.0947158
-0.029654
0.0996587
-0.205561
0.0309514
-0.0780857
-0.0446219
0.0135624
0.0593658
0.047195
0.0114474
-0.01092
-0.00519158
-0.0191505
0.0628919
-0.186356
0.176668
0.00968823
-0.186341
-0.0048339
0.0313165
-0.0494573
-0.20747
0.0804209
0.0161735
0.0496354
-0.114145
0.0655775
0.0485672
0.169529
-0.481088
0.311559
0.0305522
-0.0493804
-0.0592202
0.0846897
-0.0254695
0.010248
-0.0767905
-0.011901
0.06588
-0.0169661
0.00429465
-0.161836
0.250874
-0.0890384
0.123467
-0.0360401
0.0381986
0.055424
-0.0936226
-0.508157
0.0577859
0.0420238
-0.0998097
-0.0135422
-0.00238106
-0.0941657
-0.0702412
0.0840572
-0.123888
0.0398308
-0.0848706
-0.0711782
-0.171502
-0.0148546
-0.324068
0.28671
-0.138411
0.338748
-0.409659
-0.192166
0.00202591
-0.217131
0.0320369
0.185094
0.0847418
0.013966
0.0619411
-0.191568
0.129627
0.241653
0.0256517
-0.267304
-0.173763
0.042592
0.15004
-0.141465
-0.18155
-0.00635674
0.0355064
-0.0291497
0.0163161
-0.00754332
-0.00877276
-0.0250631
-0.0138008
0.0388639
0.106147
-0.0668929
-0.00679452
-0.000419592
-0.0101724
0.00938495
0.000787494
-0.129674
-0.111257
0.227887
-0.474891
0.148485
-0.384883
-0.221883
0.00475221
0.0241994
-0.0834196
-0.158764
0.27653
-0.117766
-0.0195044
0.0195044
0.118919
0.241875
-0.360794
0.518624
-0.229674
-0.254412
0.0703595
0.184052
0.0380632
0.0555548
-0.093618
0.0239184
-0.0968568
0.0729384
0.112144
-0.0641206
0.0130119
0.0132726
-0.0262845
-0.025608
0.0142447
-0.16898
0.178516
-0.0171086
-0.145146
-0.139788
0.0977233
0.0420643
0.392841
-0.207321
-0.18552
0.183955
-0.194998
0.0110429
-0.405902
0.0182197
0.387682
-0.141992
0.0673527
0.0746393
0.0818395
0.608643
-0.363149
-0.245494
0.0162507
-0.0212087
0.00495797
-0.322876
0.261898
-0.13498
-0.126918
0.0160458
0.0482215
-0.0921179
-0.0897738
0.177554
-0.152214
-0.0253401
-0.139464
0.114048
0.0254163
-0.00559258
0.0110335
-0.148936
-0.0109575
0.159894
0.408565
-0.236448
-0.172116
0.00144425
-0.0030258
0.00158155
0.172987
-0.154239
0.4987
-0.344461
-0.000739844
-0.0304907
-0.113193
-0.386001
-0.222375
-0.162638
-0.0425575
0.00264466
-0.00301639
0.00037173
0.0584489
-0.0249316
0.0670474
-0.0421158
-0.0356326
0.11969
-0.0115888
-0.0266849
0.0382738
0.137383
-0.543285
0.109202
-0.0498365
-0.159259
-0.222912
0.382171
-0.0465781
-0.0524522
0.0375019
-0.0212512
0.0131341
0.124957
-0.138091
-0.0522451
-0.0911223
0.143367
-0.0801289
0.0551974
0.18855
0.011563
0.440921
-0.574667
0.133746
-0.254272
0.153687
-0.0102066
-0.0887629
0.0989694
-0.0500258
0.0320565
0.533801
-0.17754
-0.0937547
0.189571
-0.0958165
0.0863466
0.227116
0.233126
-0.460241
0.164399
-0.152847
-0.011552
-0.212738
-0.0305747
-0.0121669
0.0459943
-0.0342906
-0.0798541
0.115173
-0.120897
0.00572413
-0.352863
-0.00701872
0.00710839
-0.180417
0.128171
-0.0452942
0.12745
-0.0821556
0.0208623
-0.00785043
-0.116334
0.0216184
0.0305705
-0.155247
0.124677
-0.34778
0.129595
0.218185
-0.22835
0.208471
0.0198791
0.534404
-0.534404
0.0981511
-0.0697797
-0.233623
-0.274751
0.508374
-0.137134
-0.140008
-0.255545
-0.0426138
0.298158
-0.386682
0.145005
0.03513
-0.0414867
-0.196438
-0.165468
-0.258371
0.110198
0.148173
0.100853
-0.129692
-1.31621e-05
0.0163292
0.337458
-0.0645281
-0.27293
-0.154051
0.487539
-0.350679
-0.13686
-0.0399882
-0.135528
0.175516
0.00231425
-0.00964698
0.00733274
-0.0324006
-0.0281936
0.0605942
-0.0098151
0.0842958
0.0987929
0.137098
0.0219421
0.0112261
-0.0331682
-0.16334
-0.0316579
-0.282387
0.125102
0.157285
0.115064
0.490664
-0.605728
0.0458587
0.346683
-0.392542
-0.214598
0.343461
-0.128863
0.526119
-0.48026
-0.0203379
-0.042473
0.0628109
-0.180664
0.187135
-0.00647073
0.555985
-0.0921119
0.0881836
0.00392833
0.147573
0.339967
0.0784349
0.0346859
0.0470871
-0.087574
0.0404869
-0.0135018
-0.141548
-0.0370151
0.0948011
0.181609
-0.00405549
-0.0139002
-0.0307217
0.108752
0.00642071
-0.083571
-0.146869
0.23044
0.547921
0.106295
-0.116502
-0.11905
0.284521
-0.16547
-0.130324
0.331389
-0.201066
0.00183448
0.00720878
0.0115564
0.132122
0.0497592
-0.257524
-0.154045
0.136936
-0.0035644
-0.0137129
-0.0106357
0.0306958
-0.0200601
-0.131
0.145113
-0.0141133
-0.136467
0.18451
-0.048043
-0.0183932
0.194159
-0.175766
-0.0532542
0.0796321
-0.241468
0.039476
0.118074
-0.15755
0.00703218
-0.257945
-0.000700238
0.258645
0.298536
0.038922
0.0876021
0.07883
-0.166432
-0.0673118
0.106788
0.0334815
-0.0649702
0.0314887
0.136123
-0.131961
-0.00416225
0.0394403
0.499248
-0.538688
0.0889064
-0.132247
0.0433406
0.0232909
0.467373
0.115675
-0.37122
-0.0218941
-0.00247394
0.0243681
0.0129327
-0.306453
0.0918551
-0.0619324
-0.0494101
0.111342
-0.188012
-0.154347
0.421663
0.133408
-0.0892538
-0.0441545
0.0101786
-0.0330134
0.0228348
-0.289189
-0.0258422
0.315031
0.0595089
-0.303098
0.243589
0.0421169
0.503113
-0.193637
-0.135887
0.329524
-0.0245528
-0.00274002
0.172892
-0.462081
0.175295
-0.258866
-0.0784667
0.0414516
0.185284
-0.341999
0.156715
-0.257652
0.223793
0.0338597
0.00253512
0.00557595
-0.00811108
0.454097
-0.232315
-0.221782
-0.0547242
0.096748
0.143302
-0.447931
0.304629
-0.0227661
-0.0527744
0.0755405
-0.0228676
0.000973465
0.0729992
-0.0395176
0.22864
-0.181114
0.232552
0.239519
-0.472072
-0.151475
0.115842
0.130139
-0.141712
-0.469475
0.16876
0.300715
0.0146985
-0.168881
0.154182
0.305146
-0.538208
0.233061
-0.0300703
0.118977
-0.200642
-0.147138
-0.0329622
0.120564
0.119808
-0.0320928
0.134955
-0.22871
-0.00196948
-0.000503882
0.0923226
-0.0684042
-0.0512341
0.0308963
-0.0803031
0.142244
-0.276811
0.420114
-0.0754643
-0.02838
0.103844
0.225437
-0.109795
0.140366
-0.055009
0.0932076
-0.131268
0.0104922
-0.0859153
0.0631492
0.0357535
-0.0138114
0.618826
-0.00516738
-0.0275864
0.0159976
-0.0753154
0.117847
-0.0425321
-0.166383
-0.0142815
0.094072
-0.185194
-0.00235565
-0.0131155
0.0154712
-0.00658167
0.0314817
-0.0249
-0.449807
0.273427
0.466782
0.0795257
-0.0751667
-0.334492
0.0468007
0.0475684
-0.094369
0.0565088
0.0645519
0.00342934
-0.00428634
0.000856995
0.00264157
0.336032
-0.276523
-0.0711942
-0.0189284
0.0901227
-0.0348948
0.0647658
0.0849168
-0.0625347
-0.0223822
-0.111944
0.0666493
0.158148
-0.198136
0.0197835
0.141213
-0.160997
-0.347464
0.294828
0.052636
-0.0605345
0.0871589
-0.0266244
-0.0254638
0.0193905
0.00607329
-0.161077
0.128114
0.0587865
-0.0756732
0.0168867
-0.299946
0.306315
-0.381482
0.255627
0.0696316
-0.325259
-0.147275
0.16041
0.193855
0.24864
0.0497504
-0.08427
-0.433671
0.279432
0.00151168
0.0177652
-0.0301919
-0.162715
0.132645
0.0739703
-0.0439209
-0.244497
-0.102967
0.158207
0.0106904
-0.277658
0.108678
-0.000940162
-0.0183367
0.220375
0.388267
0.253835
0.00179245
0.226315
-0.377541
0.151226
0.0770995
-0.531481
0.454382
-0.0805475
0.123189
-0.0426416
0.0121853
0.00139749
-0.00136289
-3.45953e-05
-0.00492689
0.00133527
0.459668
0.0150988
0.226554
0.0103194
-0.146787
0.0365509
0.058537
-0.095088
-0.0293556
0.109151
-0.0797953
0.0329074
-0.166206
0.133298
-0.356185
0.205805
0.15038
-0.0975198
0.0646317
0.0328881
0.144928
-0.205223
0.0602956
-0.0657998
0.0333992
0.13031
0.245181
-0.375491
0.0546174
0.0430127
-0.0245666
0.0022963
0.0222703
-0.199813
0.393668
0.176307
0.14936
-0.0623889
-0.0869709
0.236417
-0.279171
-0.132291
0.141073
-0.00878155
-0.15374
-0.099786
0.253526
0.0285998
-0.0314454
0.040347
-0.107379
0.067032
-0.0386871
0.0789646
-0.371218
0.17478
0.0570191
0.0443625
0.0413217
0.100917
0.0484431
0.348705
0.24831
0.00676698
0.0209483
-0.0277153
0.370841
-0.169729
-0.201112
0.0377653
-0.0678115
0.0300462
-0.457099
0.170854
0.286245
0.298907
-0.497441
0.198534
-0.00125533
0.029105
-0.0903603
0.0906319
-0.000271541
0.0750022
-0.037237
0.048343
-0.119537
-0.0164624
-0.128101
0.144564
0.302315
-0.183396
-0.0408044
0.0207028
-0.140746
-0.235445
0.376191
0.0579685
-0.0808542
0.0228857
0.0460455
-0.0994746
0.109549
0.0749612
-0.216145
0.488763
-0.272618
0.397926
-0.19201
-0.205917
-0.0120254
-0.115767
-0.138853
0.158637
0.586281
-0.223084
0.0754528
-0.121501
-0.081066
0.0434647
0.0376014
-0.138668
0.125167
-0.36671
0.342185
-0.000311595
0.000908673
0.0258487
-0.0156701
0.0410764
-0.192661
-0.121109
0.31377
0.0617619
0.0716464
0.182084
0.100507
0.162761
-0.263268
-0.0352704
-0.0890694
-0.0184933
0.0185521
-5.87932e-05
0.143527
-0.142961
-0.000565879
-0.00736149
0.0325967
-0.12123
0.0319762
-0.0441756
0.0245488
-0.233458
0.114407
-0.0129026
-0.0125611
-0.0375673
0.0955358
-0.0630764
0.376907
-0.313831
-0.0128646
-0.145888
0.0122151
-0.0876794
0.0199809
-0.0030078
-0.187853
0.16946
-0.0840657
0.116973
0.0508728
0.0317235
-0.294583
0.500259
-0.205677
0.136243
-0.136489
0.000245813
-0.14995
-0.371209
0.521159
-0.191204
-0.038181
0.229385
-0.0574298
0.0134604
-0.0286825
0.0152221
-0.135233
0.0625868
0.0726458
0.317346
-0.359959
0.463672
0.148939
0.162285
0.28907
-0.451355
0.0366608
0.162039
-0.198699
-0.116208
0.0856231
0.0305853
-0.00883889
0.00648323
-0.0703778
-0.0694099
-0.0421511
0.0889517
-0.00247709
-0.0170274
-0.114728
0.123967
-0.00923951
-0.114179
0.151128
-0.036949
0.0316287
-0.0248952
-0.00673357
0.121935
-0.253334
0.00338445
0.162308
0.031249
-0.0176333
0.384183
-0.366549
0.257709
-0.291014
0.0333053
0.17581
-0.164254
0.0913206
-0.137667
0.0463459
-0.405605
0.332528
-0.0640954
0.158167
0.062321
0.0672487
-0.12957
-0.0508942
0.111193
-0.0602985
-0.14557
0.0313905
0.0557742
-0.0812773
0.0255031
-0.291209
0.143159
0.0863502
-0.030576
-0.0689052
-0.0261154
0.0950206
-0.123504
0.129478
-0.00597421
-0.0104315
-0.101103
0.111535
0.684277
-0.411638
-0.272639
0.229495
-0.0150075
-0.214487
-0.0096852
-0.0197392
-0.0141633
0.0339026
0.2909
-0.167038
-0.123863
-0.0922377
0.00187736
0.021866
0.29548
-0.265233
0.0394123
-0.406122
-0.14916
0.185821
-0.0107167
0.0695032
-0.364187
0.233863
-0.120401
0.0400828
-0.19887
0.329842
-0.130972
0.00781735
0.140593
0.257334
-0.14728
0.14731
-2.98313e-05
-0.17459
-0.103068
-0.430493
0.214348
-0.403016
0.243463
0.159553
0.100968
-0.0606212
0.0205855
0.123943
-0.0552908
-0.0353413
0.0906321
0.00771558
-0.381813
0.318737
0.176772
-0.472422
0.454789
-0.0341878
0.0450945
-0.0109067
-0.145905
0.115414
-0.137721
0.061207
0.0765143
0.0247191
-0.0112587
-0.168375
0.0843098
-0.16739
0.177709
-0.0604409
0.0219786
0.0384623
0.299365
-0.0730506
-0.406554
0.265808
0.428893
-0.525412
-0.215835
-0.140349
0.0882015
-0.0516505
0.480898
-0.175752
0.183845
0.299482
-0.483327
-0.0995424
0.0399136
0.033903
0.0619003
-0.0958033
0.017094
0.129827
-0.146921
0.297087
-0.0271516
-0.018699
0.00528241
-0.00275952
0.105036
0.00743123
-0.112467
-0.18422
0.0066634
0.177557
-0.175743
0.0228965
-0.0474461
-0.0195073
0.0669534
-0.00515245
-0.109576
0.00728401
0.0440765
-0.0513605
-0.0425233
0.0684713
0.0376757
0.00631835
-0.00750836
0.201824
-0.0568959
0.11617
-0.14518
0.0290104
0.0484663
-0.0978751
0.0494088
0.607543
-0.0169098
-0.590633
-0.040804
0.24014
-0.173597
-0.0665431
0.453432
-0.376332
-0.00152809
-0.0138042
0.0153323
-0.135994
0.123969
0.0374458
-0.00775664
0.0363564
-0.11599
0.0622076
0.0537823
-0.195892
-0.175327
0.00871248
-0.127796
0.437574
0.197962
-0.183263
0.183426
-0.195356
0.0119304
-0.0576553
-0.170695
-0.271093
-0.224856
0.495949
-0.00273506
0.00140059
0.0128088
0.00899591
-0.11195
0.102954
-0.062554
0.0863054
-0.0237514
-0.0194314
0.16694
-0.147509
-0.00423882
-0.0203278
-0.0470639
-0.045048
0.13382
-0.0176497
-0.0230081
0.0123724
0.215501
0.0246393
0.457594
-0.290388
-0.154802
0.445189
0.435369
-0.202244
0.269574
-0.20185
-0.0677236
-0.00538745
-0.0176573
0.15865
-0.174659
0.0160092
-0.000525224
0.0436294
-0.0908518
0.523014
0.0113896
-0.0233532
0.121076
0.0645099
-0.139619
0.0751094
-0.309602
0.601729
-0.292127
-0.284145
0.0929411
0.0134519
-0.00564247
0.140271
-0.273103
-0.0509875
-0.0867337
0.0913373
-0.250101
-0.289792
-0.111092
0.400884
0.125756
0.0104869
0.0538549
0.141255
-0.0184464
-0.0114069
0.0298533
-0.045919
0.101917
-0.0559982
-0.060865
0.0134189
0.0536483
-0.0463642
-0.0996844
-0.0458854
-0.0809801
0.00442216
0.260485
0.269304
-0.529789
0.0134131
-0.0541056
0.0406924
-0.108769
0.0601124
0.0486561
-0.288298
0.171158
-0.0197326
-0.151426
0.00676279
-0.000376198
0.158512
-0.351173
0.121393
-0.0814274
-0.039966
0.251781
-0.368991
0.11721
0.00938242
0.0136623
0.0790699
0.0423234
0.11218
0.149718
0.14624
0.356236
-0.13661
-0.67127
0.225994
0.445276
-0.169622
-0.0145982
0.0379909
-0.0306284
-0.0073625
0.359092
-0.243318
-0.115775
0.0491185
0.206799
-0.255917
-0.134424
0.0175731
0.116851
-0.215893
0.080913
0.00173935
-0.000301304
-0.00143804
-0.00797038
0.0912365
-0.0832661
0.292969
0.133914
-0.426883
0.503112
0.0422502
-0.300195
-0.105721
-0.0104871
-0.189394
0.322952
-0.133559
-0.610402
0.42477
0.185632
-0.0550881
0.0841515
-0.0290634
0.0794252
-0.0408149
-0.136012
0.427536
-0.291524
-0.159056
0.400932
0.0416089
0.0982347
-0.0281077
0.00157933
0.223935
0.24853
-0.472465
0.286957
-0.18826
-0.0986976
0.0975371
0.0635056
-0.0940261
0.0305205
0.474527
-0.290682
0.000319117
0.00232554
0.0049904
-0.15227
-0.104794
0.0242463
-0.0490535
-0.0541676
-0.0263073
0.080475
0.254923
-0.0337098
-0.0632094
0.0969192
-0.203147
-0.336668
-0.0103991
-0.0343968
0.0447959
-0.158762
0.00494122
0.00869732
0.144366
-0.153063
0.221832
-0.43502
0.213188
0.0411932
0.216515
0.00339181
-0.00439893
-0.0377885
-0.0219967
0.150312
-0.440104
0.114268
-0.0702933
-0.0439749
0.0244279
-0.0176609
0.00504581
-0.000960789
-0.0742951
-0.0465887
0.43629
0.0115332
0.011849
0.37234
0.224675
0.293743
0.0653492
-0.0132067
-0.121218
-0.0379047
-0.0425587
0.0804634
-0.254449
0.0678113
0.186638
0.0607643
0.0391265
-0.0998908
0.101339
-0.0754747
-0.0258646
-0.126664
0.238844
0.164944
0.262514
-0.61586
-0.0798189
-0.177833
0.0127909
0.256783
-0.551313
-0.427608
-0.182794
-0.0968013
0.0868076
0.00999369
-0.211234
0.450754
-0.131332
0.0663055
0.168565
0.0151888
0.0228021
0.313917
0.283097
0.035029
-0.246444
-0.140886
0.387331
-0.0307111
-0.0145333
-0.135361
-0.0884322
-0.0165108
0.0216091
-0.0296554
-0.109809
0.156168
-0.160914
0.00474596
0.00532777
0.14511
-0.150438
0.585122
0.162623
0.092479
0.135168
-0.319407
-0.351862
-0.175522
0.482678
0.00331719
0.0066158
-0.00993299
0.0281587
-0.100038
0.0718792
-0.000365783
0.338184
-0.120542
-0.217642
-0.485953
-0.10468
0.0472699
-0.0639118
-0.0310049
0.0949167
0.0371719
-0.047571
-0.0189717
-0.000441663
0.0194134
-0.0572571
0.0911601
-0.134775
0.0618231
0.0729524
0.000403543
0.238799
-0.397855
-0.479717
-0.184762
-0.00110571
0.014238
-0.0131323
-0.146749
-0.012013
-0.0638204
-0.0340547
0.0800975
0.0341706
0.238028
0.197341
0.404589
0.140373
-0.110342
0.081372
0.02897
0.0370605
-0.327448
0.026992
-0.0347486
0.187577
-0.0369919
-0.150585
0.0270698
0.0742696
0.378103
-0.144727
-0.233376
0.0221357
-0.177029
0.514333
-0.337303
0.0630857
0.0250978
-0.0333742
-0.182167
-0.144738
0.326905
0.0219469
-0.0673252
0.0453784
-0.107943
0.0620245
-0.01747
-0.0635101
0.00450519
-0.00143969
-0.00306551
-0.0802999
0.0723295
0.00455643
0.042071
0.0337304
-0.15828
0.0618809
0.0245044
-0.0235784
-0.000926011
0.122318
-0.113322
0.0954242
-0.040404
-0.0550202
-0.267559
0.0890192
0.17854
0.348132
-0.0963511
-0.0621193
-0.00324942
-0.00692302
-0.118234
0.0912373
0.0269962
0.171527
0.0160499
0.177887
-0.361106
0.183219
-0.0859002
-0.0292898
0.11519
0.259237
-0.15873
-0.0312647
0.0490139
-0.0177493
-0.0228337
-0.0002801
0.0231138
0.156392
-0.0791434
-0.175306
0.194592
-0.363404
0.168811
0.136417
-0.15288
0.0385603
-0.0938512
0.129263
-0.255927
-0.0200446
-0.00278911
0.0455694
-0.0834741
-0.0294261
-0.0122645
0.0416906
0.0888629
0.030945
-0.153581
-0.128806
-0.511236
0.272589
0.238647
-0.0778933
0.0153551
0.0625381
-0.199654
0.0479864
-0.090222
0.0422355
0.16359
-0.0137817
-0.149808
-0.0365059
0.125369
-0.386026
0.250014
0.453486
-0.22774
-0.225746
-0.0813353
-0.0368983
0.103925
0.00111146
-0.0270205
-0.0308122
0.0823544
-0.0515421
0.0516367
0.0588097
-0.110446
-0.287522
-0.526122
0.349093
0.212431
0.0170635
-0.0119124
0.0234457
0.058874
-0.122658
0.0637839
-0.0361306
0.0841171
0.482607
-0.234529
-0.248079
0.014991
0.0200988
0.0419664
0.0505306
-0.092497
-0.0503272
-0.0723771
0.122704
0.182221
-0.226046
0.192856
0.0480078
-0.240863
-0.105924
0.265726
-0.250627
0.00176386
-2.4512e-05
0.0150185
-0.197786
0.376239
-0.178453
-0.103695
-0.0376288
0.0951549
-0.057526
0.00496404
0.170846
0.00911187
0.141607
-0.14076
-0.000847498
0.16971
-0.377031
-0.0387293
0.095707
-0.0569777
0.193859
-0.281274
0.087415
0.0972457
-0.107677
0.286022
-0.158805
-0.127218
-0.103924
0.00888681
0.0993718
-0.108259
0.353105
-0.00177979
0.138279
0.0103977
-0.012181
0.00178329
0.172176
0.211359
-0.383534
-0.301916
0.153984
0.147932
0.351921
-0.107334
-0.244587
-0.0167929
0.0213854
-0.0398318
-0.00762321
-0.158582
-0.0967294
0.0464246
0.1125
-0.0559912
-0.252042
-0.0155173
0.0829204
-0.226399
0.143479
0.101507
0.0153646
-0.0120474
0.0479772
0.0601381
-0.108115
-0.00535673
0.0724041
0.468184
-0.239801
-0.228383
0.231706
-0.0769246
0.00881453
-0.00322967
0.00479036
0.209635
-0.00822019
-0.154495
-0.0632725
0.00592627
0.0573462
0.150166
0.0134237
-0.167474
-0.0203797
-0.000352433
0.00174992
-0.0540321
-0.0333395
0.0873716
-0.0105912
0.0131263
-0.140937
-0.0485138
-0.172856
-0.0474286
0.0619881
0.0229288
-0.00546617
0.0352627
-0.0297966
0.193968
0.128985
0.0985739
-0.220329
0.121755
-0.0101883
0.035798
-0.0256097
0.11928
-0.0569928
-0.0622872
-0.0800767
-0.0546988
0.494213
-0.0896242
0.0486835
-0.0267049
0.00982082
-0.0134353
0.00361452
-0.158411
-0.244605
-0.102466
-0.0119104
-0.159146
0.448216
0.341041
-0.218967
-0.0243059
-0.0394823
0.0637882
-0.285469
-0.110009
-0.0120596
-0.0995558
0.111615
-0.00764835
-0.139627
-0.0240422
-0.0557585
0.0798008
-0.261774
-0.195325
0.265077
0.154135
-0.0413745
0.138905
-0.195166
0.00314293
-0.00552245
0.00123611
0.0446174
-0.0856455
-0.0531074
-0.010165
-0.240674
0.389158
0.127524
0.157953
-0.320325
0.162372
0.462222
-0.234334
-0.0824046
-0.0388254
0.169937
-0.0290722
-0.140865
0.00297498
-0.0121678
-0.148909
0.240296
-0.0438976
-0.196398
0.142651
-0.0900389
-0.052612
-0.0682477
0.284712
-0.216465
0.114404
-0.313274
-0.196272
-0.132806
0.329078
-0.0394295
-0.0588504
0.0982799
-0.0188254
-0.000146307
0.0446341
-0.0133176
0.19389
0.175718
-0.369608
-0.099075
-0.0170069
0.116082
-0.0337124
0.0204745
0.0132378
0.301637
0.210463
-0.512101
0.181544
-0.377436
0.238239
-0.0783738
-0.159865
0.00261974
0.00400193
-0.00662167
-0.0102868
-0.0409159
0.0949303
-0.248671
-0.112909
0.0736142
0.0392948
-0.0150413
0.115894
0.138489
0.00767589
-0.146165
0.0615829
-0.192381
0.130798
0.277069
-0.0831016
0.0267302
-0.108437
0.0817065
0.06471
0.0531375
-0.119806
0.0207314
0.0471352
-0.101772
0.0546365
0.0892619
-0.0169935
-0.0722683
0.425161
-0.187133
-0.185317
0.506246
-0.320929
-0.0456067
0.110117
0.544876
-0.406767
-0.138109
-0.123074
0.0784198
0.0446547
0.145084
0.0866217
0.0279249
0.220531
-0.347422
0.126892
-0.00452174
0.0247371
-0.0202153
0.00376857
0.00073662
0.0101301
0.213668
0.19022
-0.454381
0.264162
0.197367
-0.15328
-0.154041
0.307321
-0.00995991
-0.0868414
0.183564
0.148785
-0.332349
-0.253467
-0.257769
0.114006
0.0644242
0.0548558
-0.228911
0.452846
0.0385722
0.0495104
-0.0880826
0.581548
-0.267631
0.361494
0.169711
-0.531205
0.0244573
0.0598497
0.154033
-0.0136366
-0.140397
-0.162721
0.313988
-0.151267
0.0312621
-0.00911301
0.0112199
-0.00210686
0.0550073
-0.088717
0.157279
0.387598
-0.00780335
0.00627526
-0.202007
-0.139992
0.19418
0.260702
-0.139363
-0.014682
0.0231796
0.162907
-0.186087
0.12904
-0.0774032
0.0609214
0.0430033
0.0398736
-0.139558
0.0629597
0.29543
-0.35839
0.129795
0.0117257
-0.111956
0.0488825
0.0630731
-0.0159204
0.0154787
0.0574861
-0.0951149
0.377702
0.225386
-0.603088
-0.0153766
-0.0133058
0.0178947
0.0779138
-0.0958085
-0.144867
0.176116
0.184612
0.0616058
-0.0189058
0.0164136
0.00249223
0.0424396
-0.0641234
0.0216838
-0.0347303
0.0149869
0.0197434
-0.0294564
-0.00527384
-0.120272
0.0378677
0.118985
-0.0127723
-0.125896
0.156378
-0.193552
-0.142741
-0.188094
0.333544
-0.14545
-0.0685526
0.0967113
0.458766
-0.0972711
-0.196461
0.380024
0.334577
0.246972
0.00413595
0.00114646
-0.00314448
0.0425209
-0.0342746
0.00371747
-0.0143965
-0.137079
-0.308875
-0.218592
0.527467
0.0234626
-0.037626
0.04246
-0.0811471
0.0306502
-0.0846823
0.24679
0.170355
-0.417146
0.100398
-0.288657
-0.00507371
0.298043
-0.0133343
-0.138666
0.152
-0.046697
0.171024
-0.124327
-0.0613174
0.0832642
0.15868
-0.347039
0.188359
-0.00357302
-0.00246213
-0.00845786
0.189923
-0.0977063
-0.0922164
0.113578
0.0763446
0.112692
-0.0482679
0.124145
-0.105548
-0.0185973
0.336074
0.251703
-0.587777
-0.00409529
0.000892757
0.00320254
-0.20324
0.335768
-0.132528
-0.00220228
0.0120231
0.0329725
-0.513014
0.480041
0.0213163
-0.025838
-0.00286875
-0.00681101
-0.0599663
0.0545702
0.0686188
0.395892
-0.19638
-0.199512
-0.214772
0.344367
-0.0940159
0.543132
0.210938
-0.332047
0.224495
0.153608
-0.0338977
-0.0624528
0.0963505
0.00285905
-0.000239306
-0.101536
0.264297
0.0820632
-0.0785108
-0.0302578
0.0555045
0.127921
-0.287939
0.129134
-0.0943943
0.0481818
0.0462124
0.176691
-0.0185433
0.0274648
-0.0140517
-0.0196305
0.000157084
0.0194734
0.0116004
0.0131187
0.0735085
-0.123836
-0.523758
0.249007
0.485982
0.013266
0.017694
-0.0330706
-0.410471
0.260375
0.150096
0.273434
-0.0257116
-0.247723
0.0455516
0.125607
-0.0311536
-0.0547617
-0.158832
0.0060268
0.152805
0.309653
-0.588568