/*--------------------------------*- C++ -*----------------------------------*\
| =========                 |                                                 |
| \\      /  F ield         | OpenFOAM: The Open Source CFD Toolbox           |
|  \\    /   O peration     | Version:  v2012                                 |
|   \\  /    A nd           | Website:  www.openfoam.com                      |
|    \\/     M anipulation  |                                                 |
\*---------------------------------------------------------------------------*/
FoamFile
{
    version     2.0;
    format      ascii;
    class       volVectorField;
    location    "100";
    object      U;
}
// * * * * * * * * * * * * * * * * * * * * * * * * * * * * * * * * * * * * * //

dimensions      [0 1 -1 0 0 0 0];


internalField   nonuniform List<vector> 
14804
(
(0.741265 0.00828302 -3.10533e-22)
(1.0071 0.00951593 0)
(1.04785 0.00376436 1.89021e-22)
(1.04977 0.0117897 3.79412e-21)
(1.05727 0.0147085 4.02643e-23)
(1.06188 0.00614926 -2.23816e-22)
(1.02794 0.043385 -1.08195e-22)
(0.978568 0.00584567 2.33748e-20)
(1.04518 0.00918855 0)
(1.00029 0.000201714 -6.36871e-24)
(1.11998 -0.0164414 0)
(1.0482 0.00258888 0)
(0.968571 0.000102294 1.06853e-21)
(1.05175 0.0105409 -2.856e-21)
(1.14187 0.0370357 7.8971e-20)
(0.069635 -0.00294042 2.75028e-20)
(1.05795 0.01427 8.78959e-23)
(1.0497 0.0128544 8.4872e-21)
(0.316602 0.00881555 4.11246e-21)
(1.04851 0.00893468 0)
(0.999999 -1.00808e-05 4.92486e-21)
(1.00935 0.0682161 4.0305e-21)
(0.972524 0.130841 7.95668e-21)
(1.03101 0.0344811 -1.95944e-22)
(0.0497506 -0.00405701 0)
(1.02982 0.0348456 1.15787e-22)
(1.04878 0.00907313 0)
(1.05516 0.0133617 7.91935e-21)
(0.833901 0.00844398 3.32415e-21)
(1.03722 0.0252228 3.57616e-21)
(1.0311 0.0095459 -2.29665e-22)
(0.954061 0.120783 0)
(1.04846 0.00891828 8.20503e-21)
(1.07206 0.0280549 0)
(1.04596 0.00996946 -3.21946e-21)
(1.02895 0.042852 8.85976e-23)
(1.0582 0.0167114 0)
(1.00002 0.000903357 0)
(0.974276 0.0892296 3.41387e-20)
(1.04954 0.00860609 -8.07623e-21)
(1.04749 0.00409952 -4.37206e-21)
(1.04623 0.00995053 0)
(0.701422 0.288411 0)
(0.994389 0.0176139 8.23627e-21)
(1.05661 0.0144163 0)
(0.955298 0.0291488 0)
(1.04406 -0.0165289 -4.17666e-21)
(0.98212 0.0283318 -2.77002e-20)
(1.00933 0.0705832 8.11483e-21)
(1.1232 0.301703 -6.96037e-20)
(0.967081 0.00296139 -2.55434e-20)
(1.01766 0.000492358 -4.40709e-21)
(0.99904 0.00548773 1.07585e-20)
(1.04569 0.0121495 0)
(1.11179 0.327911 0)
(1.02309 0.0131392 -4.70751e-21)
(1.04227 -0.000995741 -2.15417e-21)
(0.852541 0.00871631 2.28387e-21)
(0.99621 -0.00383589 -1.59201e-20)
(0.952833 0.0295183 0)
(0.575819 0.0159973 -5.27041e-21)
(0.965439 0.00354051 -2.49221e-22)
(0.995892 0.0196921 -4.45184e-21)
(0.995253 0.0119062 -4.83425e-21)
(0.99553 0.0189091 -3.96818e-21)
(0.998756 0.00471858 -8.04213e-21)
(0.999974 -6.71543e-05 -1.20406e-20)
(1.02121 0.0450806 0)
(1.00148 0.000444825 0)
(0.621166 -0.0101986 5.38208e-22)
(1.03353 0.00720799 1.01649e-21)
(1.04873 0.00913303 0)
(1.12941 -0.0111906 1.18057e-20)
(0.528059 -0.0190804 4.49528e-21)
(1.04018 0.00833709 4.09735e-21)
(0.638691 -0.00981937 -5.60248e-22)
(-0.0304839 -0.0081925 1.34332e-22)
(1.00727 0.00919734 4.15248e-21)
(0.832181 0.136085 0)
(1.02139 0.00579783 -1.52497e-21)
(-0.0846839 -0.021448 7.19561e-20)
(0.998937 0.00485025 7.29098e-21)
(1.0214 0.00667531 1.65199e-21)
(1.04008 0.00868604 -1.87384e-21)
(1.00006 0.000583416 2.24367e-21)
(1.08034 -0.00926478 1.81218e-20)
(1.01032 0.00155707 -4.94071e-21)
(1.04294 0.0106132 -1.73781e-21)
(1.00873 0.0069305 3.81635e-21)
(1.05568 0.0136479 8.7726e-21)
(1.06712 0.0337054 -2.7005e-22)
(0.983947 0.0637593 -5.20438e-21)
(1.04627 0.00846739 -4.41451e-21)
(1.03221 0.00714377 6.71144e-22)
(1.13157 0.296502 5.18009e-20)
(-0.014827 -0.0098877 4.54357e-20)
(0.821157 0.00829706 -2.29251e-21)
(0.953109 0.115109 0)
(1.01646 0.041345 -3.65172e-21)
(1.12638 -0.0185616 0)
(0.84134 0.0088279 -2.3171e-21)
(0.714274 -0.0136031 -9.78469e-22)
(1.00004 0.000472768 4.87093e-21)
(1.05213 0.00998623 8.9808e-22)
(1.04086 0.0124157 -1.88527e-21)
(0.655735 -0.0138891 2.06815e-21)
(1.04813 0.00294765 0)
(1.10422 0.325668 -2.59524e-20)
(0.993138 -0.00174918 1.37098e-20)
(1.03164 0.00950266 3.43156e-22)
(0.994116 0.00685834 0)
(0.750942 0.00961654 3.01769e-21)
(1.04623 0.00827165 -3.58574e-21)
(-0.190975 -0.0139674 5.10331e-20)
(0.727788 0.0108079 -4.09691e-21)
(-0.122463 -0.0195924 4.61491e-20)
(1.03899 -0.00233033 -1.34325e-21)
(1.06854 0.0328211 9.82942e-21)
(1.00005 0.000570209 -1.57007e-20)
(1.05006 0.0129937 -8.50527e-21)
(-0.0535409 -0.0107155 -8.89844e-20)
(1.00879 0.00662757 -1.12305e-20)
(1.03676 0.0436361 3.07975e-21)
(1.06252 0.014538 -1.46865e-21)
(0.996592 -0.0038897 1.45022e-20)
(1.00002 0.000646404 0)
(1.03875 -0.000271062 2.91171e-21)
(1.05183 0.0101773 -3.55186e-21)
(0.968144 0.141672 -1.76811e-20)
(1.06106 0.0203963 0)
(1.06111 0.0214216 0)
(1.11129 0.00259891 0)
(0.630216 -0.00216009 0)
(1.11063 -0.0212464 0)
(1.04386 0.00373549 -2.67201e-21)
(1.06169 0.0145759 0)
(0.993641 0.017456 1.06316e-20)
(1.10893 -0.036706 0)
(1.03748 0.0206574 0)
(1.07367 0.0288026 0)
(1.00295 0.00937224 7.13506e-21)
(0.0827505 0.0233294 0)
(1.01712 0.000414334 4.42333e-21)
(-0.236566 -0.011451 0)
(0.224653 -0.00604855 0)
(1.00128 0.000393674 0)
(1.04199 0.0123127 0)
(0.993713 -0.00161511 -1.33428e-20)
(1.05911 -0.020771 0)
(0.322662 0.0112518 5.6127e-21)
(1.04515 0.0089548 0)
(0.109883 0.00088487 0)
(1.04946 0.00877435 9.00631e-21)
(1.05144 0.00960202 -8.42442e-21)
(1.02122 0.00635197 -3.71257e-22)
(0.801089 0.00884802 0)
(1.04868 0.00815003 -4.57281e-21)
(1.16376 0.012075 -2.62512e-20)
(0.289733 0.000446066 -1.55479e-21)
(1.06141 -0.0217889 -8.59344e-21)
(1.00441 0.00570376 0)
(1.00298 0.000624778 -1.25834e-20)
(0.642278 -0.00309262 0)
(0.0251293 -0.00299222 1.26611e-20)
(1.0486 0.018886 1.01293e-20)
(0.787975 0.00926072 0)
(0.981557 0.0296503 1.97423e-20)
(0.564361 0.0147477 0)
(1.03777 0.0232463 -1.52098e-21)
(0.978666 0.00465284 -3.03109e-20)
(1.04722 0.00626947 0)
(0.991556 0.0736753 -8.93052e-21)
(1.05416 -0.00358611 4.1924e-21)
(1.13753 0.0366392 -3.818e-20)
(1.05383 0.00462406 3.28118e-21)
(1.11187 -0.0201612 -2.02909e-20)
(0.843667 0.0645179 0)
(1.07354 0.0235013 0)
(1.01376 0.00128596 -1.99457e-21)
(1.04302 -0.00147479 -8.03086e-22)
(1.06107 0.00584727 -8.6174e-21)
(0.420584 -0.041101 4.58368e-23)
(1.02959 0.0392214 -4.5516e-22)
(0.88144 0.00506297 6.73315e-20)
(0.983687 0.0613338 0)
(0.879605 -0.00355362 1.75475e-21)
(1.08503 0.0213359 1.90122e-20)
(1.08361 0.0224313 -1.73261e-20)
(1.05261 0.0248186 0)
(1.01833 0.00722761 2.25461e-21)
(0.69069 0.267406 3.52282e-20)
(1.02179 -0.0170243 2.43188e-21)
(1.01202 0.0334658 3.70784e-21)
(1.09025 -0.0341252 0)
(1.05582 0.0163712 -2.37247e-21)
(0.999578 0.0178192 0)
(0.730006 -0.0148381 1.05733e-21)
(0.97029 0.0037313 -4.43475e-21)
(1.10342 0.086099 0)
(0.40529 0.00789849 -2.02179e-21)
(0.127171 -0.00926857 -4.46371e-21)
(1.01858 0.00706174 0)
(1.04416 0.0265696 -7.01006e-21)
(1.12317 0.0489432 0)
(0.94895 -0.00508543 0)
(0.311588 0.00335406 1.57578e-22)
(1.04865 0.00801612 -7.50413e-21)
(1.09775 -0.0313929 1.32709e-20)
(1.06992 0.0336038 0)
(1.02636 0.0457438 0)
(1.03736 0.0237705 -1.12695e-21)
(0.586253 0.0163805 -4.19141e-21)
(1.02259 0.0455584 0)
(1.00443 0.00553588 0)
(1.00084 0.0482014 0)
(1.03793 0.0212542 0)
(1.05148 0.00998378 0)
(1.00274 0.0214094 3.70331e-21)
(0.988451 0.00287957 -9.19405e-21)
(0.995885 0.0172288 -5.8122e-21)
(0.888996 0.0271825 4.62511e-22)
(1.046 0.00879505 -6.77927e-23)
(1.10565 0.0839274 9.80535e-22)
(0.989835 0.0712783 1.17985e-20)
(1.02763 0.0181156 -8.03817e-22)
(1.10165 -0.0303601 3.25759e-20)
(1.04846 0.00885452 -3.53923e-21)
(1.04464 0.0135517 4.64794e-21)
(0.676562 -0.00329948 2.52269e-21)
(1.01175 0.0645783 -3.0527e-21)
(1.03175 0.00833349 5.3546e-22)
(1.04318 0.0265788 3.06008e-21)
(0.987867 0.0034394 0)
(0.493729 -0.0100334 0)
(0.480737 -0.0180263 5.74979e-22)
(1.00003 0.00049323 0)
(0.959251 0.0322332 0)
(1.04374 0.0139228 4.00025e-21)
(1.09528 -0.00106953 -1.163e-20)
(1.04336 0.0546853 -7.93582e-21)
(0.0179588 0.0185396 6.82883e-20)
(1.00983 0.400242 -4.79153e-21)
(1.01503 0.0412995 7.33433e-22)
(0.995059 0.0169662 -7.66764e-21)
(1.02123 0.0145371 -1.64938e-21)
(1.08064 -0.0108635 1.08955e-20)
(1.05697 0.0321612 -9.12465e-21)
(1.04846 0.0195257 -6.05775e-21)
(0.966823 0.13391 9.447e-21)
(1.03204 0.00988761 0)
(0.522108 0.11252 -7.06951e-20)
(0.999413 0.017291 -6.64836e-21)
(1.00386 0.00418839 -8.08752e-21)
(1.00705 0.00870582 -4.31199e-21)
(0.686301 0.00151605 1.69646e-21)
(0.949376 -0.00710857 2.02235e-20)
(1.01746 0.00690105 0)
(1.04666 0.0233523 -6.84619e-22)
(1.03307 0.00737106 -9.19811e-23)
(0.99883 0.00354002 0)
(0.993927 0.000789038 0)
(1.05287 0.023971 1.19178e-21)
(0.963022 0.144365 1.18055e-20)
(0.973583 0.00339489 -1.78745e-20)
(1.1607 -0.0191905 -2.98257e-20)
(1.03503 0.0239791 1.84072e-22)
(1.04854 0.00805099 1.04471e-20)
(1.02068 0.0136958 -1.69261e-21)
(0.382625 0.00523119 -9.93894e-22)
(0.492115 0.0132362 1.15439e-22)
(0.364743 -0.0375548 9.36148e-21)
(0.156802 0.00457991 0)
(1.00004 0.000440069 1.3992e-20)
(0.996202 -0.0049494 1.2144e-20)
(0.180861 0.0360883 6.38707e-20)
(1.14416 0.0328153 -6.81954e-20)
(1.04335 0.0122078 0)
(0.213989 -0.00332697 0)
(0.762336 0.203932 -5.18502e-20)
(0.641639 -0.0132307 -1.51867e-21)
(1.04397 0.0141633 -4.97159e-21)
(1.00568 0.00113245 -3.23018e-21)
(0.586906 0.0128344 -1.97692e-21)
(0.56917 0.0136535 4.9662e-21)
(0.170544 -0.0330396 -1.13646e-21)
(1.10688 -0.0322322 -1.75829e-20)
(0.767541 0.22273 5.76356e-20)
(1.04323 0.0108847 4.71495e-21)
(0.889664 0.0460269 0)
(1.04125 0.00604306 0)
(1.00297 0.0206558 -6.04892e-21)
(1.03356 0.0244259 3.98821e-22)
(1.01181 0.067052 -2.81384e-21)
(1.04028 0.00939123 1.86171e-21)
(1.06212 0.00686636 -8.33112e-21)
(1.2414 0.188869 4.39129e-20)
(1.11164 -0.00102765 0)
(0.952248 0.146238 -2.65553e-20)
(1.00322 0.0217098 6.55823e-21)
(0.884116 0.0256101 -6.90224e-20)
(1.01646 0.0119643 0)
(1.00583 0.00867332 -5.00997e-21)
(0.898984 0.0760878 5.6793e-20)
(1.04843 0.00887944 2.24474e-21)
(0.828834 0.125562 0)
(1.0286 0.0387064 0)
(1.10167 0.116281 -3.321e-20)
(0.679813 -0.0150864 -1.64556e-21)
(1.13556 0.0322276 3.53309e-20)
(-0.22392 -0.0140918 0)
(0.41807 0.00638457 1.75562e-21)
(1.04043 0.00904311 -2.07248e-21)
(0.952773 0.0760644 1.93332e-20)
(1.04147 0.055213 4.00264e-21)
(0.721676 0.00152516 6.13894e-23)
(0.999311 0.0487442 0)
(1.0019 0.00139395 -2.18591e-22)
(1.1185 -0.00618476 -1.62569e-20)
(1.01961 0.00411049 0)
(0.808362 0.0714309 -3.9716e-20)
(1.04618 0.0140325 -5.02145e-22)
(1.03958 -0.00264952 -1.03553e-21)
(1.05062 0.0138868 -6.66775e-21)
(0.35419 0.00883677 0)
(1.03944 0.0070103 0)
(1.0486 0.00888967 1.82188e-21)
(1.13896 0.0118542 2.31306e-20)
(0.996575 -0.00453403 -1.46229e-20)
(1.21492 0.0176849 1.90082e-20)
(0.300774 -0.000782529 2.33773e-21)
(1.05251 0.0100998 3.17433e-21)
(1.04988 0.00987178 6.36219e-21)
(0.847174 0.0582392 4.78806e-20)
(0.953452 0.0721523 -6.08148e-21)
(0.998952 0.00359692 0)
(1.03074 0.00914034 -2.62293e-22)
(1.00547 0.00857559 -5.1568e-21)
(-0.22678 -0.0105148 -3.74405e-20)
(0.971073 0.0353919 -1.29767e-20)
(1.05372 -0.00310974 -2.27773e-21)
(0.996757 0.0699801 5.3426e-21)
(1.0386 0.0150744 -1.58971e-21)
(1.05794 0.0329731 1.58081e-20)
(0.966978 0.00079671 1.68725e-20)
(1.03209 0.00754195 -9.72406e-23)
(0.760439 0.00677079 2.63484e-21)
(0.30819 -0.0326891 0)
(0.654739 -0.00829772 8.37552e-22)
(1.04498 0.00934713 0)
(0.142553 -0.0113374 -6.75558e-22)
(0.178943 -0.00481043 -6.1251e-21)
(1.04665 0.0239372 -7.63519e-21)
(0.99924 0.00524479 -7.48089e-21)
(1.02018 0.0134393 1.72169e-21)
(0.969952 0.0338252 -1.32148e-20)
(1.04522 0.0142558 2.1991e-21)
(1.01296 0.0395341 0)
(0.316676 0.0100342 -4.08775e-21)
(1.02503 0.00718856 0)
(1.00395 0.00451459 1.62558e-20)
(0.974583 0.0363031 1.5504e-20)
(1.08282 -0.00668216 0)
(1.04786 0.0106398 -3.00211e-21)
(1.09342 0.00030005 0)
(0.410392 -0.0483309 0)
(0.483752 -0.016453 -4.04453e-21)
(1.04291 0.0122126 3.17293e-21)
(1.0667 0.035474 1.48173e-20)
(1.07114 0.0113314 0)
(0.997549 0.0154894 5.2359e-21)
(1.03616 0.045993 1.84745e-21)
(0.998975 0.000712559 3.22049e-21)
(0.960369 0.156744 9.35615e-21)
(1.03773 0.0247126 1.50744e-22)
(1.00735 0.007691 0)
(0.272487 0.112949 -1.93813e-22)
(1.02072 0.0142314 1.666e-21)
(0.989718 0.0392925 1.49297e-20)
(0.641118 -0.00139434 -2.83441e-21)
(1.13641 -0.012801 -5.08288e-20)
(1.11528 -0.034686 0)
(1.05221 0.0159454 0)
(1.09818 0.0922718 -2.33849e-20)
(0.211512 -0.035898 4.35024e-21)
(1.05672 0.0299458 1.1903e-20)
(0.998483 0.0163864 -1.341e-20)
(0.0266354 -0.0248416 -3.11443e-20)
(0.956901 0.0322269 0)
(1.00015 0.00364151 5.6067e-21)
(0.0789802 -0.00034306 0)
(0.894547 0.0432989 0)
(1.02868 0.00566097 -3.52779e-23)
(0.973559 0.0350214 -1.02242e-20)
(1.04561 0.0125333 0)
(0.0457214 -0.0114356 -7.02949e-22)
(1.03695 0.0447226 -2.17929e-21)
(1.0439 -0.00738846 0)
(1.04973 0.00993025 0)
(0.59158 0.00165768 8.27196e-20)
(0.999068 0.000561915 0)
(1.13149 0.0319574 3.2332e-20)
(0.998891 0.00917057 0)
(1.09059 0.336214 2.32723e-20)
(0.573017 0.204366 0)
(1.0633 0.071806 -1.05579e-20)
(0.931655 0.0423929 2.337e-23)
(1.04138 -0.00743635 0)
(0.968597 0.00438316 0)
(1.04849 0.00888005 -1.06993e-20)
(0.999954 0.000483482 0)
(1.02794 0.018598 8.95381e-22)
(0.899406 0.0879697 -1.86535e-20)
(0.724293 0.166338 -4.55881e-20)
(1.00034 0.000161387 -9.50691e-21)
(1.0405 0.0101502 -1.72257e-21)
(1.14665 -0.0168118 5.74786e-20)
(0.997116 0.000768477 0)
(1.05286 0.016816 0)
(1.02948 0.035927 0)
(0.767124 0.00759864 2.27666e-21)
(1.12128 -0.00451798 -5.45067e-20)
(1.05692 0.00615244 -1.32271e-20)
(1.02951 0.0058442 -5.6578e-23)
(-0.196488 -0.0114836 0)
(0.935086 0.0427639 3.34115e-23)
(1.04888 0.00819364 -3.07807e-21)
(0.338739 -0.0468037 1.63371e-20)
(0.838247 0.116829 -6.55604e-20)
(1.04743 0.00988627 0)
(1.03067 0.00732705 -7.7899e-23)
(1.03886 0.0364787 2.74769e-21)
(1.0041 0.000147667 5.95559e-21)
(1.20854 0.180003 0)
(1.00032 0.00405606 -1.66627e-20)
(1.02504 0.0462257 0)
(0.985661 0.0011032 0)
(1.01609 0.0115891 -2.11904e-21)
(0.791259 0.0070293 -7.15654e-21)
(1.00235 0.0199597 -6.37613e-21)
(0.977411 0.0373079 1.52409e-20)
(1.04947 0.00848132 3.93427e-21)
(0.292591 -0.0298088 -1.31811e-21)
(1.02036 0.0190436 0)
(1.03452 0.0245963 4.26824e-22)
(1.01318 0.00933271 2.80298e-23)
(1.04796 0.0121483 8.54359e-21)
(-0.194322 -0.0149371 -4.10642e-23)
(0.913593 -0.0486249 2.37685e-22)
(1.01728 0.386047 0)
(1.03792 0.0430069 -1.47132e-21)
(0.59417 -0.00749645 5.52829e-22)
(1.03492 0.046168 -1.5843e-21)
(1.03925 0.0100412 0)
(0.999963 0.000440485 4.97215e-21)
(1.01635 0.000254759 3.54542e-21)
(1.00237 0.0237403 -7.64992e-21)
(1.01416 0.000169737 -1.08825e-22)
(0.943617 -0.0359899 0)
(1.0473 0.0215734 6.36343e-21)
(0.999932 0.000584663 -5.23582e-21)
(1.19801 0.0242608 5.52927e-20)
(1.01356 0.00927587 -3.97605e-21)
(1.15897 0.00948001 -2.73716e-20)
(1.06137 -0.0203631 0)
(1.05205 0.0108406 -1.45718e-21)
(1.20461 0.0118404 0)
(1.05211 0.0153389 0)
(0.695198 -0.01598 3.35713e-21)
(1.05641 0.00588125 9.82994e-21)
(0.965588 0.0118822 0)
(1.00004 0.000620198 -4.64952e-21)
(0.905732 0.0873649 -4.45907e-20)
(1.02096 0.0312256 0)
(1.01818 0.0194691 -2.90558e-21)
(-0.176261 -0.0146472 -5.84715e-20)
(1.04948 0.0116509 -5.46288e-21)
(0.970274 0.00108707 0)
(1.06506 0.0358494 0)
(0.322908 0.00117756 0)
(0.515474 -0.0361407 2.91463e-22)
(1.0604 0.0135691 9.96886e-21)
(1.05121 0.0154314 0)
(1.03864 0.0576243 -4.00911e-21)
(1.04598 0.00859697 0)
(1.03979 0.00719297 0)
(0.921109 0.0578818 -2.15784e-20)
(-0.157064 -0.0171472 -9.25457e-20)
(0.984425 0.0138641 -8.33943e-23)
(1.02098 0.0190863 0)
(1.07136 0.0533949 2.14105e-20)
(0.916993 0.0587994 0)
(1.05947 0.0167193 3.38433e-21)
(1.07647 0.0395784 -2.50231e-20)
(1.01437 0.000708109 -3.73059e-21)
(1.04721 0.0912396 -1.18142e-20)
(0.999918 0.000544023 3.11187e-21)
(0.985706 0.000295321 0)
(0.529094 0.0145991 -1.19575e-21)
(1.06127 0.0135695 -1.21556e-20)
(1.00245 0.0229378 0)
(1.12604 0.0278512 3.09516e-20)
(0.976748 0.0361881 -7.03052e-21)
(1.00326 0.00934731 -7.20221e-21)
(0.897344 0.165781 5.06616e-20)
(0.525984 -0.0263139 -1.43236e-21)
(0.994613 -0.000471893 1.85658e-21)
(0.998174 0.00848871 -9.58238e-21)
(1.01064 0.00147644 5.85879e-21)
(1.02798 0.0171101 -5.85603e-22)
(0.50874 0.0122504 0)
(0.995048 -0.000291943 -1.34334e-21)
(0.967262 0.0128006 0)
(1.18845 0.0102918 0)
(1.01005 0.0309888 0)
(1.0079 0.0437353 -2.51053e-21)
(0.154631 -0.0248241 4.2353e-20)
(0.996372 0.00241162 1.01171e-20)
(1.20095 0.0198924 -1.7676e-20)
(1.0209 0.00413465 -2.48855e-21)
(1.03802 0.00473701 2.90963e-21)
(0.505656 0.014425 0)
(1.05797 0.0168805 0)
(0.972624 0.00256685 9.60733e-21)
(0.996832 9.76393e-05 9.23789e-21)
(1.04975 0.0101765 0)
(1.04364 0.0108151 0)
(1.02025 0.00415541 2.82977e-21)
(0.981566 0.0538775 -2.27471e-22)
(1.01102 0.000754728 2.75947e-21)
(1.04771 0.088119 3.42088e-21)
(1.03049 0.00768903 -1.58843e-22)
(1.06998 0.0515066 -2.1405e-20)
(1.05521 0.0126463 -8.75541e-21)
(1.04011 0.0102389 0)
(-0.0371081 -0.0227409 -4.46459e-20)
(1.04771 0.0108164 0)
(0.842272 -0.0376615 -2.27895e-20)
(0.996704 0.0722784 -8.70891e-21)
(1.02125 0.00426273 1.2569e-21)
(1.07806 -0.00579993 -8.21089e-21)
(0.998873 0.00534781 0)
(1.04761 0.00977021 4.6017e-21)
(1.13639 0.0131952 0)
(0.895954 0.0718201 -6.10103e-20)
(1.03953 0.00465592 0)
(0.627343 -0.00844876 0)
(1.00318 0.000501332 5.80073e-21)
(0.443291 -0.00367954 -4.36722e-20)
(1.07736 -0.0026041 -8.68395e-21)
(1.04696 0.0220124 -5.51999e-21)
(0.929873 0.0378506 -1.6071e-20)
(0.257785 -0.0425688 5.42342e-20)
(0.493031 -0.0513211 -1.12071e-20)
(1.02096 0.00566008 0)
(1.00592 0.0012858 1.96942e-21)
(1.00512 0.00806614 5.27889e-21)
(1.14812 0.0254094 -2.60318e-20)
(1.12215 0.0447051 0)
(0.0608275 -0.0252881 -5.41648e-21)
(-0.0707475 -0.0103194 0)
(0.998484 0.00850421 -8.12874e-21)
(1.05061 0.00663356 0)
(0.724397 0.289556 4.53602e-20)
(1.05445 -0.00770602 0)
(1.0488 0.00818474 3.53142e-21)
(1.04768 0.0124235 0)
(1.05452 0.0440676 -3.09917e-21)
(1.02927 0.0141225 4.24467e-22)
(1.04303 0.0125225 -3.53403e-21)
(0.378186 -0.0458269 -1.51432e-20)
(1.06767 0.0519125 2.73524e-22)
(1.04818 0.0129526 -2.05147e-21)
(1.01995 0.00429693 -3.23923e-21)
(1.00511 0.00786823 5.64031e-21)
(1.03262 0.0106952 0)
(1.06072 0.0700357 0)
(1.00926 0.00667158 8.17241e-21)
(1.04026 -0.000218769 -2.99258e-21)
(1.00007 0.00362228 -7.17897e-21)
(0.480264 0.0141661 -4.55572e-21)
(1.06124 -0.0214098 -9.15218e-21)
(1.04513 0.0864351 2.3116e-21)
(0.705892 0.173069 0)
(1.02885 0.0143356 -2.13e-22)
(0.998682 0.0170314 0)
(0.620441 -0.00794172 -2.02638e-21)
(1.04255 0.0127939 5.77321e-21)
(0.483566 0.0146516 4.96e-22)
(1.00776 0.00785269 -8.17737e-21)
(1.03301 0.0105189 -3.98785e-23)
(1.00867 0.0213074 9.49131e-21)
(1.00004 0.000165559 1.02649e-20)
(1.05136 0.00735797 -1.29904e-21)
(1.05281 0.0161517 0)
(0.0139387 -0.0253812 2.56771e-23)
(-0.0923456 -0.011473 9.46354e-20)
(0.99676 0.000511778 0)
(1.03835 0.0146618 4.68206e-21)
(1.05115 0.0158716 5.93714e-22)
(1.06664 -0.00503093 -1.39607e-20)
(0.998056 0.205703 9.12338e-23)
(1.02043 0.0960065 0)
(1.03111 0.0112766 -7.61197e-22)
(1.10101 0.407762 0)
(0.990874 0.0642742 6.68577e-21)
(0.986102 -0.0462545 2.91075e-20)
(1.02358 0.0099993 1.826e-21)
(1.12495 -0.0129978 1.12348e-20)
(0.446341 0.0114213 -7.72186e-22)
(1.00937 0.00644057 -4.4605e-21)
(0.996118 0.0180314 6.27684e-21)
(1.05825 0.129199 -7.88348e-21)
(1.00001 -0.000276962 8.72809e-21)
(1.02058 0.00432348 -6.24203e-23)
(1.07697 0.0433992 0)
(1.03857 0.0186758 1.16092e-22)
(0.609981 0.0151229 3.88674e-21)
(1.07483 0.0140329 0)
(1.08868 -0.0293211 0)
(1.00255 0.0192038 0)
(1.11582 -0.0176289 2.12716e-20)
(0.761582 0.552496 0)
(1.06218 0.127686 4.78062e-22)
(1.00001 -0.000241254 0)
(0.561906 0.0141289 -4.57375e-21)
(1.01265 0.0211185 2.07623e-21)
(1.04405 0.00496153 0)
(0.995259 0.00290825 -1.25664e-20)
(0.998977 0.000177469 0)
(0.567478 0.0161946 5.02175e-21)
(1.0452 0.00545234 3.39999e-21)
(1.0491 0.00560014 2.86427e-21)
(1.0509 0.00675379 0)
(0.993028 0.103911 -1.56937e-20)
(1.02547 0.0072371 0)
(0.57164 -0.0203532 -1.87464e-21)
(1.00346 0.0116522 8.59249e-21)
(1.13298 0.0788453 -4.51722e-20)
(1.17747 0.010893 -2.31271e-20)
(1.05093 0.0150906 1.09764e-20)
(1.01003 0.00551793 -3.5921e-21)
(0.991978 0.0131608 -8.77787e-21)
(1.04878 0.00926589 -5.85876e-21)
(1.05615 0.04439 -3.37316e-21)
(1.00004 0.00101738 0)
(1.11993 0.0512974 0)
(0.798151 0.241452 0)
(1.05192 0.0112951 1.63046e-21)
(0.992006 -0.00872091 -8.40463e-21)
(0.00193952 -0.00444209 3.81624e-20)
(0.473223 -0.0248728 5.76238e-21)
(1.12069 0.318595 0)
(0.994119 0.0147143 0)
(0.903403 0.170089 1.47822e-20)
(1.02154 0.00614441 2.14851e-21)
(1.03672 0.0194065 -2.27778e-21)
(0.945595 0.144335 1.90133e-20)
(0.337145 0.00442892 1.25146e-21)
(0.946474 0.107377 -1.95872e-20)
(0.521962 -0.0113867 1.28389e-21)
(0.900759 0.155565 -4.077e-20)
(1.08252 -0.00807283 0)
(1.04196 0.0126061 1.89914e-21)
(1.02069 0.0320042 0)
(0.395401 -0.0466452 2.62385e-20)
(1.1929 0.0822998 5.3575e-20)
(1.00473 0.00683104 -3.09947e-21)
(1.04988 0.0121256 -3.83327e-21)
(1.07918 -0.00675794 -2.55614e-21)
(1.05747 0.0307996 -1.30902e-20)
(0.946641 0.11293 5.18573e-21)
(1.03738 0.0557519 6.94613e-22)
(1.02176 0.0986533 2.70586e-22)
(1.08975 -0.0341793 0)
(1.01056 0.00523538 -7.19873e-21)
(1.07581 0.0361225 -1.60767e-20)
(1.00714 0.00119838 8.6552e-21)
(1.03042 0.029191 2.44094e-23)
(0.805502 0.00768659 -1.97995e-21)
(0.467727 -0.0368753 5.86672e-21)
(1.08551 0.111519 2.16753e-20)
(0.986658 0.00184064 0)
(1.01418 0.00134946 -5.42126e-21)
(1.02019 0.00564938 4.42326e-21)
(0.998526 0.0622538 9.54222e-21)
(0.8466 0.0999099 2.82413e-20)
(0.177584 -0.0383491 3.12208e-20)
(1.07227 0.0122996 0)
(1.14848 0.021802 2.8929e-20)
(0.46905 0.0157056 0)
(1.1004 0.0774638 0)
(0.984158 0.101725 -2.34892e-20)
(0.561351 0.0154818 5.7243e-21)
(1.0113 0.0343213 1.06156e-21)
(0.467929 -0.0166353 -1.84298e-21)
(1.02744 0.0462418 5.53031e-22)
(1.00405 0.000821064 0)
(0.986898 0.00932686 -3.56672e-21)
(1.04924 0.0119229 -1.29494e-20)
(1.10242 0.0392805 4.33612e-21)
(1.01035 0.00180953 3.36492e-21)
(0.926111 0.0381404 -9.5969e-21)
(1.07266 0.0313469 -8.11644e-21)
(1.12578 0.0351627 3.03023e-20)
(0.982643 0.0994218 1.97759e-20)
(1.04007 0.00861497 -4.67919e-21)
(1.01159 0.0324082 -1.37195e-20)
(1.04115 0.00873041 2.577e-21)
(1.04834 0.00897964 0)
(1.05917 0.0128495 0)
(1.04918 0.00924573 1.17435e-20)
(1.00049 0.000239215 0)
(0.979124 0.0244507 -2.30692e-20)
(-0.207663 -0.0141481 7.21126e-21)
(0.568747 -0.0186268 3.42686e-21)
(1.0025 0.0338348 -1.06673e-20)
(1.04547 0.00533324 0)
(0.986454 0.00239177 4.28533e-21)
(1.01783 0.00711409 -2.52523e-21)
(0.992486 -0.00821606 1.51586e-20)
(0.997876 0.0648341 -1.62386e-20)
(1.04554 0.012903 0)
(1.01771 0.0188841 2.40816e-21)
(0.971373 0.125672 4.68754e-21)
(1.03086 0.0124896 0)
(1.04072 0.0574602 4.06299e-21)
(0.991851 0.0139201 0)
(1.07726 0.0475369 6.43323e-21)
(1.04264 0.0131217 8.67871e-23)
(1.00995 0.00582874 -7.13838e-23)
(0.991997 -0.00382363 -1.38802e-20)
(1.07366 0.0144558 0)
(1.07202 0.0260331 0)
(1.2513 0.124755 -8.01685e-22)
(1.05653 0.0165471 -3.36193e-21)
(1.00479 0.00666868 2.98266e-21)
(0.998575 0.00907165 6.8604e-21)
(1.00403 0.000606326 7.22251e-21)
(0.765223 0.00992019 0)
(0.89987 0.0458876 -2.7256e-20)
(1.09183 0.0358923 -3.23442e-20)
(0.412941 -0.0336811 2.85016e-21)
(1.02003 0.102366 1.75729e-21)
(1.05061 0.016169 -4.91539e-22)
(0.808219 0.00926982 -2.46442e-21)
(1.00888 0.0220368 -1.15988e-20)
(1.00353 0.0112398 8.86835e-21)
(1.00294 0.000876262 0)
(1.03087 0.0116107 5.60449e-22)
(1.06611 -0.00618319 3.91692e-21)
(1.0108 0.000659875 0)
(1.0163 0.00598512 0)
(1.11869 -0.0220115 1.26493e-20)
(1.05566 -0.00462688 0)
(0.928441 0.0618542 -3.27026e-20)
(1.03267 0.00702544 -9.12836e-22)
(0.744233 0.0076866 3.8138e-22)
(0.0801833 0.0238246 -1.46701e-19)
(1.05311 0.00724676 4.85474e-21)
(1.01929 0.075424 -3.42758e-22)
(1.05351 0.017099 0)
(1.0526 0.015014 0)
(1.09768 0.080007 0)
(1.0076 -0.000783793 7.9397e-22)
(1.12178 -0.0209006 -2.35243e-20)
(1.04503 0.00959184 -5.81083e-21)
(-0.147278 0.00880993 1.36236e-19)
(0.993342 0.0635754 -1.09114e-20)
(1.0155 0.108006 -2.05947e-21)
(1.06024 0.407444 3.18166e-20)
(1.00662 0.00068229 0)
(1.13112 -0.0169836 2.32306e-20)
(1.04078 0.0185967 0)
(1.00003 0.000182424 -7.3919e-21)
(0.249908 -0.0461528 -3.67853e-20)
(1.04873 0.00936081 0)
(0.702416 0.194576 0)
(0.625694 0.0142356 -3.66474e-21)
(1.13422 0.0483758 3.53696e-20)
(1.002 0.0185894 6.22816e-21)
(0.743837 0.00991298 4.12089e-22)
(1.00727 0.00848279 0)
(0.983657 0.0526698 1.94744e-22)
(1.04685 0.015826 1.12347e-20)
(1.03773 0.0370628 -2.49103e-21)
(0.999642 -0.000658681 0)
(-0.0411818 0.0127263 0)
(0.406736 -0.0470737 1.51555e-20)
(1.04904 0.0079112 -7.74608e-22)
(1.04716 0.014064 0)
(1.0117 0.0745148 -1.72015e-21)
(0.459142 0.00992455 0)
(1.21479 0.0269344 -5.32619e-20)
(1.01909 0.1104 2.74107e-21)
(0.456792 -0.0336258 6.67984e-21)
(1.04108 0.0182433 0)
(1.0071 0.000844718 -2.52473e-21)
(1.01954 0.0119233 0)
(0.997085 0.00114208 0)
(0.985574 0.0154312 -2.65802e-20)
(0.468986 0.0173185 6.18898e-22)
(1.05071 0.0127516 -9.49311e-21)
(-0.0273839 -0.0223542 4.31154e-20)
(1.03807 -0.0006863 -7.06602e-22)
(1.00664 0.000282802 -1.85101e-22)
(1.06984 0.0114753 0)
(0.908862 0.104897 6.9515e-20)
(1.01843 0.000250824 2.43485e-21)
(1.0296 0.02904 2.38222e-23)
(0.359199 -0.0362119 -1.71078e-20)
(0.166617 0.0013548 0)
(1.03628 0.0249746 -3.33859e-21)
(1.09277 0.0375919 9.0085e-21)
(1.01197 0.0404432 1.33722e-22)
(1.00235 0.00829925 1.55811e-20)
(1.07633 0.0340984 8.73913e-21)
(1.04548 0.0118963 -3.17952e-21)
(0.522087 -0.0260467 0)
(1.1193 0.00654021 3.34821e-20)
(1.04745 0.0148391 -1.5857e-21)
(1.03183 0.000192726 -8.01795e-22)
(0.978622 0.097486 2.29465e-20)
(1.04073 0.0121421 -1.95453e-21)
(1.00032 0.00331506 1.10257e-20)
(0.784189 0.380047 0)
(1.06179 -0.0055844 -5.66188e-21)
(1.03206 0.0103254 5.3367e-22)
(1.04848 0.011995 0)
(0.175883 0.00152128 0)
(0.994709 0.0143389 -8.07735e-21)
(0.984497 0.184145 0)
(1.02519 0.0105979 -1.97567e-21)
(0.455259 0.0159518 -3.76965e-21)
(0.993608 0.183475 -2.06872e-21)
(0.990732 0.0407582 -1.63532e-20)
(1.01438 0.0396706 0)
(1.03139 0.00799569 -9.01065e-22)
(1.01246 0.000791609 3.00374e-21)
(1.01697 0.0742804 0)
(0.519794 0.209266 0)
(1.01377 0.0207445 4.11703e-21)
(1.03205 0.0112612 0)
(1.0476 0.00801407 0)
(0.987959 0.0393174 -1.95447e-20)
(-0.000380742 -0.0266338 0)
(0.983067 0.216704 -3.08383e-21)
(0.996322 0.00576966 0)
(1.01447 0.00113207 3.93534e-21)
(0.984092 0.0127991 -3.54391e-21)
(0.844807 0.0911673 -1.65117e-20)
(1.00467 0.0340908 -8.92004e-21)
(1.0043 0.00294513 -8.37023e-21)
(1.04205 0.00922263 -8.1388e-22)
(1.09958 -0.0329638 -7.23552e-21)
(1.00142 0.00636132 0)
(1.02485 0.00686102 5.00095e-22)
(1.0722 0.0228076 0)
(0.553958 0.0167094 3.83525e-21)
(0.99978 0.00584606 1.88781e-21)
(1.03488 0.00681744 9.18079e-22)
(1.02817 0.0176576 0)
(1.04499 0.0100239 1.68471e-21)
(1.01667 0.00630561 0)
(0.0633067 -0.0134945 -9.09506e-21)
(1.07868 0.0492729 0)
(1.05163 0.00757295 -2.75116e-21)
(1.08623 0.419601 -1.49907e-20)
(0.957743 0.723179 -2.99733e-20)
(1.03162 0.0110859 1.96612e-22)
(1.18873 0.241857 0)
(1.01939 0.00148552 1.18391e-21)
(0.778295 0.010458 0)
(1.06223 0.0220722 -9.16813e-21)
(1.04841 0.01288 0)
(0.995489 0.000589142 -1.00752e-20)
(0.986977 0.00991179 0)
(0.0880744 -0.00838674 0)
(0.970954 0.00232479 1.06266e-20)
(0.892028 -0.00420899 2.96013e-23)
(1.00233 0.00790571 -1.29774e-20)
(1.05169 0.00447956 2.1651e-20)
(0.53643 0.0155069 -1.4606e-21)
(0.125229 -0.00725766 0)
(1.11357 0.00445331 0)
(0.998907 0.000373318 0)
(0.579682 0.0133473 0)
(0.999999 1.85289e-05 1.18867e-20)
(1.01437 0.0209441 0)
(1.04753 0.0082177 5.26735e-21)
(1.22174 0.297238 3.5198e-20)
(0.969412 0.0155698 0)
(1.1554 0.0378097 -2.37887e-20)
(1.04779 0.00906352 8.51871e-21)
(0.992456 0.0404245 -1.44629e-20)
(1.05033 0.0126413 4.74164e-21)
(1.00001 0.000511807 9.25737e-21)
(1.00673 0.0428304 -5.48209e-21)
(0.984984 0.0161384 2.61644e-20)
(1.00611 0.000285011 1.0672e-22)
(1.00403 0.00293321 1.24729e-20)
(1.14322 0.0893787 3.30032e-20)
(0.996477 -0.000248556 -9.44152e-21)
(1.07368 0.0251267 0)
(1.04309 0.0101515 2.91095e-21)
(0.524759 0.206321 -2.96639e-20)
(0.999995 -0.00015055 0)
(1.09943 -0.0326125 -6.78201e-21)
(1.02209 0.00853504 9.4703e-22)
(0.836504 0.10819 1.62829e-20)
(1.04846 0.00820755 -2.58987e-21)
(1.09763 -0.000201663 1.38942e-20)
(1.05994 0.0127967 -2.74823e-21)
(1.0953 0.094825 1.89791e-20)
(1.05721 0.0355003 5.8952e-21)
(1.04651 0.00748037 1.02699e-20)
(0.999978 -0.000534791 0)
(1.04962 0.0124562 3.29797e-21)
(1.07858 -0.00868413 -1.27301e-20)
(0.923811 0.0621055 1.1962e-20)
(1.01183 0.000720613 -9.37036e-22)
(1.01752 0.00653549 2.71649e-21)
(0.193843 -0.0281863 -4.42355e-20)
(1.04745 0.0102096 6.24376e-21)
(1.07721 0.0375685 8.67105e-21)
(1.02854 0.0152328 5.00657e-22)
(1.00634 0.000843674 2.98217e-21)
(1.12969 0.0279867 -3.3737e-20)
(1.04657 0.0101241 5.46169e-21)
(0.809387 0.0102935 0)
(0.350032 -0.0136342 5.45651e-21)
(1.05509 -0.00535247 -4.70481e-21)
(1.05781 0.00686128 -1.07608e-20)
(0.0725477 -0.0262363 -3.90016e-20)
(1.02436 0.00678385 -5.80196e-22)
(1.00021 0.000174423 -7.28565e-21)
(0.416935 0.0135114 1.10306e-21)
(1.06215 0.023165 1.11473e-20)
(1.04579 0.418556 0)
(1.05119 0.00457223 -3.12202e-21)
(0.996694 0.00138793 -9.47517e-21)
(1.01787 0.000418108 0)
(1.04662 0.00417347 -3.20051e-21)
(1.01902 0.0116703 0)
(0.648932 0.0132991 3.9348e-21)
(1.04456 0.00703359 0)
(1.0478 0.0091715 -2.97546e-21)
(1.02242 0.0122486 1.49353e-21)
(1.04615 0.0142202 5.69096e-22)
(1.00024 0.001544 0)
(1.21498 0.0219801 4.49038e-20)
(1.03161 0.0104949 -4.43571e-22)
(1.02377 0.0183668 1.6044e-21)
(0.870267 0.267745 1.08215e-20)
(1.11791 0.00974598 -7.55585e-21)
(1.04063 0.0119341 3.81803e-21)
(0.0869384 -0.0224438 8.49854e-21)
(0.981263 0.223923 -4.66172e-21)
(0.902656 -0.00324747 -4.1681e-21)