/*--------------------------------*- C++ -*----------------------------------*\
| =========                 |                                                 |
| \\      /  F ield         | OpenFOAM: The Open Source CFD Toolbox           |
|  \\    /   O peration     | Version:  v2012                                 |
|   \\  /    A nd           | Website:  www.openfoam.com                      |
|    \\/     M anipulation  |                                                 |
\*---------------------------------------------------------------------------*/
FoamFile
{
    version     2.0;
    format      ascii;
    class       volVectorField;
    location    "100";
    object      U_0;
}
// * * * * * * * * * * * * * * * * * * * * * * * * * * * * * * * * * * * * * //

dimensions      [0 1 -1 0 0 0 0];


internalField   nonuniform List<vector> 
14804
(
(0.741276 0.00828602 -3.10332e-22)
(1.0071 0.00951555 0)
(1.04784 0.00376493 1.8891e-22)
(1.04977 0.0117895 3.792e-21)
(1.05727 0.0147082 4.02621e-23)
(1.06187 0.0061494 -2.23782e-22)
(1.02794 0.0433838 -1.08647e-22)
(0.978568 0.00584459 2.3379e-20)
(1.04518 0.00918889 0)
(1.00029 0.000201705 -6.36851e-24)
(1.11997 -0.0164384 0)
(1.04819 0.0025896 0)
(0.968571 0.000101039 1.0687e-21)
(1.05175 0.0105408 -2.8545e-21)
(1.14187 0.0370334 7.89583e-20)
(0.0696454 -0.00293319 2.75007e-20)
(1.05795 0.0142697 8.78858e-23)
(1.0497 0.0128541 8.48242e-21)
(0.316607 0.00881579 4.11022e-21)
(1.04851 0.00893478 0)
(0.999999 -1.00932e-05 4.92606e-21)
(1.00935 0.0682143 4.03301e-21)
(0.972523 0.130838 7.95915e-21)
(1.03101 0.0344801 -2.02964e-22)
(0.0497646 -0.00405677 0)
(1.02982 0.0348446 1.17912e-22)
(1.04878 0.00907308 0)
(1.05516 0.0133615 7.91552e-21)
(0.833911 0.00844761 3.32218e-21)
(1.03722 0.025222 3.56925e-21)
(1.0311 0.00954542 -2.28571e-22)
(0.95406 0.120781 0)
(1.04846 0.00891838 8.20101e-21)
(1.07205 0.0280539 0)
(1.04596 0.00996995 -3.21774e-21)
(1.02895 0.0428508 8.9046e-23)
(1.0582 0.016711 0)
(1.00002 0.000903304 0)
(0.974293 0.0892263 3.41351e-20)
(1.04954 0.00860608 -8.07289e-21)
(1.04749 0.00410004 -4.3695e-21)
(1.04622 0.00995101 0)
(0.701422 0.288407 0)
(0.994389 0.017613 8.23854e-21)
(1.0566 0.0144161 0)
(0.955297 0.0291471 0)
(1.04406 -0.016532 -4.17376e-21)
(0.982119 0.0283305 -2.77065e-20)
(1.00933 0.0705814 8.12006e-21)
(1.1232 0.301698 -6.95947e-20)
(0.967081 0.0029601 -2.55474e-20)
(1.01766 0.000492324 -4.41247e-21)
(0.99904 0.00548736 1.07616e-20)
(1.04569 0.0121492 0)
(1.11179 0.327906 0)
(1.0231 0.0131422 -4.70473e-21)
(1.04226 -0.000990107 -2.15203e-21)
(0.852551 0.00872009 2.28264e-21)
(0.99621 -0.00383627 -1.59236e-20)
(0.952833 0.0295166 0)
(0.575827 0.0159979 -5.26799e-21)
(0.965439 0.00353918 -2.49223e-22)
(0.995892 0.0196912 -4.45313e-21)
(0.995261 0.0119097 -4.83145e-21)
(0.995529 0.0189082 -3.96932e-21)
(0.998756 0.00471823 -8.04438e-21)
(0.999974 -6.7179e-05 -1.20436e-20)
(1.02121 0.0450793 0)
(1.00148 0.000444806 0)
(0.62118 -0.0101948 5.37164e-22)
(1.03353 0.00720748 1.0138e-21)
(1.04873 0.00913297 0)
(1.12941 -0.0111974 1.18039e-20)
(0.528075 -0.0190802 4.48868e-21)
(1.04017 0.00833659 4.09333e-21)
(0.638705 -0.00981501 -5.59168e-22)
(-0.0304796 -0.00818982 1.34203e-22)
(1.00727 0.00919698 4.15445e-21)
(0.83218 0.136081 0)
(1.02139 0.00579753 -1.5275e-21)
(-0.0846738 -0.0214505 7.19471e-20)
(0.998937 0.0048499 7.29303e-21)
(1.0214 0.00667498 1.65474e-21)
(1.04007 0.00868555 -1.87199e-21)
(1.00006 0.000583387 2.24442e-21)
(1.08033 -0.0092652 1.8116e-20)
(1.01032 0.00155701 -4.94383e-21)
(1.04294 0.0106128 -1.73646e-21)
(1.00873 0.00693023 3.81844e-21)
(1.05568 0.0136477 8.76839e-21)
(1.06712 0.0337043 -2.70021e-22)
(0.983946 0.0637574 -5.20598e-21)
(1.04627 0.00846764 -4.41207e-21)
(1.03221 0.00714327 6.68618e-22)
(1.13156 0.296497 5.1795e-20)
(-0.0148232 -0.00988499 4.54328e-20)
(0.821167 0.00830065 -2.29116e-21)
(0.953108 0.115106 0)
(1.01646 0.0413438 -3.65473e-21)
(1.12637 -0.0185549 0)
(0.84135 0.00883152 -2.31585e-21)
(0.714289 -0.0136005 -9.76703e-22)
(1.00004 0.000472744 4.87253e-21)
(1.05213 0.00998625 8.97621e-22)
(1.04086 0.0124172 -1.88419e-21)
(0.655751 -0.013886 2.06421e-21)
(1.04813 0.00294832 0)
(1.10422 0.325661 -2.59486e-20)
(0.993138 -0.00174973 1.37127e-20)
(1.03164 0.00950217 3.41146e-22)
(0.994116 0.00685771 0)
(0.750951 0.00961813 3.01653e-21)
(1.04623 0.00827187 -3.58373e-21)
(-0.190966 -0.0139673 5.10262e-20)
(0.727796 0.0108094 -4.09528e-21)
(-0.122454 -0.0195941 4.61434e-20)
(1.03899 -0.00232788 -1.3422e-21)
(1.06854 0.0328201 9.82576e-21)
(1.00005 0.000570182 -1.5706e-20)
(1.05006 0.0129935 -8.50049e-21)
(-0.0535392 -0.0107152 -8.89784e-20)
(1.00879 0.00662732 -1.12365e-20)
(1.03676 0.0436349 3.07249e-21)
(1.06251 0.0145377 -1.46805e-21)
(0.996592 -0.00389007 1.45053e-20)
(1.00002 0.000646367 0)
(1.03875 -0.000269611 2.90935e-21)
(1.05183 0.0101773 -3.55003e-21)
(0.968143 0.141669 -1.76865e-20)
(1.06105 0.0203957 0)
(1.06111 0.021421 0)
(1.11129 0.00259796 0)
(0.630226 -0.00216087 0)
(1.11062 -0.0212528 0)
(1.04386 0.0037334 -2.6696e-21)
(1.06169 0.0145756 0)
(0.993641 0.017455 1.06345e-20)
(1.10892 -0.0367403 0)
(1.03747 0.0206567 0)
(1.07367 0.0288016 0)
(1.00295 0.00937183 7.13773e-21)
(0.0827637 0.0233186 0)
(1.01712 0.000414306 4.42874e-21)
(-0.236567 -0.0114504 0)
(0.224668 -0.00604733 0)
(1.00128 0.000393657 0)
(1.04199 0.0123142 0)
(0.993713 -0.00161564 -1.33456e-20)
(1.0591 -0.0207672 0)
(0.322669 0.0112522 5.60807e-21)
(1.04515 0.00895509 0)
(0.109893 0.000885255 0)
(1.04946 0.00877436 9.00259e-21)
(1.05143 0.00960205 -8.42008e-21)
(1.02122 0.00635166 -3.71862e-22)
(0.801098 0.0088513 0)
(1.04868 0.0081499 -4.57062e-21)
(1.16374 0.0120765 -2.62453e-20)
(0.289746 0.000446697 -1.55145e-21)
(1.0614 -0.0217881 -8.5899e-21)
(1.00441 0.00570352 0)
(1.00298 0.000624754 -1.25887e-20)
(0.642288 -0.00309316 0)
(0.025141 -0.00299189 1.26557e-20)
(1.04859 0.0188854 1.01227e-20)
(0.787985 0.00926376 0)
(0.981556 0.029649 1.97467e-20)
(0.56437 0.0147485 0)
(1.03777 0.0232456 -1.51859e-21)
(0.978666 0.00465177 -3.03164e-20)
(1.04722 0.00626679 0)
(0.991554 0.0736733 -8.93372e-21)
(1.05416 -0.00358507 4.19032e-21)
(1.13752 0.036637 -3.81738e-20)
(1.05383 0.0046245 3.27826e-21)
(1.11186 -0.0201704 -2.02889e-20)
(0.843667 0.0645152 0)
(1.07354 0.0235004 0)
(1.01375 0.0012859 -1.9961e-21)
(1.04302 -0.00146834 -8.02329e-22)
(1.06107 0.00584745 -8.61382e-21)
(0.420605 -0.0411048 4.58194e-23)
(1.02958 0.0392203 -4.58315e-22)
(0.88144 0.00506066 6.73379e-20)
(0.983686 0.061332 0)
(0.879617 -0.00355109 1.7534e-21)
(1.08503 0.0213349 1.90069e-20)
(1.0836 0.0224303 -1.73212e-20)
(1.0526 0.0248179 0)
(1.01833 0.00722729 2.25702e-21)
(0.69069 0.267403 3.52313e-20)
(1.02179 -0.0170325 2.43025e-21)
(1.01202 0.0334648 3.71003e-21)
(1.09026 -0.0340867 0)
(1.05582 0.0163705 -2.37157e-21)
(0.999577 0.0178184 0)
(0.73002 -0.0148355 1.05543e-21)
(0.970289 0.00373007 -4.43548e-21)
(1.10342 0.0860964 0)
(0.405297 0.00789874 -2.01604e-21)
(0.127188 -0.00926827 -4.46144e-21)
(1.01858 0.00706142 0)
(1.04416 0.0265688 -7.0036e-21)
(1.12316 0.048941 0)
(0.94895 -0.005087 0)
(0.311601 0.00335484 1.57169e-22)
(1.04865 0.00801597 -7.50056e-21)
(1.09775 -0.0313974 1.32666e-20)
(1.06992 0.0336027 0)
(1.02636 0.0457425 0)
(1.03735 0.0237698 -1.12474e-21)
(0.58626 0.0163809 -4.18972e-21)
(1.02259 0.0455571 0)
(1.00443 0.00553565 0)
(1.00084 0.0482 0)
(1.03792 0.0212535 0)
(1.05148 0.00998378 0)
(1.00274 0.0214086 3.70468e-21)
(0.988451 0.00287879 -9.19597e-21)
(0.995884 0.017228 -5.81387e-21)
(0.888995 0.0271802 4.62557e-22)
(1.046 0.00879533 -6.77945e-23)
(1.10564 0.0839248 9.80499e-22)
(0.989834 0.0712764 1.18028e-20)
(1.02763 0.0181149 -8.06667e-22)
(1.10164 -0.0303547 3.25658e-20)
(1.04846 0.00885462 -3.53745e-21)
(1.04464 0.0135554 4.64501e-21)
(0.676572 -0.00330067 2.51954e-21)
(1.01175 0.0645766 -3.0548e-21)
(1.03175 0.008333 5.32915e-22)
(1.04318 0.026578 3.05718e-21)
(0.987866 0.0034386 0)
(0.493744 -0.0100309 0)
(0.480751 -0.0180262 5.73853e-22)
(1.00003 0.000493204 0)
(0.959251 0.0322315 0)
(1.04374 0.0139242 3.99852e-21)
(1.09527 -0.00107067 -1.16271e-20)
(1.04336 0.0546838 -7.92727e-21)
(0.0179692 0.0185328 6.82829e-20)
(1.00983 0.400238 -4.78935e-21)
(1.01503 0.0412983 7.34007e-22)
(0.995059 0.0169653 -7.66976e-21)
(1.02123 0.0145365 -1.65147e-21)
(1.08063 -0.0108639 1.0892e-20)
(1.05697 0.0321602 -9.12016e-21)
(1.04846 0.0195252 -6.05377e-21)
(0.966822 0.133908 9.44985e-21)
(1.03204 0.00988712 0)
(0.522135 0.11247 -7.06958e-20)
(0.999413 0.0172902 -6.65052e-21)
(1.00386 0.00418822 -8.09092e-21)
(1.00705 0.00870547 -4.31404e-21)
(0.686313 0.00151473 1.69419e-21)
(0.949375 -0.00711013 2.0226e-20)
(1.01746 0.00690075 0)
(1.04666 0.0233516 -6.841e-22)
(1.03307 0.00737056 -9.19812e-23)
(0.99883 0.0035397 0)
(0.993932 0.000792797 0)
(1.05287 0.0239703 1.19113e-21)
(0.96302 0.144363 1.18087e-20)
(0.973583 0.00339373 -1.78775e-20)
(1.16072 -0.0192056 -2.98236e-20)
(1.03503 0.0239784 1.83519e-22)
(1.04854 0.00805083 1.04421e-20)
(1.02067 0.0136953 -1.69466e-21)
(0.382635 0.00523224 -9.91525e-22)
(0.492127 0.0132366 1.15282e-22)
(0.364763 -0.037558 9.35792e-21)
(0.156816 0.00458558 0)
(1.00004 0.000440048 1.39967e-20)
(0.996202 -0.00494979 1.21466e-20)
(0.180881 0.03608 6.38659e-20)
(1.14416 0.032813 -6.81845e-20)
(1.04335 0.0122073 0)
(0.214004 -0.00332597 0)
(0.762335 0.203928 -5.18553e-20)
(0.641655 -0.0132272 -1.51629e-21)
(1.04397 0.0141644 -4.96956e-21)
(1.00568 0.00113241 -3.23172e-21)
(0.586915 0.0128354 -1.97579e-21)
(0.569177 0.013654 4.96392e-21)
(0.170556 -0.0330415 -1.13622e-21)
(1.10687 -0.0322481 -1.75739e-20)
(0.76754 0.222727 5.76412e-20)
(1.04323 0.0108843 4.71118e-21)
(0.889663 0.0460245 0)
(1.04125 0.00604119 0)
(1.00297 0.0206549 -6.05118e-21)
(1.03356 0.0244251 3.96318e-22)
(1.01181 0.0670503 -2.81613e-21)
(1.04028 0.00939074 1.85981e-21)
(1.06211 0.00686646 -8.32769e-21)
(1.24139 0.188875 4.3908e-20)
(1.11163 -0.00102837 0)
(0.952247 0.146235 -2.65616e-20)
(1.00322 0.0217089 6.56067e-21)
(0.884116 0.0256077 -6.90292e-20)
(1.01646 0.0119639 0)
(1.00583 0.00867297 -5.01219e-21)
(0.898983 0.0760853 5.67999e-20)
(1.04843 0.00887954 2.24363e-21)
(0.828833 0.125559 0)
(1.0286 0.0387053 0)
(1.10169 0.116274 -3.32077e-20)
(0.679828 -0.015083 -1.6426e-21)
(1.13555 0.0322257 3.53249e-20)
(-0.223915 -0.0140932 0)
(0.418077 0.00638487 1.75038e-21)
(1.04043 0.00904262 -2.07045e-21)
(0.952772 0.0760622 1.93369e-20)
(1.04147 0.0552115 3.99817e-21)
(0.721688 0.00152355 6.13915e-23)
(0.99931 0.0487427 0)
(1.0019 0.00139599 -2.18515e-22)
(1.1185 -0.00618498 -1.62533e-20)
(1.0196 0.00411027 0)
(0.808391 0.0714278 -3.97116e-20)
(1.04618 0.0140332 -5.01958e-22)
(1.03958 -0.00264728 -1.03476e-21)
(1.05062 0.0138894 -6.66357e-21)
(0.3542 0.00883754 0)
(1.03944 0.00700978 0)
(1.0486 0.00888975 1.82101e-21)
(1.13895 0.011856 2.31264e-20)
(0.996575 -0.0045344 -1.46261e-20)
(1.21488 0.0176724 1.90001e-20)
(0.300788 -0.000781846 2.33283e-21)
(1.0525 0.0100998 3.17273e-21)
(1.04988 0.00987175 6.35881e-21)
(0.847174 0.0582365 4.78851e-20)
(0.953451 0.0721502 -6.08266e-21)
(0.998952 0.00359662 0)
(1.03074 0.00913986 -2.60403e-22)
(1.00547 0.00857524 -5.15901e-21)
(-0.226781 -0.0105149 -3.74376e-20)
(0.971072 0.0353904 -1.29793e-20)
(1.05372 -0.00310872 -2.27659e-21)
(0.996756 0.0699782 5.34491e-21)
(1.0386 0.0150739 -1.58757e-21)
(1.05794 0.0329722 1.58003e-20)
(0.966977 0.000795426 1.68751e-20)
(1.03209 0.00754145 -9.7238e-23)
(0.760451 0.00677365 2.63297e-21)
(0.308209 -0.0326911 0)
(0.654752 -0.00829544 8.35889e-22)
(1.04498 0.00934749 0)
(0.14257 -0.0113373 -6.75238e-22)
(0.178959 -0.00480931 -6.12067e-21)
(1.04665 0.0239365 -7.62933e-21)
(0.99924 0.00524444 -7.48304e-21)
(1.02018 0.0134388 1.72368e-21)
(0.969952 0.0338236 -1.32174e-20)
(1.04522 0.0142564 2.19827e-21)
(1.01296 0.0395329 0)
(0.316682 0.0100345 -4.08519e-21)
(1.02503 0.00718817 0)
(1.00395 0.0045144 1.62627e-20)
(0.974582 0.0363015 1.55073e-20)
(1.08282 -0.00668279 0)
(1.04786 0.0106403 -3.00082e-21)
(1.09342 0.000299006 0)
(0.410409 -0.0483331 0)
(0.483767 -0.0164527 -4.03927e-21)
(1.04291 0.0122121 3.17027e-21)
(1.06669 0.0354728 1.48116e-20)
(1.07113 0.011331 0)
(0.997548 0.0154886 5.23743e-21)
(1.03616 0.0459917 1.84245e-21)
(0.998975 0.00071233 3.22129e-21)
(0.960368 0.156741 9.35902e-21)
(1.03773 0.0247118 1.5074e-22)
(1.00735 0.00769069 0)
(0.272502 0.11295 -1.94316e-22)
(1.02072 0.0142308 1.66802e-21)
(0.989717 0.0392911 1.49339e-20)
(0.641127 -0.00139536 -2.83087e-21)
(1.13642 -0.0128049 -5.08209e-20)
(1.11528 -0.0346582 0)
(1.0522 0.0159451 0)
(1.09818 0.0922692 -2.33795e-20)
(0.211525 -0.0359002 4.34929e-21)
(1.05672 0.0299449 1.1897e-20)
(0.998483 0.0163856 -1.34141e-20)
(0.0266496 -0.024844 -3.114e-20)
(0.956901 0.0322252 0)
(1.00015 0.0036413 5.60844e-21)
(0.0789917 -0.000336418 0)
(0.894547 0.0432966 0)
(1.02868 0.00566053 -3.33828e-23)
(0.973558 0.0350199 -1.02263e-20)
(1.04561 0.012533 0)
(0.0457331 -0.0114357 -7.02885e-22)
(1.03694 0.0447214 -2.17446e-21)
(1.0439 -0.00738322 0)
(1.04973 0.0099302 0)
(0.591596 0.00164972 8.27136e-20)
(0.999067 0.0005617 0)
(1.13148 0.0319558 3.23264e-20)
(0.998891 0.00917006 0)
(1.09058 0.336207 2.32683e-20)
(0.573015 0.204372 0)
(1.06329 0.0718041 -1.05535e-20)
(0.931654 0.0423908 2.33344e-23)
(1.04137 -0.0074325 0)
(0.968597 0.0043819 0)
(1.04849 0.00888014 -1.06941e-20)
(0.999954 0.00048344 0)
(1.02794 0.0185974 8.9902e-22)
(0.899405 0.0879671 -1.86558e-20)
(0.724293 0.166273 -4.55931e-20)
(1.00034 0.00016138 -9.51044e-21)
(1.04049 0.0101497 -1.72089e-21)
(1.14666 -0.0168417 5.74686e-20)
(0.997116 0.000768102 0)
(1.05286 0.0168156 0)
(1.02948 0.0359259 0)
(0.767135 0.00760187 2.27522e-21)
(1.12128 -0.00451903 -5.44965e-20)
(1.05692 0.00615271 -1.3221e-20)
(1.0295 0.00584374 -5.68498e-23)
(-0.196488 -0.0114829 0)
(0.935085 0.0427619 3.33506e-23)
(1.04888 0.00819354 -3.07662e-21)
(0.338754 -0.046806 1.6334e-20)
(0.838246 0.116826 -6.55671e-20)
(1.04743 0.00988602 0)
(1.03066 0.00732657 -7.73103e-23)
(1.03886 0.0364777 2.74335e-21)
(1.0041 0.000147662 5.95864e-21)
(1.20853 0.179996 0)
(1.00032 0.00405583 -1.6668e-20)
(1.02504 0.0462244 0)
(0.985661 0.00110237 0)
(1.01609 0.0115887 -2.1208e-21)
(0.791271 0.00703224 -7.15154e-21)
(1.00234 0.0199589 -6.37842e-21)
(0.97741 0.0373063 1.52443e-20)
(1.04947 0.00848129 3.93264e-21)
(0.292611 -0.0298102 -1.31752e-21)
(1.02036 0.019043 0)
(1.03452 0.0245955 4.25105e-22)
(1.01318 0.00933235 2.80266e-23)
(1.04795 0.012148 8.53846e-21)
(-0.194314 -0.014938 -4.10945e-23)
(0.913611 -0.0486457 2.36025e-22)
(1.01728 0.386043 0)
(1.03792 0.0430057 -1.46913e-21)
(0.594182 -0.00749374 5.51877e-22)
(1.03491 0.0461667 -1.58002e-21)
(1.03925 0.0100407 0)
(0.999963 0.00044044 4.97353e-21)
(1.01634 0.00025474 3.54941e-21)
(1.00237 0.0237394 -7.65271e-21)
(1.01416 0.000169724 -1.08832e-22)
(0.943625 -0.035996 0)
(1.0473 0.0215727 6.35881e-21)
(0.999932 0.00058461 -5.23727e-21)
(1.198 0.0243821 5.52972e-20)
(1.01356 0.00927552 -3.97889e-21)
(1.15896 0.00948624 -2.73666e-20)
(1.06137 -0.0203592 0)
(1.05205 0.0108406 -1.45642e-21)
(1.2046 0.0118887 0)
(1.05211 0.0153385 0)
(0.695213 -0.0159761 3.35221e-21)
(1.05641 0.00588154 9.82543e-21)
(0.965587 0.0118808 0)
(1.00004 0.000620166 -4.65105e-21)
(0.905731 0.0873623 -4.45967e-20)
(1.02096 0.0312246 0)
(1.01818 0.0194685 -2.908e-21)
(-0.176252 -0.0146474 -5.84636e-20)
(1.04947 0.0116507 -5.45984e-21)
(0.970274 0.00108583 0)
(1.06506 0.0358482 0)
(0.322921 0.0011784 0)
(0.515497 -0.0361346 2.91274e-22)
(1.0604 0.0135688 9.96466e-21)
(1.05121 0.0154311 0)
(1.03864 0.0576228 -4.00311e-21)
(1.04597 0.00859722 0)
(1.03978 0.00719245 0)
(0.921108 0.0578795 -2.15813e-20)
(-0.157055 -0.0171486 -9.25341e-20)
(0.984425 0.0138631 -8.34196e-23)
(1.02098 0.0190857 0)
(1.07136 0.0533933 2.14029e-20)
(0.916993 0.0587971 0)
(1.05947 0.0167187 3.38314e-21)
(1.07646 0.0395771 -2.50152e-20)
(1.01437 0.000708073 -3.73371e-21)
(1.0472 0.0912374 -1.18049e-20)
(0.999918 0.000543963 3.11273e-21)
(0.985705 0.000294497 0)
(0.529106 0.0145999 -1.19453e-21)
(1.06127 0.0135693 -1.21505e-20)
(1.00245 0.0229369 0)
(1.12603 0.0278499 3.0946e-20)
(0.976748 0.0361866 -7.03202e-21)
(1.00326 0.0093469 -7.2049e-21)
(0.897343 0.165778 5.06695e-20)
(0.525998 -0.0263117 -1.43125e-21)
(0.994613 -0.000472386 1.85699e-21)
(0.998173 0.0084882 -9.58509e-21)
(1.01064 0.00147638 5.8625e-21)
(1.02798 0.0171095 -5.87886e-22)
(0.508752 0.0122508 0)
(0.995048 -0.000292429 -1.34364e-21)
(0.967262 0.0127992 0)
(1.18848 0.0102898 0)
(1.01005 0.0309878 0)
(1.0079 0.043734 -2.51194e-21)
(0.154648 -0.0248314 4.23476e-20)
(0.996372 0.00241117 1.01195e-20)
(1.20092 0.0199052 -1.76724e-20)
(1.02089 0.0041344 -2.49261e-21)
(1.03802 0.00473638 2.90731e-21)
(0.505667 0.0144256 0)
(1.05796 0.0168798 0)
(0.972624 0.00256568 9.60892e-21)
(0.996832 9.72553e-05 9.24003e-21)
(1.04975 0.0101765 0)
(1.04364 0.0108147 0)
(1.02025 0.00415517 2.83404e-21)
(0.981565 0.0538758 -2.27532e-22)
(1.01102 0.000754694 2.7613e-21)
(1.04771 0.0881168 3.41834e-21)
(1.03049 0.00768856 -1.5708e-22)
(1.06997 0.0515051 -2.13971e-20)
(1.05521 0.0126462 -8.75118e-21)
(1.04011 0.0102385 0)
(-0.0370965 -0.0227438 -4.46401e-20)
(1.04771 0.0108169 0)
(0.842285 -0.0376555 -2.27871e-20)
(0.996702 0.0722765 -8.71264e-21)
(1.02125 0.00426246 1.25913e-21)
(1.07806 -0.00580019 -8.20831e-21)
(0.998873 0.00534744 0)
(1.04761 0.00976995 4.59911e-21)
(1.13639 0.013196 0)
(0.895953 0.0718176 -6.10177e-20)
(1.03953 0.00465569 0)
(0.627356 -0.00844587 0)
(1.00318 0.000501312 5.80315e-21)
(0.443303 -0.00368736 -4.3669e-20)
(1.07735 -0.00260435 -8.68118e-21)
(1.04696 0.0220117 -5.51601e-21)
(0.929873 0.0378485 -1.60732e-20)
(0.257802 -0.0425656 5.42269e-20)
(0.493052 -0.0513245 -1.12048e-20)
(1.02096 0.00565979 0)
(1.00592 0.00128575 1.97038e-21)
(1.00512 0.00806581 5.28116e-21)
(1.14811 0.0254073 -2.60275e-20)
(1.12215 0.0447031 0)
(0.0608415 -0.0252924 -5.41574e-21)
(-0.0707458 -0.0103182 0)
(0.998484 0.00850371 -8.13111e-21)
(1.05061 0.00663384 0)
(0.724397 0.289552 4.53648e-20)
(1.05445 -0.00770082 0)
(1.0488 0.00818463 3.52977e-21)
(1.04768 0.0124232 0)
(1.05452 0.0440663 -3.09753e-21)
(1.02927 0.0141219 4.29741e-22)
(1.04303 0.0125239 -3.53221e-21)
(0.378203 -0.0458301 -1.514e-20)
(1.06767 0.0519109 2.73513e-22)
(1.04818 0.0129558 -2.05017e-21)
(1.01995 0.0042967 -3.24396e-21)
(1.00511 0.00786791 5.64275e-21)
(1.03262 0.0106947 0)
(1.06072 0.0700338 0)
(1.00926 0.00667133 8.17692e-21)
(1.04026 -0.000217011 -2.99016e-21)
(1.00007 0.00362206 -7.18119e-21)
(0.480271 0.0141665 -4.55324e-21)
(1.06123 -0.0214041 -9.14875e-21)
(1.04513 0.086433 2.30972e-21)
(0.705892 0.173065 0)
(1.02885 0.014335 -2.15505e-22)
(0.998681 0.0170306 0)
(0.620453 -0.00793939 -2.02267e-21)
(1.04255 0.0127934 5.76816e-21)
(0.483573 0.0146521 4.95715e-22)
(1.00776 0.00785239 -8.18148e-21)
(1.03301 0.0105184 -3.97572e-23)
(1.00866 0.0213066 9.49591e-21)
(1.00004 0.000165552 1.02687e-20)
(1.05136 0.00735819 -1.29836e-21)
(1.05281 0.0161514 0)
(0.013947 -0.0253814 2.56333e-23)
(-0.0923449 -0.0114735 9.4629e-20)
(0.99676 0.000511384 0)
(1.03835 0.0146613 4.67575e-21)
(1.05115 0.0158712 5.93376e-22)
(1.06664 -0.00503032 -1.39554e-20)
(0.998054 0.2057 9.13592e-23)
(1.02043 0.0960042 0)
(1.03111 0.0112761 -7.55591e-22)
(1.10102 0.407757 0)
(0.990873 0.0642724 6.68821e-21)
(0.986128 -0.0462327 2.91056e-20)
(1.02358 0.00999886 1.82961e-21)
(1.12494 -0.013003 1.12328e-20)
(0.44635 0.0114213 -7.70852e-22)
(1.00937 0.00644032 -4.46299e-21)
(0.996117 0.0180306 6.27865e-21)
(1.05825 0.129197 -7.87987e-21)
(1.00001 -0.000276978 8.73013e-21)
(1.02058 0.00432323 -6.24253e-23)
(1.07696 0.0433977 0)
(1.03856 0.0186752 1.16079e-22)
(0.609988 0.0151234 3.88522e-21)
(1.07483 0.0140323 0)
(1.08867 -0.0293302 0)
(1.00255 0.019203 0)
(1.11582 -0.0176274 2.12662e-20)
(0.761619 0.552524 0)
(1.06218 0.127684 4.78034e-22)
(1.00001 -0.000241271 0)
(0.561916 0.01413 -4.57031e-21)
(1.01265 0.0211178 2.0775e-21)
(1.04405 0.00495953 0)
(0.995259 0.00290775 -1.25694e-20)
(0.998977 0.000177247 0)
(0.567484 0.016195 5.01991e-21)
(1.04519 0.00545252 3.39784e-21)
(1.0491 0.00559702 2.86144e-21)
(1.0509 0.00675406 0)
(0.993027 0.103909 -1.57004e-20)
(1.02547 0.0072367 0)
(0.571655 -0.0203535 -1.87151e-21)
(1.00346 0.0116517 8.59569e-21)
(1.13298 0.0788731 -4.51681e-20)
(1.17745 0.0108892 -2.31207e-20)
(1.05093 0.0150902 1.09702e-20)
(1.01003 0.00551772 -3.59421e-21)
(0.991978 0.01316 -8.78002e-21)
(1.04878 0.00926582 -5.8557e-21)
(1.05615 0.0443887 -3.37144e-21)
(1.00004 0.00101732 0)
(1.11992 0.0512952 0)
(0.79815 0.241449 0)
(1.05191 0.011295 1.62962e-21)
(0.992006 -0.00872148 -8.4063e-21)
(0.00194737 -0.00443659 3.81598e-20)
(0.473237 -0.0248712 5.75712e-21)
(1.12069 0.318591 0)
(0.994118 0.0147135 0)
(0.903402 0.170086 1.47849e-20)
(1.02154 0.0061441 2.15208e-21)
(1.03671 0.0194058 -2.27345e-21)
(0.945594 0.144332 1.90179e-20)
(0.337157 0.00442985 1.2484e-21)
(0.946473 0.107374 -1.9591e-20)
(0.521977 -0.011384 1.28178e-21)
(0.900758 0.155562 -4.07763e-20)
(1.08252 -0.00807342 0)
(1.04196 0.0126075 1.89814e-21)
(1.02069 0.0320032 0)
(0.395419 -0.0466485 2.62332e-20)
(1.1929 0.0823171 5.35754e-20)
(1.00472 0.00683077 -3.10078e-21)
(1.04987 0.0121254 -3.83115e-21)
(1.07917 -0.00675826 -2.55533e-21)
(1.05747 0.0307987 -1.30837e-20)
(0.94664 0.112928 5.18676e-21)
(1.03738 0.0557504 6.93387e-22)
(1.02176 0.098651 2.71834e-22)
(1.08975 -0.0341485 0)
(1.01055 0.00523518 -7.20312e-21)
(1.07581 0.0361212 -1.60716e-20)
(1.00714 0.00119833 8.65971e-21)
(1.03042 0.0291901 2.49416e-23)
(0.805513 0.00769003 -1.9787e-21)
(0.467752 -0.0368728 5.86317e-21)
(1.08551 0.111516 2.16695e-20)
(0.986658 0.00183982 0)
(1.01418 0.00134939 -5.42577e-21)
(1.02019 0.00564909 4.42964e-21)
(0.998525 0.0622521 9.54637e-21)
(0.8466 0.099907 2.82442e-20)
(0.177599 -0.0383462 3.12166e-20)
(1.07226 0.0122991 0)
(1.14847 0.0218008 2.89242e-20)
(0.469059 0.0157061 0)
(1.10039 0.0774614 0)
(0.984157 0.101723 -2.34975e-20)
(0.56136 0.0154827 5.72079e-21)
(1.0113 0.0343202 1.06216e-21)
(0.467944 -0.016635 -1.84013e-21)
(1.02744 0.0462405 5.55225e-22)
(1.00405 0.000821031 0)
(0.986898 0.00932595 -3.56748e-21)
(1.04923 0.0119226 -1.29421e-20)
(1.10242 0.0392789 4.33516e-21)
(1.01035 0.00180946 3.36706e-21)
(0.926111 0.0381383 -9.59812e-21)
(1.07266 0.0313458 -8.11363e-21)
(1.12578 0.0351609 3.02969e-20)
(0.982641 0.0994195 1.97829e-20)
(1.04007 0.00861451 -4.6759e-21)
(1.01159 0.0324071 -1.37276e-20)
(1.04115 0.0087301 2.57514e-21)
(1.04834 0.00897976 0)
(1.05917 0.0128493 0)
(1.04918 0.00924573 1.17373e-20)
(1.00049 0.000239204 0)
(0.979123 0.0244494 -2.3074e-20)
(-0.207655 -0.0141486 7.21033e-21)
(0.568763 -0.0186262 3.42223e-21)
(1.00249 0.0338337 -1.06714e-20)
(1.04547 0.00533346 0)
(0.986454 0.00239094 4.28617e-21)
(1.01783 0.00711378 -2.52793e-21)
(0.992486 -0.00821662 1.51616e-20)
(0.997874 0.0648324 -1.62453e-20)
(1.04553 0.0129059 0)
(1.01771 0.0188834 2.41026e-21)
(0.971372 0.12567 4.68891e-21)
(1.03086 0.0124891 0)
(1.04072 0.0574586 4.05724e-21)
(0.991851 0.0139193 0)
(1.07725 0.0475353 6.43124e-21)
(1.04263 0.0131213 8.67679e-23)
(1.00995 0.00582851 -7.13867e-23)
(0.991997 -0.00382421 -1.3883e-20)
(1.07365 0.0144552 0)
(1.07202 0.0260322 0)
(1.25129 0.124758 -8.03309e-22)
(1.05653 0.0165473 -3.36071e-21)
(1.00479 0.00666841 2.98396e-21)
(0.998575 0.00907113 6.8624e-21)
(1.00403 0.000606302 7.22571e-21)
(0.765231 0.00992154 0)
(0.89987 0.0458853 -2.72591e-20)
(1.09183 0.0358908 -3.2336e-20)
(0.412964 -0.0336785 2.84835e-21)
(1.02003 0.102363 1.75977e-21)
(1.05061 0.0161686 -4.91259e-22)
(0.808228 0.00927262 -2.46331e-21)
(1.00888 0.022036 -1.16044e-20)
(1.00353 0.0112393 8.87173e-21)
(1.00294 0.000876228 0)
(1.03087 0.0116102 5.5554e-22)
(1.06611 -0.00618245 3.91544e-21)
(1.0108 0.000659846 0)
(1.0163 0.00598486 0)
(1.11867 -0.0220227 1.26497e-20)
(1.05565 -0.00462574 0)
(0.92844 0.0618519 -3.27073e-20)
(1.03267 0.00702494 -9.10133e-22)
(0.744245 0.00768961 3.81133e-22)
(0.0801992 0.0238185 -1.46688e-19)
(1.0531 0.00724699 4.85234e-21)
(1.01929 0.0754222 -3.43453e-22)
(1.05351 0.0170986 0)
(1.05261 0.0150199 0)
(1.09768 0.0800046 0)
(1.0076 -0.000783751 7.9309e-22)
(1.12177 -0.0209078 -2.3523e-20)
(1.04503 0.00959226 -5.80754e-21)
(-0.147284 0.00881618 1.36228e-19)
(0.993341 0.0635736 -1.09152e-20)
(1.0155 0.108003 -2.06344e-21)
(1.06025 0.407437 3.18117e-20)
(1.00662 0.000682264 0)
(1.13111 -0.0169842 2.32294e-20)
(1.04078 0.0185961 0)
(1.00003 0.000182417 -7.39459e-21)
(0.249923 -0.046153 -3.67795e-20)
(1.04873 0.00936072 0)
(0.702415 0.194572 0)
(0.625701 0.0142361 -3.66331e-21)
(1.13422 0.0483732 3.53639e-20)
(1.002 0.0185886 6.23035e-21)
(0.743845 0.00991433 4.11914e-22)
(1.00727 0.00848246 0)
(0.983656 0.0526681 1.94796e-22)
(1.04685 0.0158256 1.12269e-20)
(1.03773 0.0370618 -2.48614e-21)
(0.999642 -0.000658797 0)
(-0.0411732 0.0127209 0)
(0.406753 -0.047077 1.51524e-20)
(1.04903 0.00791107 -7.7426e-22)
(1.04716 0.0140645 0)
(1.01169 0.0745129 -1.72151e-21)
(0.459151 0.00992436 0)
(1.21479 0.0269689 -5.32883e-20)
(1.01909 0.110397 2.74616e-21)
(0.456814 -0.0336208 6.67569e-21)
(1.04108 0.0182427 0)
(1.0071 0.000844685 -2.52604e-21)
(1.01954 0.0119229 0)
(0.997085 0.00114169 0)
(0.985573 0.0154302 -2.6586e-20)
(0.468997 0.0173191 6.17637e-22)
(1.05071 0.0127514 -9.48788e-21)
(-0.0273715 -0.0223565 4.31096e-20)
(1.03807 -0.000683667 -7.06007e-22)
(1.00664 0.000282791 -1.85198e-22)
(1.06984 0.0114749 0)
(0.908861 0.104895 6.95248e-20)
(1.01842 0.000250797 2.43811e-21)
(1.0296 0.0290391 2.39678e-23)
(0.35922 -0.0362144 -1.71007e-20)
(0.166631 0.00135554 0)
(1.03628 0.0249738 -3.3316e-21)
(1.09277 0.0375905 9.00629e-21)
(1.01197 0.040442 1.33802e-22)
(1.00235 0.00829887 1.55867e-20)
(1.07632 0.0340972 8.73637e-21)
(1.04548 0.0118959 -3.17735e-21)
(0.5221 -0.0260459 0)
(1.11929 0.00653927 3.34754e-20)
(1.04746 0.0148449 -1.58491e-21)
(1.03183 0.000192645 -8.00902e-22)
(0.978621 0.0974837 2.29534e-20)
(1.04072 0.012144 -1.95336e-21)
(1.00032 0.00331488 1.10293e-20)
(0.784174 0.380065 0)
(1.06179 -0.00558345 -5.65948e-21)
(1.03205 0.0103249 5.31073e-22)
(1.04847 0.0119948 0)
(0.175897 0.00152194 0)
(0.994709 0.0143381 -8.07956e-21)
(0.984496 0.184141 0)
(1.02519 0.0105974 -1.98085e-21)
(0.455269 0.0159524 -3.76684e-21)
(0.993606 0.183471 -2.07064e-21)
(0.990731 0.0407568 -1.63581e-20)
(1.01438 0.0396694 0)
(1.03139 0.00799521 -8.9634e-22)
(1.01246 0.000791572 3.0059e-21)
(1.01697 0.0742786 0)
(0.519788 0.209241 0)
(1.01377 0.0207437 4.11966e-21)
(1.03205 0.0112606 0)
(1.0476 0.00801381 0)
(0.987958 0.039316 -1.95502e-20)
(-0.000372857 -0.026634 0)
(0.983065 0.2167 -3.08608e-21)
(0.996322 0.00576915 0)
(1.01447 0.00113201 3.93865e-21)
(0.984091 0.0127981 -3.54469e-21)
(0.844806 0.0911644 -1.65133e-20)
(1.00467 0.0340897 -8.92381e-21)
(1.0043 0.00294501 -8.37389e-21)
(1.04204 0.00922273 -8.13331e-22)
(1.09957 -0.0329938 -7.23269e-21)
(1.00142 0.00636102 0)
(1.02485 0.00686064 5.01479e-22)
(1.0722 0.0228068 0)
(0.553965 0.0167099 3.83339e-21)
(0.99978 0.00584572 1.88839e-21)
(1.03488 0.00681692 9.16509e-22)
(1.02817 0.017657 0)
(1.04499 0.0100244 1.68377e-21)
(1.01667 0.00630534 0)
(0.0633189 -0.0134949 -9.09259e-21)
(1.07868 0.0492713 0)
(1.05163 0.00757315 -2.74975e-21)
(1.08624 0.4196 -1.49876e-20)
(0.95775 0.72314 -2.9968e-20)
(1.03162 0.0110854 1.95074e-22)
(1.18873 0.241845 0)
(1.01939 0.0014854 1.18573e-21)
(0.778303 0.0104592 0)
(1.06223 0.0220716 -9.16429e-21)
(1.04841 0.0128797 0)
(0.995488 0.000588678 -1.00775e-20)
(0.986977 0.00991087 0)
(0.0880895 -0.00838686 0)
(0.970954 0.00232358 1.06284e-20)
(0.89204 -0.00420776 2.9705e-23)
(1.00233 0.00790535 -1.29821e-20)
(1.05169 0.00448004 2.16398e-20)
(0.53644 0.0155077 -1.45929e-21)
(0.125239 -0.00725051 0)
(1.11357 0.00445241 0)
(0.998907 0.000373086 0)
(0.579689 0.0133478 0)
(0.999999 1.85281e-05 1.18911e-20)
(1.01437 0.0209433 0)
(1.04753 0.00821745 5.26454e-21)
(1.22175 0.297254 3.5201e-20)
(0.969412 0.0155684 0)
(1.15539 0.0378063 -2.37852e-20)
(1.04779 0.00906373 8.51444e-21)
(0.992455 0.0404231 -1.44674e-20)
(1.05033 0.0126411 4.73903e-21)
(1.00001 0.000511778 9.26025e-21)
(1.00673 0.0428291 -5.48474e-21)
(0.984983 0.0161373 2.61702e-20)
(1.00611 0.000285001 1.0672e-22)
(1.00403 0.00293309 1.24783e-20)
(1.14322 0.0893754 3.29984e-20)
(0.996477 -0.000248958 -9.44371e-21)
(1.07367 0.0251258 0)
(1.04309 0.0101511 2.90863e-21)
(0.524751 0.206316 -2.96622e-20)
(0.999995 -0.000150566 0)
(1.09941 -0.0326215 -6.78141e-21)
(1.02209 0.00853465 9.48659e-22)
(0.836504 0.108187 1.62847e-20)
(1.04846 0.00820739 -2.58861e-21)
(1.09763 -0.000202923 1.38907e-20)
(1.05993 0.0127965 -2.74705e-21)
(1.0953 0.0948225 1.89747e-20)
(1.05721 0.0354992 5.89231e-21)
(1.04651 0.00748002 1.02642e-20)
(0.999978 -0.000534823 0)
(1.04962 0.012456 3.29609e-21)
(1.07857 -0.00868441 -1.27261e-20)
(0.92381 0.0621033 1.19637e-20)
(1.01183 0.00072058 -9.37703e-22)
(1.01752 0.0065352 2.71927e-21)
(0.193864 -0.0281907 -4.42291e-20)
(1.04745 0.01021 6.24086e-21)
(1.07721 0.0375672 8.66831e-21)
(1.02854 0.0152322 5.04337e-22)
(1.00634 0.000843642 2.98365e-21)
(1.12968 0.0279854 -3.37309e-20)
(1.04657 0.0101246 5.45891e-21)
(0.809395 0.0102949 0)
(0.350046 -0.0136335 5.44953e-21)
(1.05509 -0.00535127 -4.7025e-21)
(1.05781 0.00686146 -1.0756e-20)
(0.0725628 -0.0262399 -3.8996e-20)
(1.02436 0.00678348 -5.81824e-22)
(1.00021 0.000174416 -7.28834e-21)
(0.416946 0.0135117 1.10121e-21)
(1.06215 0.0231643 1.11426e-20)
(1.0458 0.41855 0)
(1.05119 0.0045727 -3.12039e-21)
(0.996694 0.00138752 -9.47745e-21)
(1.01787 0.000418077 0)
(1.04662 0.00417396 -3.19854e-21)
(1.01902 0.0116698 0)
(0.648939 0.0132996 3.93327e-21)
(1.04456 0.00703316 0)
(1.0478 0.00917173 -2.97398e-21)
(1.02242 0.0122481 1.49577e-21)
(1.04615 0.0142208 5.68884e-22)
(1.00024 0.00154392 0)
(1.21498 0.0219425 4.48867e-20)
(1.03161 0.0104944 -4.41429e-22)
(1.02377 0.0183661 1.60693e-21)
(0.870266 0.267741 1.08235e-20)
(1.1179 0.00974498 -7.55432e-21)
(1.04062 0.0119359 3.8158e-21)
(0.0869494 -0.0224448 8.49655e-21)
(0.981262 0.223919 -4.66436e-21)
(0.902668 -0.00324415 -4.16396e-21)