/*--------------------------------*- C++ -*----------------------------------*\
| =========                 |                                                 |
| \\      /  F ield         | OpenFOAM: The Open Source CFD Toolbox           |
|  \\    /   O peration     | Version:  v2012                                 |
|   \\  /    A nd           | Website:  www.openfoam.com                      |
|    \\/     M anipulation  |                                                 |
\*---------------------------------------------------------------------------*/
FoamFile
{
    version     2.0;
    format      ascii;
    class       volVectorField;
    location    "300";
    object      ddt0(U);
}
// * * * * * * * * * * * * * * * * * * * * * * * * * * * * * * * * * * * * * //

dimensions      [0 1 -2 0 0 0 0];


internalField   nonuniform List<vector> 
15335
(
(0.000489812 -0.000126807 3.40473e-23)
(-0.000163159 -0.000324173 -3.07421e-22)
(0.000183347 0.000318376 0)
(3.56764e-08 -1.37048e-09 -1.38374e-22)
(4.19912e-07 3.15115e-06 9.68987e-23)
(-4.29927e-09 2.03394e-08 2.51595e-22)
(3.3242e-05 8.20457e-06 0)
(2.10061e-08 1.38343e-10 -1.07415e-23)
(2.62413e-07 1.16975e-07 2.9538e-23)
(5.2162e-07 5.47884e-07 0)
(1.77357e-08 5.98265e-07 9.70845e-23)
(2.81281e-08 1.20062e-08 0)
(0.000281203 0.000332633 2.5426e-23)
(2.74007e-05 3.44346e-05 0)
(-7.34106e-06 6.94212e-06 0)
(-2.0352e-07 -8.21366e-08 8.977e-25)
(-0.00023913 -0.000168851 1.39272e-22)
(-6.76432e-05 -7.53237e-05 0)
(7.74569e-08 -4.15852e-09 1.08416e-22)
(-5.3032e-06 2.1418e-06 -1.66393e-22)
(2.5884e-07 1.43093e-07 -1.99764e-23)
(-9.09451e-06 -6.2323e-05 -1.35987e-23)
(-2.72797e-07 5.25177e-06 1.47764e-22)
(3.10391e-07 1.74689e-07 0)
(0.000241237 0.0003149 -6.23858e-24)
(-0.000125253 -0.000297747 0)
(2.2007e-05 7.91369e-05 0)
(3.62418e-07 -4.07715e-08 -1.09164e-23)
(-1.00258e-05 8.2869e-06 -9.05716e-23)
(-0.000525148 -0.000375003 0)
(5.58799e-07 2.34213e-07 -1.08025e-24)
(-7.2635e-06 7.1718e-05 0)
(1.03832e-07 -1.13508e-08 0)
(-1.46039e-05 -4.9868e-05 0)
(-1.02283e-05 6.31638e-05 0)
(-0.000120496 4.02684e-05 -1.52489e-22)
(6.05584e-07 5.08327e-07 0)
(-6.52869e-05 1.6921e-05 -7.67978e-23)
(2.09482e-05 3.28421e-05 -3.20286e-23)
(-7.26888e-05 -6.49127e-05 0)
(4.41192e-08 1.13871e-07 -5.65639e-23)
(0.000310721 -0.000172642 -3.27721e-23)
(2.21248e-07 4.12415e-08 -5.40583e-24)
(-2.55262e-05 0.000231497 1.45336e-23)
(-0.000188967 0.000702239 1.86668e-23)
(1.42723e-07 -1.56069e-08 -1.08667e-23)
(1.12961e-06 5.16623e-06 -1.63229e-22)
(-4.09506e-08 -1.98624e-08 -1.19481e-25)
(-1.32252e-05 1.13956e-05 1.82745e-22)
(2.02791e-08 -3.97689e-09 0)
(3.03777e-07 2.21575e-07 -9.6721e-24)
(8.43655e-07 -5.26761e-08 5.50133e-24)
(-4.51767e-07 2.5921e-07 -4.08507e-24)
(5.09101e-05 -3.07436e-05 -4.35168e-23)
(0.000106656 4.76644e-05 -8.07391e-23)
(-0.000222477 0.000655339 4.95893e-24)
(0.000115009 0.000248577 0)
(-0.000192051 5.3053e-05 0)
(-8.4138e-05 1.74363e-05 -5.56773e-23)
(0.000133202 1.83478e-05 1.09937e-22)
(-0.000181243 -0.000288862 2.97562e-22)
(6.07954e-08 -2.32147e-06 0)
(-5.25526e-07 3.11639e-07 -6.48929e-23)
(-5.78313e-06 -8.5093e-06 1.18869e-23)
(4.37989e-07 3.01955e-06 8.25501e-23)
(0.000371714 0.000247005 3.9007e-23)
(-0.000189579 0.000971357 5.52784e-24)
(2.78782e-08 1.90722e-07 2.75121e-22)
(2.40494e-05 7.53582e-06 4.49504e-23)
(2.30067e-07 -6.10194e-08 0)
(-8.92916e-05 -6.88588e-06 -6.53191e-23)
(-3.81554e-07 5.14959e-06 -1.18581e-22)
(-1.3272e-07 6.81772e-08 1.58974e-23)
(-0.000168519 0.000977089 -3.43961e-24)
(3.53342e-06 3.68086e-06 -1.31258e-22)
(0.000887901 -0.000880381 0)
(-0.000245737 -0.000202931 7.74298e-23)
(8.31724e-08 -7.58713e-09 -1.59974e-24)
(8.06129e-08 1.09985e-08 1.26963e-24)
(-0.000111063 3.1983e-05 1.43729e-22)
(0.000126872 -0.000391882 -1.71997e-22)
(-7.34637e-06 -8.02836e-06 -2.41719e-22)
(-7.82969e-06 -8.93315e-06 0)
(-2.64225e-05 -7.77206e-05 -5.37363e-24)
(1.37646e-05 -1.78506e-05 1.31308e-22)
(0.000139941 6.97023e-06 3.66468e-23)
(-4.57303e-06 -1.01711e-05 2.74191e-23)
(1.46248e-05 7.72782e-05 0)
(3.24192e-09 1.96641e-08 -1.61702e-22)
(4.13131e-05 -1.94474e-05 5.55673e-23)
(0.000156934 -9.12533e-05 1.61832e-24)
(0.000339495 0.000424501 8.94681e-24)
(-0.000208062 0.00115173 -1.01057e-23)
(0.000116747 1.1832e-05 9.14621e-23)
(-4.90708e-06 1.94586e-06 1.65916e-22)
(-3.4936e-05 -7.86247e-05 -2.60669e-22)
(2.426e-07 9.61389e-09 0)
(0.000384058 0.000263409 9.80531e-23)
(6.16009e-07 1.27758e-07 0)
(0.000445928 0.00025129 1.32478e-22)
(2.52331e-07 1.92392e-08 6.16811e-24)
(-6.81761e-06 -2.39587e-05 -1.12331e-22)
(-0.000159162 -0.000222334 0)
(-2.39894e-07 -1.17498e-07 2.64519e-25)
(1.25494e-07 1.96218e-10 0)
(2.47554e-07 -3.85779e-09 6.42149e-24)
(-7.46487e-05 6.1231e-05 -3.20304e-24)
(-1.97564e-06 4.6563e-06 0)
(5.94751e-05 9.31274e-06 2.26168e-23)
(1.2197e-05 4.55873e-05 0)
(4.55686e-08 -1.21588e-09 0)
(-4.64308e-05 0.000163476 1.9339e-23)
(-0.000353543 -0.000248914 0)
(3.70409e-08 4.56909e-09 0)
(3.42228e-08 7.61201e-09 1.8999e-23)
(-1.59841e-08 -1.48522e-07 1.69216e-23)
(1.33371e-05 8.51595e-06 1.54599e-23)
(8.21833e-08 8.9876e-09 4.41437e-24)
(0.00024869 -0.000519905 2.22689e-22)
(0.000556171 -7.36969e-06 -1.89474e-23)
(-3.82501e-06 -1.9872e-05 7.05817e-23)
(3.58799e-05 2.13505e-05 1.38733e-22)
(2.64885e-05 3.65087e-05 2.63654e-24)
(8.2916e-08 -8.27873e-09 0)
(-1.85425e-05 6.15443e-05 5.21522e-23)
(-2.13035e-07 -5.4611e-07 8.14543e-24)
(5.33642e-08 5.32179e-08 0)
(3.31108e-05 -2.42481e-05 0)
(-2.33433e-05 6.81547e-05 -5.42048e-23)
(6.24239e-05 -6.49346e-06 -1.76824e-23)
(-9.40874e-07 -5.47193e-07 -8.78412e-24)
(3.88214e-05 1.7611e-05 -1.86913e-22)
(1.14462e-07 2.2504e-09 -6.93777e-24)
(0.000524628 -8.70882e-05 0)
(-4.02019e-08 -1.87267e-06 9.86539e-24)
(-0.000260593 0.00111559 7.09852e-25)
(-2.15775e-06 -2.16788e-07 2.42151e-23)
(2.39136e-07 -5.21423e-08 -6.59752e-24)
(1.07394e-05 3.95333e-05 0)
(-9.25077e-06 -4.05455e-05 -1.7699e-23)
(2.53873e-07 4.68284e-07 0)
(-0.000379425 0.000396161 -4.58224e-23)
(3.36065e-08 -2.13929e-09 0)
(-9.24923e-05 -0.000333396 -2.28191e-24)
(4.35897e-05 3.01817e-05 1.12728e-24)
(7.60662e-07 5.49923e-07 2.16116e-22)
(0.00101516 -0.000878913 -5.07483e-23)
(-0.000157257 -7.07164e-05 -4.80761e-23)
(-2.63835e-07 7.44554e-08 -9.51818e-23)
(2.31298e-05 0.000321059 4.01485e-23)
(1.29646e-07 2.39935e-10 2.69683e-24)
(5.1222e-05 -1.4476e-05 7.25008e-24)
(-8.02119e-08 -1.2934e-09 2.97636e-24)
(-4.33683e-06 -5.11534e-07 0)
(-0.000110214 -0.000108772 2.40974e-23)
(-1.15813e-06 2.68518e-07 7.18586e-23)
(-1.12144e-05 -8.37374e-05 -1.06565e-22)
(-9.86452e-07 4.09123e-06 0)
(-2.68331e-08 4.03867e-07 0)
(1.00923e-05 -1.88662e-05 -1.13189e-22)
(4.64145e-08 -2.90764e-08 -9.72088e-23)
(-5.06031e-05 5.55836e-05 3.75473e-23)
(-2.59428e-07 1.9531e-07 -1.91445e-23)
(-0.000116687 9.87488e-05 0)
(-0.000125751 -4.94969e-05 2.58881e-23)
(3.38715e-08 7.53625e-10 -1.43243e-22)
(2.06128e-07 7.10681e-07 1.89389e-25)
(5.78652e-05 -1.12995e-05 -1.98235e-23)
(-1.55851e-06 8.06619e-07 0)
(2.74623e-08 1.2982e-08 0)
(-6.15769e-07 1.67457e-06 -1.8938e-22)
(-5.13958e-08 -3.55128e-07 -5.01791e-23)
(1.66741e-07 6.00043e-07 -1.52781e-22)
(-1.37804e-06 5.16782e-08 -8.49878e-23)
(9.37655e-06 3.79973e-05 3.22429e-26)
(3.60115e-06 -7.80665e-06 -4.28907e-23)
(0.000102223 -0.000407302 0)
(-1.83845e-06 3.81525e-07 0)
(-4.72488e-05 -6.99184e-05 -1.23711e-22)
(0.000299554 0.000275726 1.41177e-22)
(2.52301e-07 5.20627e-07 0)
(-2.28006e-05 -0.000393832 1.7403e-23)
(1.2742e-08 2.56973e-09 0)
(6.65308e-07 3.36245e-06 -9.12049e-23)
(8.61811e-07 3.41554e-06 7.5981e-23)
(0.000114179 3.80237e-07 0)
(-2.04714e-05 -8.69448e-05 4.60876e-22)
(-0.000110365 -0.000377905 2.55668e-23)
(6.04176e-09 9.16747e-10 0)
(-1.11718e-05 5.78402e-05 2.35462e-23)
(2.88149e-08 -2.33823e-08 -1.00443e-23)
(0.000339746 0.00025124 -1.46527e-22)
(-1.48769e-05 1.13229e-05 -2.63871e-22)
(6.06205e-08 1.20617e-07 2.90156e-23)
(-5.04381e-08 2.14529e-07 4.66428e-25)
(0.000370198 -0.000459011 -1.87262e-22)
(1.71745e-07 5.41848e-07 1.16856e-22)
(3.53006e-08 -3.14264e-06 0)
(7.45577e-06 5.7847e-05 2.71052e-23)
(0.000191898 0.000181106 -2.96778e-23)
(-3.07556e-06 -5.33591e-05 1.00342e-24)
(2.89487e-06 4.43923e-05 2.52272e-23)
(-5.07967e-07 3.64706e-09 -8.51835e-24)
(1.85617e-05 0.000391904 0)
(0.000428501 0.000241501 -1.7824e-22)
(8.2319e-05 -3.54283e-05 4.04145e-23)
(0.000280602 0.00029525 -5.09775e-23)
(6.17447e-08 1.82525e-08 1.1289e-22)
(7.31459e-07 7.21445e-05 3.24716e-23)
(0.000537281 -4.66888e-05 -1.57899e-22)
(-0.0002591 -0.000145034 0)
(7.592e-05 -6.54982e-05 -1.35184e-22)
(8.54856e-08 1.50243e-07 -2.43453e-23)
(-7.34279e-05 7.12085e-05 -3.91883e-23)
(-0.000279518 -0.00015315 -1.43948e-22)
(-1.00984e-05 2.89347e-05 -1.0225e-22)
(2.24256e-08 6.67991e-10 0)
(-2.61502e-05 -3.19582e-06 1.29002e-22)
(2.01706e-08 1.13126e-09 -3.8477e-23)
(-4.95304e-05 -0.000250633 1.44888e-24)
(4.46869e-06 -8.7687e-06 4.04291e-23)
(-6.49848e-05 0.00019818 -5.85732e-23)
(-0.000156244 -1.67975e-05 1.13939e-23)
(-3.97338e-05 -6.95664e-05 0)
(1.40788e-08 2.69777e-10 0)
(-0.000231009 3.29669e-05 -1.70467e-23)
(-3.37691e-05 1.86608e-05 0)
(1.74182e-06 2.37963e-06 7.83906e-23)
(2.86085e-05 1.0189e-05 0)
(-0.000151828 -0.00025337 0)
(-3.58393e-05 1.11652e-05 5.4467e-23)
(0.000111561 -1.13593e-05 0)
(-0.000249 7.9629e-07 0)
(-5.03327e-06 5.46659e-06 1.46471e-22)
(-1.44797e-08 6.2738e-08 0)
(1.75177e-06 -2.21165e-07 -1.00306e-22)
(-9.01477e-07 9.14894e-07 -6.48762e-23)
(0.000705496 -0.00151886 0)
(0.000602409 3.59665e-05 -5.80403e-23)
(1.24586e-06 5.15007e-06 9.393e-25)
(-4.14243e-05 0.000282427 -1.81981e-23)
(-8.90963e-08 4.64106e-08 -1.84598e-23)
(-0.000214097 -3.83431e-05 2.57353e-23)
(-1.12623e-06 1.45929e-06 1.59969e-22)
(0.000523743 -3.775e-05 1.28743e-22)
(1.48392e-06 4.28465e-06 4.42825e-23)
(4.70476e-05 0.000417412 -3.36745e-24)
(-4.11619e-06 3.16617e-05 0)
(1.82056e-05 -0.000212692 0)
(0.000134637 7.80937e-05 -3.74961e-23)
(-4.1486e-06 -1.54278e-07 1.4547e-22)
(4.40563e-07 6.01685e-07 7.06977e-26)
(-4.08527e-06 0.000234913 4.1091e-23)
(-6.7099e-05 -7.193e-05 0)
(-1.51982e-08 1.30247e-07 0)
(-7.1008e-05 -0.000118506 2.37767e-23)
(2.82287e-06 2.75323e-06 -7.06559e-23)
(1.07759e-07 3.34799e-10 -2.36433e-25)
(-0.000164549 -1.50229e-05 -7.47893e-23)
(3.6962e-08 1.18428e-07 0)
(0.000314231 -0.000588691 0)
(-5.55531e-05 0.00049509 6.57399e-24)
(0.000636549 3.52318e-05 -2.6906e-23)
(0.000209875 0.000188508 -3.36297e-23)
(5.1466e-05 3.74438e-05 0)
(-0.000188482 4.42008e-06 -5.74853e-23)
(-0.00012117 -9.65122e-05 2.63985e-23)
(1.5822e-07 -1.28691e-07 -6.31393e-24)
(-0.000294961 -0.000125077 1.47389e-22)
(-5.64448e-08 5.19246e-07 1.24464e-22)
(-5.09774e-05 -3.94021e-05 6.66914e-23)
(-1.13483e-07 -1.57804e-08 2.19606e-24)
(0.000220379 -0.000390764 1.80497e-22)
(-1.84859e-08 -2.38536e-06 -9.73707e-24)
(-7.0928e-07 -1.79595e-06 -6.3519e-23)
(-0.000260237 1.50903e-06 -3.78445e-23)
(-0.000149663 -4.43408e-06 0)
(-7.20124e-05 -1.99648e-07 0)
(-5.56263e-08 1.98742e-07 -2.10402e-22)
(0.000493926 0.000226669 1.02508e-22)
(2.67953e-07 1.07406e-07 -6.03833e-24)
(6.12122e-08 7.60266e-08 -1.46662e-22)
(-2.04582e-06 -5.83174e-07 4.07436e-24)
(-1.96164e-07 5.8052e-08 -1.13373e-22)
(-4.38615e-05 -4.32936e-05 2.1479e-23)
(-2.02393e-07 6.68797e-08 1.95469e-22)
(1.76147e-05 -1.95925e-05 0)
(3.36521e-08 1.58162e-09 7.73988e-23)
(0.000150916 0.000176111 0)
(-4.71023e-06 -5.22149e-07 1.71603e-22)
(-4.30794e-06 0.000216709 0)
(8.7697e-07 2.02217e-06 0)
(3.00946e-07 5.92971e-07 -1.43142e-24)
(-5.97686e-08 -4.5089e-07 1.16566e-22)
(0.000368021 8.09451e-05 9.76106e-23)
(-3.99106e-06 2.72309e-06 -3.70678e-23)
(-1.05167e-06 1.31557e-06 3.28517e-22)
(4.21462e-08 6.45165e-07 1.12396e-24)
(-7.76946e-08 4.5513e-07 -1.19317e-22)
(-2.40785e-06 -4.79257e-07 5.91524e-23)
(-0.000241784 -0.000627649 -5.81003e-24)
(-1.75386e-05 2.04193e-05 0)
(-0.000872389 0.000902842 1.06698e-23)
(-0.000259882 -0.000435966 -1.78604e-23)
(-1.32112e-05 -4.8481e-05 7.0364e-24)
(2.6338e-07 1.76218e-07 8.00573e-24)
(3.73144e-07 7.94498e-08 0)
(-8.42562e-05 -0.000711076 8.93981e-24)
(-0.000200474 8.97613e-06 0)
(-3.59371e-05 2.59257e-05 0)
(-0.000167577 1.75251e-05 -6.66507e-24)
(-1.94032e-06 -3.43179e-07 -2.10744e-24)
(0.000137495 -0.000171948 1.15257e-22)
(0.000191194 -0.000380986 -1.84595e-22)
(1.01031e-07 -6.68199e-08 -1.90404e-23)
(-8.25888e-05 -5.6343e-05 0)
(2.07711e-06 2.27286e-06 -1.17081e-23)
(-2.4623e-07 2.35234e-06 -1.3588e-23)
(1.89353e-08 5.27257e-07 2.82916e-23)
(2.08044e-08 -3.19826e-09 4.005e-23)
(-6.82535e-08 1.49436e-08 -1.02442e-22)
(2.09063e-08 1.92613e-09 0)
(0.000909874 -0.00120465 0)
(-0.000138626 -7.00525e-05 1.62286e-23)
(-3.84582e-06 3.07321e-06 0)
(1.2661e-05 4.13555e-05 -4.79416e-24)
(-6.76839e-05 -5.8286e-05 0)
(-8.34512e-07 2.26079e-06 -1.39008e-23)
(3.12715e-06 -6.03375e-07 -2.60087e-23)
(2.34742e-06 -3.3934e-06 -7.0259e-24)
(9.30085e-08 1.05731e-07 0)
(0.000803992 -0.00125606 -1.34043e-23)
(-0.00016247 0.00048107 -1.01309e-22)
(8.7669e-05 -4.47987e-05 -1.23746e-22)
(-1.31885e-05 -2.0739e-05 1.51937e-22)
(2.38605e-07 -1.28521e-08 -6.59928e-24)
(7.73315e-09 -2.57942e-09 1.90709e-22)
(-3.7995e-06 -1.43728e-07 0)
(2.90012e-05 4.24394e-05 0)
(0.000205696 0.000107574 0)
(2.03378e-05 6.8067e-07 -1.31657e-25)
(8.26008e-06 3.42921e-06 0)
(-3.31097e-05 -3.40082e-05 -6.55087e-23)
(2.07521e-05 3.00247e-06 -1.03846e-22)
(7.29981e-08 -3.46193e-09 1.333e-24)
(0.00041553 -0.000232056 0)
(5.40289e-06 5.08309e-05 -2.6415e-23)
(1.30558e-05 -0.00020701 0)
(-6.69435e-07 1.8942e-06 1.01771e-22)
(-2.11802e-06 -6.96921e-07 -4.77641e-22)
(0.000453466 8.68176e-05 -5.02148e-23)
(1.57994e-06 2.86175e-06 0)
(2.87128e-08 1.05269e-08 -1.1558e-23)
(-0.000543438 0.000331363 6.06915e-23)
(-0.000612992 0.000733591 1.23969e-22)
(-1.44496e-06 1.54678e-06 -2.26283e-23)
(-3.79696e-05 -5.56894e-05 0)
(2.52567e-06 -1.39346e-06 0)
(2.83559e-08 -4.45076e-10 1.70752e-22)
(0.000312262 -0.000785655 3.65193e-23)
(6.51812e-09 -5.33571e-09 8.4428e-23)
(7.08453e-08 1.0468e-07 0)
(-8.11215e-07 4.17108e-06 0)
(-1.64607e-09 -1.65398e-08 0)
(0.00017468 0.000336112 -1.36067e-23)
(-7.93197e-05 1.07474e-05 2.40431e-23)
(8.91134e-07 5.85805e-07 -1.12863e-22)
(9.69747e-08 6.13207e-07 -1.71658e-22)
(-1.21431e-05 1.28846e-05 1.28264e-22)
(-5.17376e-09 5.47293e-08 1.53471e-22)
(-3.57639e-05 -4.459e-05 0)
(1.25216e-07 -2.68533e-10 0)
(-4.67588e-06 5.04736e-06 0)
(3.27126e-08 2.00345e-09 5.14135e-24)
(4.56978e-07 -1.13345e-07 0)
(3.52359e-08 -2.00728e-07 -7.23701e-24)
(-7.8076e-08 2.32999e-08 -7.99226e-25)
(-7.65026e-08 2.94899e-09 -1.02341e-24)
(-4.3574e-08 1.47554e-08 1.22642e-22)
(0.000491295 -9.39747e-06 2.17326e-22)
(-8.28406e-06 -0.000211418 1.02826e-23)
(-2.90522e-05 6.61661e-05 1.44872e-22)
(0.0001614 -0.000105461 -5.07071e-23)
(-0.000229543 -7.74871e-05 1.03622e-23)
(-0.000230742 2.78157e-05 -2.06645e-23)
(2.41378e-05 4.6896e-06 5.29847e-23)
(1.21417e-07 1.76414e-07 5.05603e-23)
(-9.63273e-05 0.000190657 1.17126e-22)
(-5.27842e-07 2.17663e-07 -1.12891e-22)
(4.78403e-08 -5.14785e-07 6.93945e-23)
(-7.62313e-07 -5.4424e-08 -6.89951e-23)
(-9.69143e-05 8.24073e-05 0)
(7.99792e-07 1.39578e-07 0)
(-1.99942e-06 -7.51702e-07 4.51872e-22)
(0.000872257 -0.00153558 0)
(9.02336e-06 9.16569e-06 -1.38402e-22)
(-1.64454e-07 4.40787e-08 0)
(-8.15304e-08 1.8357e-08 0)
(2.89601e-08 -1.32841e-09 9.53919e-25)
(-0.000115735 0.000192818 -1.41228e-22)
(-6.79454e-06 7.64282e-06 1.67338e-22)
(0.000434715 0.000317035 1.88182e-23)
(0.00014581 -7.29423e-05 0)
(-2.50702e-08 2.36764e-07 0)
(2.80573e-08 9.37257e-08 -1.60618e-22)
(4.87738e-06 2.51209e-05 -1.6384e-22)
(1.20114e-07 -2.45254e-08 6.72661e-24)
(-1.43642e-07 3.95519e-07 -2.50127e-22)
(0.000168457 0.000246157 0)
(-1.65846e-07 1.47239e-08 -1.51218e-22)
(5.6838e-08 2.90012e-07 -3.86637e-26)
(-1.59723e-08 2.12894e-07 -2.06262e-22)
(3.26201e-08 3.87752e-09 -4.41075e-24)
(-1.14367e-06 1.17751e-06 -1.7971e-22)
(-1.66534e-05 1.58066e-05 3.45631e-23)
(-9.62434e-08 -1.48163e-07 -7.50865e-24)
(-2.88428e-09 5.75888e-08 -3.14576e-22)
(1.18099e-06 4.17733e-06 0)
(-8.20059e-07 1.24809e-07 -7.37989e-23)
(-2.80693e-05 1.58213e-05 -7.44228e-23)
(-4.22037e-05 -1.35169e-05 0)
(3.02073e-08 -3.25788e-08 -1.28159e-22)
(-0.000335179 7.29922e-05 0)
(-3.83245e-08 4.60688e-09 5.01948e-23)
(7.70943e-06 -1.62481e-05 5.74845e-23)
(-0.000709747 0.00013825 -3.91552e-23)
(9.35538e-08 -6.51775e-09 3.45972e-23)
(-6.57574e-07 2.52317e-07 1.23263e-22)
(-4.22687e-07 -4.84992e-07 6.68706e-24)
(-0.000389664 6.43428e-05 0)
(0.000352235 -0.000584934 0)
(-0.000240666 1.37017e-05 1.58272e-23)
(-5.26247e-08 -9.62626e-10 2.7143e-24)
(0.000473054 0.000131055 1.8193e-24)
(-5.50146e-08 1.61691e-09 0)
(1.10127e-07 -2.12441e-08 0)
(0.000366033 -0.000307355 -7.08219e-23)
(-3.94534e-05 -1.69561e-05 1.76145e-22)
(2.7202e-08 -4.1004e-08 6.44153e-23)
(-6.36755e-06 9.39569e-06 3.11219e-24)
(2.2875e-07 3.31137e-08 -6.01015e-24)
(9.67855e-07 3.2173e-07 -6.15249e-25)
(6.20091e-08 1.07016e-08 1.07185e-23)
(-0.000264649 1.10449e-06 4.81788e-23)
(-1.66917e-06 1.49408e-06 2.65884e-23)
(-0.000155132 -5.23853e-05 0)
(-1.46274e-06 6.25354e-06 3.9746e-23)
(-5.87384e-08 3.61037e-08 -2.41554e-22)
(-4.52446e-06 1.38099e-06 0)
(-7.62623e-05 0.000720589 0)
(8.32332e-05 -1.17952e-05 -4.35607e-23)
(0.000346433 -0.000347027 2.16884e-22)
(7.12462e-08 -1.33888e-08 0)
(0.000326916 4.97531e-06 -8.40724e-23)
(6.09358e-08 1.12629e-08 -1.29039e-23)
(2.44156e-06 3.51301e-06 0)
(-1.27283e-05 -5.47242e-06 0)
(0.000376213 -8.40859e-05 -3.16956e-23)
(-6.36159e-05 5.03185e-05 0)
(-2.4677e-07 1.10173e-07 -2.15957e-22)
(3.03011e-07 4.43872e-06 -1.0506e-22)
(1.37829e-06 5.4257e-06 1.86553e-22)
(-0.000143303 2.9655e-05 0)
(8.10769e-07 1.82074e-06 0)
(-3.09996e-05 7.44636e-06 0)
(0.000233973 -0.000402747 -1.51641e-23)
(2.57351e-08 3.88156e-10 -5.0731e-23)
(-0.000219654 -0.000228336 -7.32559e-23)
(-1.74305e-06 1.34288e-06 -9.6886e-23)
(-1.01894e-06 1.04481e-06 -1.75578e-22)
(4.95019e-08 -2.53981e-08 2.22738e-22)
(0.000383538 -0.000272737 -7.52647e-23)
(-2.1236e-06 -3.34802e-07 -2.25702e-22)
(1.16491e-05 1.9296e-05 -2.6733e-23)
(3.35257e-07 2.13485e-07 1.94493e-23)
(1.52001e-09 1.82166e-08 0)
(6.51597e-08 8.4366e-08 -1.53398e-22)
(2.14757e-06 -1.10105e-06 0)
(0.000581797 -8.15272e-06 1.9441e-22)
(-1.27849e-07 2.22511e-08 0)
(6.13464e-06 -8.85638e-06 -1.27018e-22)
(-4.70047e-07 1.18357e-06 1.45249e-22)
(1.26645e-06 2.27675e-06 -5.08319e-23)
(3.30342e-08 -1.9225e-09 1.42071e-22)
(3.91657e-08 2.15983e-09 -2.09352e-24)
(-5.06955e-06 -0.000205882 0)
(3.32217e-06 7.82026e-06 1.02571e-22)
(9.02569e-07 4.49735e-07 0)
(-5.71583e-07 1.94633e-07 3.3186e-24)
(2.61059e-06 2.61892e-06 3.47584e-23)
(-0.000172027 -0.000369419 -7.95467e-24)
(-0.000280188 -0.000320561 -7.47079e-24)
(8.94693e-08 2.25659e-08 0)
(-6.93039e-08 -5.54293e-09 -7.80249e-25)
(0.000418043 -0.000226415 1.49887e-22)
(0.000539281 0.000125164 1.09952e-23)
(0.000211885 -6.69121e-05 1.23855e-22)
(-1.09956e-05 -5.16855e-07 -3.78447e-23)
(-8.89994e-06 8.15135e-06 0)
(-2.05365e-05 -2.72638e-05 0)
(-0.000130481 -1.84493e-05 0)
(-0.000123156 -0.000176238 6.56107e-24)
(3.99966e-08 1.93567e-07 0)
(8.62386e-06 2.10699e-05 0)
(2.34745e-07 -3.63034e-08 -4.01349e-26)
(-2.52382e-06 2.69618e-06 0)
(-1.0465e-05 4.7301e-08 0)
(-3.61373e-05 7.28549e-06 0)
(3.59266e-08 8.06369e-10 -1.2275e-22)
(2.4578e-06 1.69867e-06 -1.47871e-22)
(5.51012e-06 7.5195e-06 -6.92809e-23)
(2.71087e-05 5.52527e-05 -3.15091e-23)
(-1.65957e-05 5.30792e-05 1.30213e-23)
(-3.58119e-05 -3.97843e-05 -4.00267e-23)
(-7.07423e-05 -0.000177122 -8.07051e-25)
(2.22496e-07 5.17985e-08 1.22813e-23)
(-6.68697e-08 1.0129e-07 -7.95903e-23)
(8.39294e-08 -2.91828e-08 -4.46161e-26)
(-8.69539e-05 4.94331e-05 8.53172e-23)
(-0.000181381 5.34713e-05 6.43713e-23)
(0.000217358 3.06666e-05 -8.39267e-23)
(-0.000129213 4.36406e-05 -3.61454e-24)
(-1.80764e-06 1.00826e-06 -2.88384e-23)
(4.16891e-07 -2.11345e-07 0)
(0.000250716 0.000347087 -1.33566e-23)
(-8.93442e-06 4.22752e-06 2.1718e-23)
(-7.56082e-05 6.83446e-05 -3.05164e-23)
(2.95302e-06 6.3844e-06 -3.39683e-23)
(4.56634e-07 5.77517e-07 -1.74921e-25)
(9.16973e-07 -2.73262e-06 -6.43166e-23)
(6.7641e-07 6.29726e-07 5.81791e-23)
(1.61084e-05 8.32697e-06 -8.97142e-23)
(-7.88524e-06 -0.000427913 2.38494e-22)
(-6.74156e-06 5.30926e-06 0)
(-4.24684e-06 -2.90297e-05 -4.82245e-23)
(2.76743e-05 -1.24046e-06 -6.85644e-23)
(-0.000682738 0.00059729 0)
(-0.000176324 -0.000213412 0)
(5.78039e-07 2.52232e-07 -6.704e-24)
(1.84363e-06 -1.07008e-06 -6.17318e-23)
(0.000172518 -0.000126541 0)
(-2.19218e-05 5.07314e-06 6.36046e-23)
(7.58441e-09 6.73581e-08 0)
(-2.01537e-06 3.24761e-05 -4.0429e-23)
(-3.35829e-08 -8.38354e-09 6.65092e-24)
(-0.000122824 -8.11605e-05 1.6911e-23)
(0.000519799 0.000103197 -3.25437e-23)
(-1.32628e-07 4.46623e-07 0)
(-4.49492e-05 2.01823e-05 -1.68653e-22)
(-1.78046e-06 5.70638e-06 -4.25468e-23)
(-1.95955e-05 -1.41879e-05 1.72817e-22)
(7.28982e-08 -2.22103e-07 0)
(2.17515e-07 -1.82257e-08 0)
(6.97496e-07 -1.38532e-07 -1.00934e-23)
(0.000402339 7.17815e-05 -5.48914e-23)
(-1.32358e-05 5.55171e-05 -3.67646e-23)
(3.47286e-08 -1.41896e-09 1.24432e-22)
(6.42203e-06 9.62976e-06 6.92428e-23)
(-7.61035e-08 4.73498e-08 -1.29052e-22)
(-0.00020708 1.68814e-05 0)
(-1.3577e-06 7.63259e-06 0)
(3.54774e-07 2.32046e-07 -1.28538e-22)
(-8.30014e-06 7.04452e-06 0)
(2.83722e-08 1.67671e-07 3.06748e-22)
(-0.000548455 0.00110947 -3.1879e-23)
(1.4861e-06 -1.95174e-07 9.28622e-23)
(-6.25059e-06 -8.2016e-06 -3.74695e-24)
(1.21186e-06 4.87262e-06 0)
(0.000322942 -0.000354773 -1.51086e-22)
(1.60439e-05 7.16618e-05 1.04104e-22)
(-0.000240172 -3.74432e-06 0)
(6.26363e-08 1.79664e-08 5.77613e-23)
(7.65051e-08 3.03326e-08 1.3113e-23)
(4.59503e-06 2.8323e-05 1.90563e-22)
(-9.34764e-08 5.10626e-08 1.50001e-22)
(8.13114e-08 3.65294e-08 -1.28418e-23)
(1.00168e-07 -2.59971e-07 0)
(3.57257e-08 2.3313e-10 2.55801e-24)
(-2.56312e-08 1.714e-07 1.64139e-22)
(-8.33995e-05 0.000215808 0)
(-0.000100563 -0.000104961 2.60166e-23)
(-0.000248985 -5.07005e-06 0)
(-2.54417e-05 -5.69632e-06 -1.67384e-22)
(3.62479e-05 4.78294e-05 3.47017e-23)
(-1.05786e-05 7.23795e-06 1.02194e-22)
(3.27368e-05 8.71473e-05 3.48757e-24)
(0.00054866 -2.72189e-05 -1.01628e-22)
(0.000234246 0.000276993 3.84197e-23)
(-5.06283e-06 4.44856e-06 4.92827e-24)
(6.73183e-08 4.85172e-07 0)
(-6.34038e-07 -7.24762e-07 1.18764e-23)
(1.05826e-05 1.09658e-05 -8.49222e-25)
(2.8346e-05 -0.000518201 -2.76254e-22)
(2.94969e-08 4.89939e-10 1.35651e-22)
(3.72017e-08 4.53682e-09 0)
(8.3157e-05 -0.000205714 1.62754e-23)
(-5.16572e-06 4.0959e-05 -2.79602e-23)
(0.000181882 -0.00013842 4.90102e-24)
(9.09219e-09 2.0946e-08 4.00984e-23)
(9.64686e-06 0.000238869 0)
(1.13303e-06 3.86059e-06 -7.793e-23)
(-1.05057e-05 -2.10181e-06 -3.44682e-24)
(0.000496135 4.72487e-05 1.68028e-23)
(-0.000170917 7.56701e-05 -3.63526e-23)
(1.84311e-05 3.84702e-05 -8.54844e-23)
(1.03774e-07 1.19079e-07 0)
(1.56236e-05 3.55805e-05 4.21383e-23)
(-2.87586e-06 -2.21908e-07 -2.62092e-23)
(0.000374165 -3.42514e-07 3.93763e-23)
(-2.17648e-05 -1.28987e-05 2.20592e-22)
(0.000445509 -3.66177e-06 0)
(0.000110523 0.000260125 2.65714e-23)
(4.07766e-05 0.000500311 -2.22886e-23)
(2.65189e-07 -7.02784e-08 1.00031e-23)
(4.42865e-07 4.40892e-07 -1.52541e-24)
(9.27953e-05 -0.000124226 -2.65187e-23)
(1.19405e-05 6.5252e-06 -4.1891e-24)
(-0.000214742 -0.000242742 -4.25161e-23)
(-1.07924e-06 -6.17183e-07 2.10992e-22)
(1.11672e-07 -1.35402e-07 4.22367e-24)
(1.23052e-07 1.99005e-10 7.33561e-24)
(1.262e-06 2.08151e-07 2.09131e-22)
(2.37272e-08 1.85045e-07 -8.53318e-23)
(2.25804e-06 7.71045e-07 7.22336e-23)
(3.77655e-05 1.12562e-05 0)
(-8.67415e-07 -2.6014e-07 7.42047e-24)
(8.42776e-08 3.99725e-08 -2.00946e-25)
(-1.0555e-07 -1.39178e-08 5.68602e-25)
(-3.24315e-05 4.13537e-05 -1.25777e-24)
(1.83188e-05 -5.64973e-06 1.08837e-22)
(3.12392e-09 -2.30573e-09 0)
(2.49518e-05 8.8846e-05 0)
(1.9449e-07 -6.40071e-09 1.96481e-23)
(8.80637e-07 3.78654e-06 -8.74178e-23)
(1.74695e-06 1.87109e-05 0)
(0.000272719 0.000261818 -2.41453e-24)
(0.000140487 0.000158401 0)
(-2.17779e-08 1.78303e-07 1.33131e-22)
(2.44421e-06 -9.67764e-07 -4.60788e-24)
(-1.00803e-05 1.70662e-06 -1.54677e-22)
(-4.07139e-05 2.13957e-05 1.64924e-22)
(7.54318e-08 5.47451e-08 0)
(3.22119e-08 9.3016e-09 0)
(5.38356e-05 0.000338149 -1.4306e-23)
(-6.50081e-08 3.77944e-08 3.69383e-22)
(0.000123464 -8.61176e-05 0)
(-1.14654e-05 -2.27916e-05 -2.13899e-22)
(2.82145e-07 9.87766e-08 1.2254e-23)
(2.3264e-08 7.69357e-10 2.17374e-23)
(0.000151027 -6.09143e-05 -6.05225e-23)
(-0.00061229 -0.000330922 -9.84804e-23)
(-6.42918e-08 8.92212e-09 0)
(-1.27e-07 4.08459e-07 -4.40307e-24)
(2.78545e-08 3.41283e-08 -4.02877e-23)
(0.000520508 0.000144689 1.96918e-23)
(-3.78341e-08 -2.3737e-08 -4.37911e-25)
(-0.000150761 -4.84269e-05 -1.4586e-23)
(-2.56562e-09 2.17679e-07 9.10779e-23)
(2.05451e-06 9.32214e-07 -7.41631e-23)
(-1.11936e-07 6.66147e-08 -2.16962e-22)
(-1.50332e-07 4.60796e-07 7.04711e-23)
(-1.16324e-05 -4.86313e-06 0)
(-2.39202e-05 -3.36147e-05 0)
(-0.000711681 0.000676656 2.91811e-23)
(1.84009e-06 -9.77049e-07 4.42795e-24)
(0.000305052 -0.000563348 -2.79942e-25)
(-6.95265e-07 7.74509e-08 -2.45041e-22)
(-2.45838e-07 1.74025e-08 0)
(-4.37059e-05 0.000523599 0)
(-1.91442e-07 -7.0898e-07 0)
(-4.82202e-05 1.58243e-05 -5.49272e-23)
(-1.38751e-06 1.68711e-06 0)
(-4.91003e-06 1.49775e-06 0)
(3.52311e-08 1.45242e-09 0)
(1.02316e-05 2.52227e-06 0)
(1.08203e-07 9.40662e-09 -3.84884e-25)
(3.97803e-09 4.28243e-09 0)
(6.84454e-08 1.98165e-08 0)
(1.82691e-08 3.90457e-10 -3.74621e-23)
(-0.000196609 -0.000163727 1.73315e-23)
(-1.08317e-08 -5.61564e-09 8.65101e-23)
(1.47616e-05 0.000554348 1.40279e-23)
(9.01262e-08 -1.13671e-08 1.64755e-24)
(2.42734e-07 3.75728e-07 -6.19778e-24)
(-0.000684834 0.000626851 0)
(-0.000154452 -0.000177632 0)
(-3.25798e-07 6.28517e-05 0)
(2.63702e-08 3.57224e-08 8.15356e-23)
(2.14488e-06 -2.86232e-06 -4.57717e-23)
(6.68287e-08 3.28771e-08 0)
(0.000307897 -6.39785e-05 -1.15641e-22)
(3.87833e-05 4.40404e-05 -4.78663e-23)
(6.79656e-08 -1.31103e-08 -9.87496e-23)
(7.17101e-06 -1.17223e-05 6.18485e-23)
(1.18005e-07 2.02342e-09 5.98372e-24)
(0.000545163 6.0869e-05 0)
(-0.000184654 -0.000661725 -3.85263e-23)
(-1.56045e-07 2.10887e-08 7.80729e-23)
(7.22451e-09 -2.96295e-09 9.1855e-24)
(-0.000185869 5.02061e-05 1.37351e-23)
(1.17076e-06 3.84561e-07 -1.50698e-22)
(0.000399571 -0.000205777 -3.49678e-23)
(-0.000171095 -5.39705e-05 1.61226e-23)
(1.38233e-08 4.28373e-09 0)
(2.46388e-07 3.34099e-08 -1.2492e-23)
(0.000154788 2.5913e-05 0)
(-5.83859e-05 3.3376e-05 4.60376e-23)
(3.07639e-05 -5.24911e-06 4.56053e-23)
(-5.81065e-06 -7.31255e-06 2.34545e-22)
(0.000489017 -0.000561035 -2.88801e-23)
(4.57272e-08 -9.12898e-09 -9.8941e-23)
(6.18746e-09 -8.78445e-10 -1.65836e-22)
(-0.000242776 -0.000586753 0)
(-2.04715e-07 -8.36955e-07 0)
(7.30884e-09 -4.4153e-10 0)
(4.34195e-05 -0.000445102 -2.42103e-22)
(-0.000376893 0.000159387 0)
(-0.000339715 -0.000108631 -1.44768e-22)
(-2.61671e-06 2.97528e-06 -6.5113e-23)
(-4.62127e-07 1.43245e-07 0)
(4.71153e-07 4.63883e-07 0)
(4.32566e-08 -5.56851e-08 3.55015e-23)
(-2.26207e-08 1.96758e-07 -8.29457e-23)
(1.03314e-06 3.71334e-06 1.06735e-22)
(-2.18279e-05 -4.34754e-05 -9.26026e-23)
(-9.52371e-06 -1.84295e-06 -1.85013e-22)
(-8.90888e-05 0.00100974 1.77454e-24)
(0.000149158 8.0548e-05 1.2843e-22)
(2.10601e-05 8.73628e-06 -6.31957e-25)
(6.06303e-05 0.000206183 2.3846e-24)
(-4.00388e-05 -0.000397723 0)
(-6.96144e-05 -5.30405e-05 -2.92981e-23)
(-9.75155e-07 -1.45661e-06 0)
(-8.51995e-07 5.72706e-07 -2.10716e-24)
(6.60825e-08 9.57828e-08 6.53604e-25)
(-6.08662e-07 -1.99991e-07 1.3972e-22)
(1.51377e-07 1.59277e-07 0)
(1.3978e-06 6.18062e-06 1.21563e-22)
(5.73466e-08 2.55329e-08 -5.73956e-23)
(-2.75581e-06 -2.49021e-05 -2.88092e-23)
(4.58872e-07 -2.93652e-05 0)
(1.09883e-07 -7.51804e-09 -1.66869e-23)
(3.17725e-05 4.85504e-05 9.01418e-23)
(7.72768e-05 -0.000457799 -3.65822e-22)
(4.7061e-08 2.8376e-08 0)
(-7.11165e-05 -6.20012e-05 1.24263e-22)
(-4.19271e-08 2.17333e-08 2.18788e-22)
(0.000176725 0.000272531 0)
(-4.73674e-06 4.1028e-06 -4.69981e-24)
(-9.8702e-06 -3.16859e-05 8.91594e-23)
(3.09721e-08 -1.53791e-09 0)
(-1.04287e-05 1.2427e-05 -2.38013e-22)
(9.69318e-08 -2.04072e-07 -2.02178e-22)
(-4.79358e-05 2.55494e-05 -2.87507e-23)
(4.29314e-08 -1.62531e-07 1.90032e-22)
(-4.64848e-07 -1.94713e-06 -6.63554e-25)
(-0.000219183 5.76688e-06 0)
(6.7212e-05 -0.000131581 -2.18965e-23)
(-2.44569e-05 -1.11503e-06 1.17636e-22)
(3.97507e-05 0.000254457 6.43681e-23)
(6.91398e-08 -9.62203e-09 -3.79578e-24)
(0.000307939 -0.000390175 1.53453e-22)
(4.39211e-08 -3.67929e-08 -5.93508e-23)
(4.22793e-05 0.000505005 2.15998e-23)
(1.9432e-07 2.64874e-07 1.86833e-23)
(0.000388353 5.37446e-05 0)
(-3.63551e-08 2.97541e-08 1.81804e-22)
(1.16558e-07 -3.11397e-09 2.06844e-25)
(-3.96185e-06 -3.4218e-06 4.90665e-23)
(-0.000590752 0.000130858 0)
(-6.09932e-06 1.50537e-05 9.11872e-23)
(5.35746e-08 9.79022e-08 -1.61866e-22)
(-3.16782e-05 9.39666e-05 0)
(3.90266e-06 -1.00599e-05 0)
(-7.63707e-05 2.33135e-05 -4.14944e-23)
(-3.04971e-06 2.4019e-06 0)
(-4.97277e-05 3.33385e-05 0)
(-0.000189907 -0.000207205 0)
(2.63661e-07 -2.66265e-07 0)
(0.000357123 -0.000561676 0)
(-8.5534e-05 -4.84838e-05 2.03277e-23)
(-2.8649e-08 1.17724e-07 -1.2488e-22)
(-3.95999e-07 5.05458e-07 -7.47637e-24)
(-3.4754e-07 1.38678e-08 5.69756e-23)
(6.27479e-05 -0.000455843 2.71289e-22)
(6.65436e-05 -2.69329e-05 8.1009e-23)
(2.16179e-08 -2.52203e-08 1.31575e-23)
(-0.00014057 9.50793e-06 1.81738e-22)
(-3.03383e-05 3.01895e-05 -1.6329e-23)
(-2.23168e-05 -7.76833e-06 0)
(0.000838206 -0.00072628 8.16862e-23)
(-0.000200564 0.00109695 2.1372e-23)
(8.13359e-07 -2.04195e-06 6.54186e-23)
(0.000263741 -0.000102533 1.14312e-22)
(-2.59282e-07 1.60332e-08 0)
(0.000155907 0.000301094 -1.48888e-22)
(-1.2415e-05 -3.51972e-05 -8.13641e-23)
(2.65954e-07 1.96545e-07 -2.53503e-22)
(-7.54008e-05 -8.47412e-05 -1.66777e-23)
(4.51108e-06 -4.149e-06 7.55293e-23)
(-0.000143675 2.11265e-05 -2.14771e-22)
(-9.18174e-06 1.44403e-06 4.27482e-22)
(-3.44874e-07 2.04536e-07 0)
(3.68446e-08 2.58705e-09 0)
(-0.000899577 0.000277679 0)