/*--------------------------------*- C++ -*----------------------------------*\
| =========                 |                                                 |
| \\      /  F ield         | OpenFOAM: The Open Source CFD Toolbox           |
|  \\    /   O peration     | Version:  v2012                                 |
|   \\  /    A nd           | Website:  www.openfoam.com                      |
|    \\/     M anipulation  |                                                 |
\*---------------------------------------------------------------------------*/
FoamFile
{
    version     2.0;
    format      ascii;
    class       volScalarField;
    location    "300";
    object      ddt0(k);
}
// * * * * * * * * * * * * * * * * * * * * * * * * * * * * * * * * * * * * * //

dimensions      [0 2 -3 0 0 0 0];


internalField   nonuniform List<scalar> 
15335
(
-3.53739e-05
-1.85093e-06
1.60039e-06
-2.96816e-13
-9.91164e-10
3.21936e-12
4.55054e-08
-1.74029e-11
3.31907e-11
-1.00811e-10
-2.04863e-10
6.56387e-12
1.93441e-07
-8.07913e-09
-1.16561e-09
2.23453e-11
-1.00532e-06
-2.42981e-08
8.08004e-12
-1.54647e-09
2.32415e-11
6.63362e-06
-8.74554e-10
2.96474e-11
9.1036e-07
-2.21163e-05
6.44981e-08
5.01017e-11
-3.48238e-10
2.43344e-06
3.81183e-11
2.01357e-08
2.53385e-10
3.66109e-09
6.66162e-08
5.3695e-08
-9.32824e-11
2.72986e-08
-9.90336e-09
3.24285e-08
-1.12231e-11
-0.000127093
3.24334e-11
5.78182e-08
-7.64848e-06
2.90537e-11
-1.18701e-09
1.27151e-10
2.12143e-09
-3.88307e-13
2.90633e-11
1.08801e-10
2.21398e-11
-1.82767e-08
-1.88158e-06
-2.45736e-05
-1.70712e-07
-4.3607e-08
3.84157e-08
-6.84401e-07
-2.5035e-06
-3.48411e-10
2.00374e-11
2.40196e-09
-9.67782e-10
-5.45387e-06
9.15661e-06
1.66022e-11
-1.92024e-09
3.74581e-11
6.06227e-09
-9.10187e-10
5.62151e-11
5.18001e-05
-1.61715e-09
-0.000115554
-1.55797e-06
2.7306e-10
1.15777e-11
3.15677e-08
-5.01375e-05
1.76849e-09
1.95148e-09
-3.89957e-08
5.07988e-09
-3.02027e-06
1.77754e-09
2.41446e-08
2.24436e-12
-8.21127e-09
2.3518e-07
-3.88466e-08
8.43348e-05
-0.000113134
-1.50406e-09
-4.16877e-08
4.15391e-11
-5.50869e-06
5.42398e-11
-6.27211e-06
4.54014e-11
2.12864e-09
-3.01378e-07
4.00405e-11
9.24613e-11
4.43752e-11
7.97179e-08
8.30875e-10
9.37197e-09
-1.36363e-08
2.48417e-10
1.86378e-08
6.62411e-07
5.61394e-12
4.97745e-12
1.89404e-11
1.26837e-08
2.7445e-11
-5.8612e-05
-1.36652e-06
1.94893e-09
7.37267e-08
1.9693e-07
9.65338e-12
8.76493e-08
-2.4072e-13
1.33357e-11
1.67218e-05
9.66969e-08
7.12233e-09
-1.15505e-10
6.08592e-08
8.37551e-11
-2.59618e-05
5.04863e-11
0.000115902
5.24676e-10
3.91357e-11
-1.30577e-08
1.18447e-09
-1.00332e-10
4.02076e-05
5.0081e-13
-2.84925e-05
-1.23644e-07
-7.49484e-11
-0.000143191
-1.4353e-07
-1.23364e-10
2.54161e-08
6.98573e-11
3.07781e-09
1.02648e-11
-7.70955e-10
7.31692e-06
2.89046e-10
-1.79349e-08
4.41825e-10
-6.21868e-11
5.69442e-09
2.62791e-11
7.05576e-09
4.53292e-11
3.72292e-08
-6.04715e-08
-3.66839e-13
-5.00684e-11
3.28931e-06
-3.73394e-10
6.2843e-12
-7.93526e-10
1.15147e-10
-1.80347e-10
3.19504e-10
-9.30981e-09
3.61387e-09
-5.03749e-05
-3.7742e-10
-2.67364e-08
-3.6418e-06
-1.38787e-10
-3.78752e-07
1.03585e-11
-1.0245e-09
-1.00679e-09
1.06792e-07
-3.61909e-08
-3.59314e-07
-9.45381e-12
3.26938e-07
1.12821e-10
-5.38313e-06
2.34768e-09
-4.50817e-12
-8.81308e-11
-9.1264e-05
-1.49213e-10
-3.12644e-10
-2.18308e-08
4.53684e-06
-4.18803e-08
-7.84882e-09
-7.25822e-11
2.51354e-07
-7.08321e-06
-4.20435e-09
1.00188e-05
7.02902e-12
2.34466e-08
-2.56879e-05
-1.16967e-06
-5.45135e-09
-9.84366e-12
3.51593e-08
-1.96576e-07
-4.09592e-09
-1.36158e-11
3.16222e-09
-1.51837e-11
2.61164e-06
3.49372e-09
3.73053e-08
2.04829e-05
-3.19726e-08
1.54669e-11
1.68292e-06
-3.67802e-08
-7.65502e-10
3.64663e-08
1.78302e-07
-2.86787e-09
1.13183e-07
7.83038e-06
-1.64205e-09
8.35043e-11
3.20788e-10
-4.13349e-11
-6.84815e-06
-5.52426e-06
-1.60405e-09
3.92338e-08
-2.15541e-11
2.04098e-08
-8.41547e-10
-3.21671e-05
-1.13406e-09
8.32529e-05
-4.81823e-09
-3.3519e-06
-0.000114128
-8.76605e-10
1.30233e-11
7.96844e-07
-7.37844e-09
-2.15127e-11
-1.16934e-06
-1.10035e-09
1.40907e-10
1.6992e-05
-1.43465e-11
-4.958e-05
-2.59131e-05
-6.19128e-06
5.82639e-06
-3.99455e-07
1.30272e-06
7.25442e-06
2.36346e-11
2.00637e-07
-2.01897e-10
-5.0683e-08
1.44025e-11
-5.36098e-05
-6.57647e-11
1.03307e-09
7.1785e-06
-6.97143e-07
-2.16816e-09
-8.27339e-11
-7.36207e-06
2.66704e-11
1.7648e-11
6.6558e-10
-1.17451e-10
-7.4716e-08
-1.1759e-10
4.89582e-09
4.64658e-13
-1.18394e-07
-7.85632e-10
7.56218e-07
-6.30748e-10
-3.14251e-11
1.30595e-10
-6.56619e-06
-1.59906e-09
-7.54057e-10
-7.3412e-11
-1.87296e-10
5.7111e-10
2.00114e-06
-1.49581e-08
0.000161522
-1.16497e-07
-1.37036e-05
1.46248e-11
3.61901e-11
2.68416e-06
2.93492e-06
-3.24254e-08
-6.38679e-07
-4.92062e-10
3.84148e-08
-5.1371e-05
2.61018e-11
-1.59746e-10
-8.07176e-11
-4.79252e-11
-1.89363e-10
2.60488e-12
-2.13115e-11
4.33027e-12
-0.000155995
1.21375e-05
-1.61519e-09
4.47779e-07
-1.51704e-08
-2.29877e-10
8.77265e-10
9.54614e-10
9.42521e-12
-6.97697e-05
-2.10635e-05
-8.40034e-09
1.33593e-09
4.12133e-11
-3.02004e-13
-8.68753e-10
-1.34181e-08
-0.000111072
-5.58436e-10
6.5056e-09
-3.394e-08
-1.22943e-09
2.72277e-10
-0.000138066
-1.48374e-08
-2.39964e-06
-8.5493e-10
-4.53014e-10
-1.41344e-07
-3.96732e-11
3.27634e-12
5.6491e-05
-4.43606e-05
-9.56065e-10
-1.99266e-08
9.34975e-10
9.41314e-12
-4.07172e-05
-3.75938e-12
8.62647e-12
-1.1822e-09
-2.67567e-12
5.86403e-05
3.09186e-09
-8.18992e-11
-1.92094e-10
2.47964e-09
-2.5324e-12
-1.64301e-08
5.07119e-11
-1.67715e-09
1.81157e-12
5.06163e-11
2.79909e-11
2.20091e-11
1.05479e-11
-9.97475e-12
-1.96697e-07
-2.05937e-06
8.73414e-08
1.34549e-07
4.76839e-08
1.93733e-06
-2.11333e-09
-8.67982e-12
1.64968e-05
-3.79847e-11
1.31342e-10
-2.66041e-10
2.12069e-08
7.84439e-11
-3.48464e-10
-3.35682e-05
-4.8633e-09
-7.3059e-11
1.09323e-11
3.30571e-12
2.10607e-05
-9.97158e-10
1.31606e-05
3.02837e-08
-4.33007e-11
1.93462e-11
2.28226e-08
8.21083e-12
-1.81757e-10
-2.5082e-07
-6.68589e-11
-3.08074e-11
-2.96492e-11
1.92822e-11
-7.36474e-10
-1.49898e-08
2.05441e-12
-6.063e-13
-1.07813e-09
2.00389e-10
-1.18302e-10
-2.96303e-09
1.41058e-11
9.7334e-07
-1.02964e-11
5.16736e-09
-1.57215e-06
1.02174e-11
1.77265e-10
-4.10991e-11
1.35152e-06
-5.43187e-05
6.24174e-09
2.04277e-10
1.19517e-05
1.45465e-11
5.88597e-12
-7.6564e-05
-3.07023e-09
1.33847e-11
-2.54679e-10
3.40193e-11
-7.21341e-11
6.05232e-12
6.16214e-06
-9.6835e-10
1.24526e-05
-1.67636e-09
-1.25899e-11
-1.36097e-09
9.73948e-05
7.98779e-10
-8.78401e-05
7.13417e-12
1.65761e-06
8.74824e-12
9.97725e-11
1.13909e-09
-0.000125994
1.2822e-08
-1.23709e-10
4.08772e-10
-1.25963e-09
-7.01104e-08
-5.537e-10
-2.58086e-08
3.19188e-05
5.20435e-11
-2.09497e-06
-9.54124e-10
-6.60431e-10
2.82491e-11
-5.24673e-05
-5.22115e-10
2.59183e-05
-6.64082e-12
-1.26391e-11
1.73053e-11
7.2906e-10
-3.67838e-06
-6.47413e-11
-1.03437e-09
-2.03477e-10
-7.29763e-10
1.63663e-13
7.48656e-12
-1.8636e-06
-2.70929e-09
-1.03297e-10
-1.04912e-10
-6.05527e-11
6.46943e-07
4.82528e-07
1.37622e-11
3.6693e-11
-4.61528e-05
-9.98525e-06
6.1069e-07
-2.1984e-10
-5.29604e-10
-1.00928e-08
-6.30752e-08
-1.06967e-05
1.98487e-11
1.83304e-08
4.05031e-11
-1.42642e-09
-5.38386e-10
-3.38259e-08
6.59196e-12
-6.95364e-10
-3.35006e-09
7.05114e-09
2.84583e-05
-4.64619e-08
2.54632e-06
2.9672e-11
-6.16366e-11
7.80167e-11
7.40252e-08
1.43309e-05
-7.12384e-07
1.78836e-07
-8.69732e-10
4.79444e-11
9.71608e-06
-7.17877e-11
3.59895e-05
-2.32631e-09
-1.56249e-12
-6.62122e-11
-1.25182e-10
1.64298e-08
-4.78347e-05
1.2065e-10
-1.34946e-08
-6.69353e-10
0.000107346
-9.99911e-08
7.15835e-11
7.80901e-10
4.19303e-08
-1.56821e-08
8.55845e-12
-7.42215e-07
-1.28425e-11
1.46784e-05
-1.83962e-05
-2.02116e-10
1.23664e-08
-1.28006e-09
2.52399e-09
7.20599e-11
3.55546e-11
8.67322e-11
-6.39862e-06
-3.83272e-07
5.99431e-12
-3.90058e-09
-1.59854e-11
4.32883e-06
-2.3255e-09
-1.36271e-11
-1.01153e-09
1.59236e-11
7.9082e-05
3.11515e-10
1.85223e-09
-1.16245e-09
-7.18992e-05
-1.20311e-07
8.29591e-06
6.96131e-12
-2.11379e-12
2.55363e-08
7.82671e-11
-9.70857e-13
7.75007e-11
1.39262e-11
-2.6137e-11
1.73305e-05
1.29203e-05
2.96884e-06
2.66817e-09
7.07584e-09
-4.95637e-10
-3.41221e-07
-5.18036e-06
-2.23155e-06
-1.7591e-09
-5.39387e-11
-8.78495e-11
-5.74502e-09
-1.02153e-05
2.50066e-11
5.65437e-12
8.67028e-06
-6.49414e-09
-2.70792e-05
-9.50524e-12
7.44728e-08
-1.07403e-09
1.60563e-10
-4.15172e-06
1.45599e-05
-1.17302e-08
7.12735e-12
-9.56435e-09
7.58051e-10
-4.8584e-05
2.89651e-09
-4.64707e-05
3.78365e-05
4.64663e-08
4.34164e-11
-7.72442e-11
3.92788e-08
1.14657e-08
-7.50687e-06
-2.30753e-10
1.69733e-11
6.36537e-11
-9.20637e-11
1.55089e-11
-3.70212e-11
5.7926e-08
-1.18627e-10
-3.47079e-12
1.18366e-11
-1.68445e-08
1.24769e-09
8.02132e-12
1.50685e-07
3.22438e-11
-1.04547e-09
1.13089e-08
-4.21321e-06
-8.13494e-08
-2.28407e-11
2.72639e-10
-9.22252e-10
1.47034e-08
1.33538e-11
7.47683e-12
1.66073e-06
-1.44604e-11
3.08133e-08
1.58176e-09
3.64751e-11
-1.00227e-13
1.85276e-06
1.6098e-05
-1.98476e-11
-7.63946e-11
1.53804e-12
-1.00468e-05
9.18353e-11
-3.16377e-06
-2.63095e-11
-1.3657e-10
8.37653e-11
-2.25741e-11
9.80175e-10
-6.47121e-09
0.000111968
2.96114e-10
-6.44895e-05
-2.67482e-10
-1.00354e-10
-4.43008e-06
4.56784e-11
-5.38863e-09
-9.6182e-10
-1.40888e-09
6.06494e-12
6.99765e-09
3.60076e-11
-1.27209e-14
8.92434e-12
-1.22022e-11
-2.63634e-08
-1.778e-11
4.27318e-05
2.75518e-10
-7.86238e-12
0.000129596
-5.40965e-06
-3.11911e-08
-9.76614e-13
1.63007e-09
1.11806e-11
-1.45288e-07
-1.15532e-08
6.05591e-12
4.19283e-09
6.81597e-11
-6.69992e-06
-2.46572e-06
-6.9768e-11
1.57481e-12
1.06138e-06
-1.20654e-10
-8.36234e-05
-2.47255e-06
1.2924e-11
4.16379e-11
-3.9202e-07
7.17713e-09
1.41664e-09
1.65074e-09
4.8735e-06
2.3692e-12
-1.6263e-11
1.73142e-06
4.26927e-11
6.06909e-12
-5.25126e-05
-1.86114e-07
1.11591e-06
-1.45342e-09
1.39423e-10
2.40512e-11
2.74307e-11
-4.41075e-11
1.39682e-10
1.77093e-08
-1.6424e-10
6.16485e-06
-3.33099e-06
-3.13849e-09
-9.07426e-05
-4.25193e-05
1.06855e-09
3.66955e-11
-1.80597e-10
1.29842e-11
-1.85454e-10
5.85407e-13
-1.89979e-09
8.21164e-12
-2.29917e-09
-2.2422e-09
3.67891e-12
-1.43852e-06
-4.99742e-05
8.09552e-12
-3.39474e-09
-6.89027e-12
8.24194e-08
-1.73616e-09
-5.24518e-09
1.15913e-12
2.04899e-09
1.95172e-10
9.12327e-09
1.76826e-10
3.63751e-10
3.22339e-06
-1.80157e-08
3.14408e-09
-9.24474e-05
2.8151e-10
-8.44577e-05
2.66905e-11
-5.0111e-06
-2.55075e-12
-4.35472e-06
-4.1907e-12
4.66307e-12
4.28649e-10
3.03647e-07
4.27231e-09
1.99916e-11
4.50582e-08
4.66077e-09
3.04515e-10
-1.45087e-09
9.16441e-09
-3.97684e-07
3.5126e-11
2.67171e-06
1.76182e-08
-2.25287e-11
-1.12676e-10
-1.31002e-10
-5.44333e-05
-2.16773e-08
1.01477e-10
-3.85025e-09
-3.68423e-08
8.24757e-09
4.97985e-05
-3.21556e-06
1.94731e-11
-1.47012e-07
-9.61895e-11
2.40798e-06
1.6602e-09
8.16035e-14
-3.55125e-08
2.08981e-09
2.90292e-08
-1.05555e-09
1.22605e-10
1.10376e-11
-3.65074e-08
-8.91046e-11
2.35633e-10
-2.95969e-10
2.6773e-09
5.79451e-07
-8.94135e-10
1.41019e-07
2.95118e-08
4.00234e-09
-1.24807e-10
2.20258e-07
1.55538e-11
2.21578e-12
-5.00659e-11
-1.82965e-08
8.77619e-11
6.47314e-09
3.2905e-12
-2.39449e-08
1.33356e-10
2.02473e-11
1.67321e-11
-1.16974e-08
1.41572e-05
-9.37932e-10
8.994e-07
8.15448e-08
9.61823e-09
1.27445e-09
6.94179e-06
3.73143e-11
7.00695e-12
3.82881e-11
-5.57958e-12
9.92202e-10
-9.32298e-09
-3.70958e-11
2.19789e-09
7.68845e-12
1.21789e-11
2.95061e-12
1.33225e-11
-7.11914e-05
-5.5868e-09
2.13872e-09
6.25018e-12
5.45232e-12
1.36103e-11
-6.86059e-10
-5.51978e-10
2.20886e-11
1.70441e-11
-5.66313e-05
9.15342e-11
-5.00852e-06
-4.82403e-12
1.04565e-11
-5.16496e-07
1.20473e-11
-4.39334e-07
8.75541e-06
-0.000133822
-2.24422e-05
1.30242e-10
-1.43625e-08
-2.35032e-08
4.42745e-09
4.62076e-10
4.61532e-12
-2.31027e-08
1.23561e-08
-4.56588e-10
-3.27868e-09
6.28917e-14
-5.41115e-06
-5.17153e-09
4.51036e-07
-9.05832e-10
3.54158e-11
-9.64403e-11
-1.78062e-11
3.43928e-08
4.9456e-12
3.16204e-07
-6.94413e-05
5.6425e-12
8.69807e-09
-1.21702e-11
5.85073e-11
7.3147e-11
-9.4376e-10
-9.99103e-06
-8.23249e-11
1.69369e-05
7.34869e-05
3.49188e-12
-1.51044e-05
1.92109e-10
-7.15468e-12
-8.09768e-09
-3.25731e-10
4.7656e-09
-4.14555e-11
-2.57949e-06
-1.77434e-11
-1.91747e-09
5.24803e-11
1.74622e-05
5.97606e-10
-1.65928e-09
-3.83121e-09
1.0199e-08
-1.77087e-11
-1.85621e-08
-3.44914e-09
2.59421e-11
1.4961e-11
2.86311e-10
1.71248e-06
4.05111e-06
-3.68144e-11
1.38156e-05
-3.12376e-06
2.21516e-09
-3.27222e-06
0.000109934
-0.00010597
-1.02432e-08
-2.47281e-05
3.44198e-05
4.24611e-11
1.23389e-11
-8.96842e-10
-5.04439e-12
2.88992e-11
4.25699e-09
-1.09786e-08
-6.14449e-06
4.70533e-11
1.37817e-05
4.67247e-10
3.47981e-08
-8.59227e-06
-6.47207e-10
-9.88448e-11
-2.59354e-07
-3.00561e-10
-5.42534e-10
-1.02765e-05
-5.04447e-10
-2.02195e-10
1.28896e-11
1.67509e-05
4.26357e-11
-1.40561e-05
-2.16024e-11
2.13752e-08
-9.66578e-08
3.64675e-08
-5.69765e-06
-1.74156e-09
-6.81729e-05
1.6596e-09
4.2699e-11
-3.19697e-07
-7.43312e-10
3.98724e-10
4.71406e-11
-6.55602e-10
-1.65416e-05
8.57953e-06
1.08433e-10
-3.27133e-06
-2.98732e-06
4.63833e-11
9.25761e-05
2.58609e-10
2.02022e-10
-4.48315e-05
1.78011e-06
-1.87562e-12
5.59263e-06
-1.23777e-07
2.89593e-07
8.06583e-09
-1.1958e-10
-1.19675e-09
2.14582e-11
0.000237976
-4.30942e-13
1.78272e-08
9.32565e-11
-2.26739e-09
1.57095e-09
3.5428e-11
-4.49285e-06
1.34985e-05
-7.21912e-11
1.09547e-08
6.56844e-10
7.26649e-06
-1.61141e-09
-1.03749e-10
2.48976e-07
-6.24325e-14
1.94635e-11
6.04604e-11
6.4561e-11
9.54031e-11
1.24109e-08
1.62159e-10
1.74289e-10
-1.02495e-09
7.02371e-10
-3.15881e-06
2.74786e-11
8.03498e-12
1.03126e-10
-2.58762e-10
-2.74073e-06
6.33565e-12
1.03821e-11
5.33741e-07
-3.74356e-05
6.22794e-12
1.03404e-06
6.81452e-11
5.69832e-05
1.57674e-08
4.06124e-06
2.28063e-07
-4.27876e-11
0.000319675
1.32986e-11
-4.06837e-08
8.6482e-12
-1.38534e-08
-3.46428e-11
-2.51551e-08
3.32101e-08
9.37554e-11
-6.64061e-06
4.48264e-08
2.42399e-06
4.8856e-08
1.24871e-08
3.89079e-10
-4.34215e-12
2.08079e-07
5.1373e-11
-2.83696e-06
-0.000100095
1.93751e-11
-8.58788e-09
-2.80045e-10
2.71861e-12
-8.0233e-12
1.99289e-09
7.59015e-12
-1.9431e-07
0.000360271
-4.60863e-10
-1.9918e-12
-2.48201e-11
1.74811e-09
-2.4167e-10
2.33394e-12
-4.08828e-05
-3.77182e-09
-2.69122e-05
-4.95892e-06
-3.59339e-08
-2.10291e-08
-1.28865e-10
3.57758e-05
7.01788e-10
-1.89451e-10
8.80682e-06
-3.83374e-07
-3.12838e-10
3.13562e-09
9.80282e-10
4.02262e-10
5.56512e-09
2.4089e-09
-5.42577e-12
-9.51168e-05
-2.97203e-05
7.74098e-09
3.58318e-11
-5.50498e-06
7.61859e-07
-7.81712e-12
-2.23698e-10
-8.71014e-12
-8.11838e-10
1.78304e-10
2.21439e-12
7.72611e-11
-2.91716e-06
-1.11345e-10
-6.25385e-11
6.08452e-09
1.00389e-11
1.3646e-05
4.98502e-12
5.55185e-12
2.20581e-10
-2.25663e-10
-2.32404e-08
8.75306e-10
-4.21399e-12
-1.33482e-10
-1.31544e-07
6.39856e-11
-6.08105e-11
-4.1355e-11
6.25168e-10
0.000158717
-0.000147317
-2.16437e-10
-2.22988e-10
-1.9484e-05
1.07273e-08
1.25073e-11
1.19104e-11
3.72777e-11
4.52611e-12
1.13457e-09
-7.56235e-09
4.2046e-12
1.03233e-10
-1.18597e-10
-3.63054e-06
-1.33194e-08
1.33553e-10
2.89783e-08
3.6696e-05
3.42755e-09
-2.02122e-07
1.25417e-08
-1.25135e-05
-5.10166e-07
9.98109e-07
2.33653e-10
-2.25994e-05
-0.000156704
-1.97988e-07
-7.99091e-06
4.34796e-07
1.72025e-10
7.65479e-07
-4.01047e-10
-1.891e-05
-2.53909e-05
-8.83169e-06
9.04129e-05
6.38668e-11
-5.09017e-05
-7.96652e-11
3.66744e-11
2.00056e-09
-6.05275e-06
1.46105e-08
-1.1708e-07
-1.16961e-11
3.54701e-11
-4.71733e-10
-1.11811e-10
1.10398e-09
5.80432e-10
9.38295e-06
3.89156e-08
-1.4113e-09
-6.61418e-08
-2.64613e-12
3.79383e-09
-1.10363e-12
-4.4953e-10
-1.11611e-10
-1.10001e-10
5.48868e-10
-1.13699e-10
-1.57623e-10
1.75576e-11
4.63902e-11
2.04921e-10
-6.21085e-09
7.90425e-12
3.17003e-09
1.92625e-06
2.18886e-05
-1.28088e-06
-1.20052e-07
-8.49124e-12
-8.18901e-05
-1.12366e-08
-0.000119622
4.7384e-11
5.95299e-11
-7.20487e-12
-1.84738e-06
2.10431e-10
-1.11806e-10
3.55915e-07
5.34786e-07
-1.07739e-05
-3.53008e-05
-4.24842e-06
2.77212e-06
-1.98963e-11
-1.22993e-10
-2.41049e-05
-4.317e-07
1.91327e-11
-1.12445e-11
-7.00629e-11
4.10781e-06
-1.37019e-10
-0.00013272
2.59552e-06
-4.20063e-05
-2.63266e-06
-1.37123e-08
2.80194e-10
1.69468e-06
-1.64512e-05
-9.88977e-06
9.88017e-11
-2.49396e-06
-1.54428e-11
-9.92134e-06
1.49129e-10
2.31153e-11
4.85883e-12
6.62067e-11
-9.42183e-05
2.60306e-11
1.52414e-07
-1.64722e-08
7.61964e-05
3.70843e-13
-1.17151e-09
-8.53583e-10
1.71932e-05
8.01172e-06
-1.2468e-09
6.1808e-08
-7.8689e-05
3.99188e-11
2.86489e-10
-1.67474e-08
-2.21232e-11
7.6789e-09
-7.37717e-08
-6.77534e-11
7.68539e-09
1.58528e-05
9.94591e-12
-5.45299e-11
-3.28103e-06
3.98869e-06
-7.69994e-10
1.13821e-10
2.45869e-10
1.11368e-05
7.72224e-10
5.67893e-07
1.03163e-11
1.51551e-08
2.28476e-10
-9.90914e-06
-1.17939e-05
1.1216e-11
2.25605e-11
6.15012e-12
-2.91097e-07
-8.79901e-10
-3.21634e-10
-1.13352e-09
1.12389e-11
-3.08948e-05
-7.74962e-09
3.55434e-09
6.58546e-12
1.7235e-10
2.8511e-10
5.44063e-08
2.95365e-08
4.80115e-09
1.08404e-06
-9.07526e-05
1.45379e-06
-4.28485e-10
-2.61697e-07
-2.1686e-06
2.86501e-10
6.59012e-09
1.48685e-07
-0.000124089
-1.5989e-11
2.91771e-11
-6.89505e-06
-5.93907e-08
-1.96399e-13
1.77855e-08
-2.15071e-11
4.62739e-08
-9.00083e-06
6.92163e-10
6.64389e-06
3.4737e-05
1.63491e-11
-6.49316e-11
2.70417e-11
1.01041e-11
-1.54084e-11
-1.62016e-11
7.3556e-07
-1.17065e-11
-2.03264e-10
-2.84351e-08
-1.65328e-05
5.27043e-11
1.83163e-06
-1.91034e-11
1.00728e-11
-2.49388e-10
1.20788e-11
-3.21447e-10
-1.15329e-11
3.64564e-10
-2.48987e-06
-3.16625e-09
4.7338e-09
6.30826e-06
0.000121064
4.01446e-08
-2.35493e-11
1.6425e-06
6.99286e-10
-1.60356e-10
-1.23617e-09
3.55488e-05
8.56959e-07
-9.88549e-05
-6.926e-07
-2.27992e-05
-3.53678e-11
2.28397e-06
-2.69312e-09
1.12593e-05
-5.29987e-05
2.21771e-11
8.50579e-09
2.66892e-11
1.06421e-11
-9.42474e-11
2.52573e-10
-0.000100694
-8.21761e-10
3.31015e-11
-2.08867e-11
9.387e-07
8.02097e-12
-3.11112e-05
8.21328e-12
5.4259e-07
-8.4369e-06
-4.40995e-09
2.11079e-11
2.84863e-09
6.21801e-09
-1.02781e-07
3.12379e-07
-1.36253e-10
9.01765e-12
-1.10567e-06
5.72066e-09
1.4738e-06
9.14339e-09
7.70681e-06
-5.00276e-10
-7.25853e-10
-1.15975e-11
3.81315e-10
1.09539e-09
-1.89863e-11
2.0055e-11
-9.33089e-09
-1.82446e-11
1.79162e-12
1.97267e-08
9.86199e-06
-9.61928e-11
7.17035e-12
1.97941e-05
-1.80442e-06
-8.24557e-11
3.4052e-09
-5.60268e-05
2.73181e-11
-1.08606e-09
-6.45834e-05
-3.50536e-10
2.62779e-05
-4.09643e-06
1.47243e-11
-1.39784e-09
6.37384e-07
6.0655e-11
1.03058e-11
4.01688e-08
-3.28928e-08
1.61769e-11
-5.05317e-06
-3.69962e-06
4.83417e-09
5.03363e-12
-9.64616e-10
-2.29521e-06
1.33049e-11
1.48407e-11
2.35845e-11
-7.89184e-10
-3.15384e-05
-1.28694e-05
1.1359e-05
8.48406e-06
7.07532e-06
-9.47013e-12
-1.92062e-11
6.8517e-07
9.18522e-11
-2.15619e-09
7.35091e-09
-1.95737e-10
-2.71059e-11
7.18994e-09
-4.11544e-09
-1.47959e-09
3.18182e-05
-3.00258e-06
-1.07105e-07
-0.000178865
3.77586e-10
-5.64048e-10
2.54573e-07
-1.02577e-05
1.00922e-06
8.47017e-06
4.52722e-10
-3.08034e-07
5.6241e-06
4.15761e-09
2.87499e-10
2.41577e-06
-1.68434e-09
2.76524e-08
1.26998e-11
2.36439e-09
-1.29029e-09
-1.71256e-08
-5.3634e-11
1.33947e-06
-2.12596e-11
4.39173e-12
-1.58949e-10
9.53462e-06
-2.0395e-05
2.89486e-09
4.69087e-09
-6.85972e-05
-7.48377e-05
4.16293e-11
5.13808e-11
-6.94805e-11
-9.07383e-07
3.65769e-11
2.73123e-11
-1.13527e-10
-1.6911e-10
5.19545e-05
-6.1091e-10
3.91844e-07
-2.415e-11
1.06461e-09
-8.95409e-06
-9.5227e-12
1.70516e-11
2.39222e-09
2.20595e-09
-5.4981e-11
2.19516e-11
-3.81663e-10
4.65219e-09
2.0404e-06
-3.52914e-10
-8.53647e-09
-7.11796e-10
-7.18004e-12
-1.67994e-10
3.39533e-10
1.83768e-06
-7.55317e-11
-3.68382e-05
-6.42418e-10
8.9387e-11
1.6943e-09
-6.70924e-11
-9.60908e-10
1.9812e-10
3.70841e-12
-2.56663e-12
-1.71102e-11
-7.73031e-06
2.38223e-11
-3.00576e-09
1.42717e-11
5.47289e-05
-7.87907e-06
-9.16624e-05
-5.57361e-11
-4.27982e-05
-1.28567e-09
-1.43935e-09
-4.96369e-12
9.66137e-12
2.86605e-05
4.2684e-09
-4.92654e-11
-1.10901e-08
-6.29443e-06
5.80887e-09
2.48884e-05
4.6752e-09
1.52721e-05
3.76488e-05
-6.02671e-11
-9.14882e-12
1.33508e-11
-1.34573e-07
7.68709e-13
1.91122e-11
2.02552e-09
-0.00030965
-3.02658e-05
-8.9272e-08
-3.18717e-10
3.76904e-10
5.69167e-06
-9.54185e-06
9.41494e-05
0.00015642
4.80223e-05
1.0539e-08
2.11337e-05
2.37107e-08
1.25207e-08
-2.25311e-05
-2.84142e-10
-6.27856e-11
1.17283e-08
-0.000103495
-2.98069e-05
-3.80371e-05
7.96152e-12
-3.88555e-09
-5.24583e-12
-9.56067e-08
-9.45768e-06
4.53673e-09
2.6631e-08
3.75263e-08
-1.95784e-08
-1.12898e-09
-1.55569e-11
-4.65579e-05
7.72434e-07
1.10575e-08
-9.12631e-10
-8.38891e-10
-1.19966e-06
-1.82183e-06
1.89026e-10
3.06306e-11
-4.03868e-12
-6.35649e-13
6.11296e-11
1.84409e-06
-2.04314e-08
2.24697e-11
-8.18715e-09
-4.15925e-11
1.62797e-09
-5.16205e-10
8.03148e-12
5.09334e-13
-1.52759e-06
4.96079e-09
2.64048e-09
2.42799e-11
3.91988e-10
9.62771e-12
1.72125e-11
1.10569e-11
-8.96065e-11
3.32965e-12
-1.73202e-12
2.83153e-06
2.21734e-11
-1.05396e-05
-5.68116e-05
1.15742e-08
1.58716e-08
4.52626e-12
-7.18308e-06
1.01058e-05
3.54333e-11
2.68061e-06
1.92028e-10
-5.89009e-05
4.59894e-12
-4.63178e-07
4.1856e-09
8.54012e-12
9.83729e-08
7.14216e-10
-2.60934e-07
6.71506e-12
8.08877e-12
1.66832e-11
5.46872e-09
-3.77137e-10
5.14023e-11
-6.56709e-08
-1.52806e-09
-1.08611e-10
-1.47258e-11
-5.79378e-05
1.2126e-11
1.837e-05
-5.93611e-10
5.2564e-07
8.75705e-09
9.16658e-06
-1.25246e-05
-1.29628e-10
-1.85594e-11
-6.07532e-11
-4.74913e-10
1.2131e-05
4.45434e-06
1.91102e-09
1.95707e-11
0.00018664
-3.07984e-10
-2.29895e-10
3.18505e-11
1.80624e-06
-4.17186e-12
-5.43868e-08
-4.57191e-06
-3.11141e-10
-1.48467e-06
3.24227e-05
1.37812e-09
-3.06263e-08
-3.01627e-08
5.1608e-05
3.2012e-05
1.23596e-08
-5.76946e-05
-2.93367e-10
2.49047e-09
-5.46719e-05
-9.27257e-10
5.78552e-12
-1.12817e-10
-2.6253e-05
-5.03615e-05
-4.01647e-05
1.09241e-08
9.49453e-11
7.86957e-07
-5.03185e-10
-1.40353e-06
9.57461e-12
-7.79791e-05
-1.07255e-07
3.82647e-11
2.85624e-11
-1.13675e-05
-1.24411e-09
1.64252e-06
5.96568e-09
-1.23161e-09
-3.55924e-13
-1.63138e-07
2.1942e-11
-1.05448e-10
7.47841e-06
1.32783e-05
-2.0978e-05
-4.10446e-06
1.74923e-11
-2.98862e-05
2.54627e-12
1.01518e-10
6.26475e-10
2.25435e-06
2.70742e-10
-9.25042e-10
-1.38058e-11
-8.56726e-11
-1.20561e-08
-9.10879e-06
2.18694e-05
-5.5803e-11
1.58662e-07
-1.25885e-06
1.68261e-11
-1.30526e-12
1.22844e-11
3.92238e-09
1.76045e-07
6.11711e-11
-3.59827e-11
-4.79431e-06
-3.68275e-11
6.48208e-06
1.98824e-06
5.07114e-08
5.67857e-11
1.5351e-09
1.47708e-09
5.25321e-06
-1.34254e-08
-8.34062e-11
2.45911e-11
7.61601e-11
6.56924e-09
2.4492e-06
-3.02923e-07
1.23651e-11
2.36122e-05
5.66368e-12
4.53665e-07
9.21699e-06
9.92174e-10
5.71406e-12
-6.26975e-09
-7.86257e-08
-2.33612e-11
3.89048e-09
1.11238e-08
-7.22484e-11
-3.20836e-05
-6.64088e-08
7.96801e-12
2.07337e-07
4.80295e-08
-1.04167e-10
4.32533e-12
-2.10895e-11
1.33591e-12
-7.19977e-09
2.69485e-09
1.79481e-11
3.79777e-12
-1.32079e-09
-4.92537e-10
-1.95123e-10
1.54013e-11
-1.86804e-05
-6.21211e-10
2.27876e-11
2.94297e-05
-7.45644e-07
6.37838e-06
1.23646e-11
1.97357e-14
9.85428e-10
1.98421e-08
-2.4688e-10
-5.84712e-11
-7.64052e-08
-6.14323e-08
-4.33572e-12
1.81168e-11
-8.71814e-12
-5.9949e-10
3.56634e-08
-1.96808e-10
-2.5094e-11
2.77871e-07
-1.68218e-10
9.19317e-11
-6.49084e-07
6.13513e-06
-5.12009e-05
1.14784e-08
6.07899e-12
1.90193e-10
5.23679e-06
-4.0128e-10
-6.23014e-11
-7.10134e-10
-1.20806e-10
5.36218e-06
-1.28464e-08
-4.87252e-12
-4.93535e-12
4.0558e-11
4.86918e-06
7.26839e-12
-3.24876e-12
-0.000122664
-3.01438e-05
1.35382e-05
9.40953e-12
-4.17428e-06
8.54951e-12
-9.2667e-09
7.05553e-12
-1.57111e-06
-1.6588e-11
-1.14616e-09
-1.21129e-09
7.65332e-09
-1.41814e-09
6.56486e-09
-1.29116e-10
6.63798e-06
5.27481e-09
4.41785e-07
-1.02806e-10
-5.99638e-11
-0.000140397
-1.08781e-09
9.97093e-09
1.44926e-11
5.55459e-12
-4.35796e-10
-1.54288e-10
-3.34541e-09
-5.30191e-05
5.06554e-05
3.83154e-11
-2.37044e-10
2.07428e-05
-1.46907e-12
-4.83999e-08
8.95249e-06
-1.69166e-05
2.5654e-05
-4.43412e-05
-6.61965e-06
1.01614e-11
5.62429e-05
1.38076e-09
3.97484e-06
-1.43294e-09
9.26603e-09
-4.71639e-05
-1.40252e-10
4.78082e-11
6.2367e-11
5.52401e-12
2.90435e-05
5.45464e-07
-4.33058e-10
-2.48996e-06
2.75822e-11
2.21494e-11
7.01892e-07
-1.82958e-06
1.23363e-11
-9.08621e-10
1.60041e-11
1.64594e-11
-1.3196e-09
2.8276e-06
6.29384e-07
3.84712e-11
4.98011e-08
3.70657e-11
-5.62803e-12
-9.27624e-09
-9.0644e-10
-1.86e-10
-1.35974e-05
-1.69944e-10
-6.68863e-06
-4.81277e-12
-1.63482e-10
-5.72633e-10
-2.19859e-09
-4.55407e-05
2.05861e-05
-6.34086e-10
1.92388e-11
2.2557e-11
-3.27861e-10
1.20858e-09
-1.26772e-10
-8.58463e-12
-2.16492e-08
-3.60024e-08
3.65884e-07
3.61688e-08
-9.78502e-09
1.26647e-09
-6.90725e-06
-3.24189e-07
1.3544e-10
-5.42357e-12
8.28264e-09
6.85377e-09
1.07538e-05
-1.3323e-09
1.98214e-08
3.83752e-09
-4.36736e-10
7.83882e-09
5.38184e-11
-5.29797e-08
-4.242e-13
1.35058e-09
-8.5342e-10
9.63356e-06
-6.66949e-11
2.94855e-10
-8.12875e-06
3.55584e-08
1.34188e-07
-1.7337e-09
-1.02506e-07
1.99045e-05
-4.64842e-09
1.08848e-11
-2.9415e-06
1.74857e-08
5.65719e-08
1.41932e-05
1.85185e-11
2.10905e-06
-1.39447e-09
2.22446e-10
-6.7409e-09
2.72441e-11
-7.75337e-06
-4.19809e-09
1.60517e-08
3.64054e-06
7.04386e-09
2.95858e-05
3.83327e-08
-0.000167393
6.58597e-07
2.58002e-12
2.3225e-11
9.00354e-12
-6.83955e-05
-3.14165e-06
-7.9616e-06
-9.0705e-06
9.13202e-06
-7.53182e-06
7.49524e-11
-1.17268e-10
-4.04236e-11
5.11123e-06
-2.59097e-05
2.61028e-09
-6.44128e-06
8.87864e-11
-4.88486e-06
-7.90483e-12
-2.32328e-10
3.76881e-06
-2.48682e-08
2.58657e-11
4.77992e-07
-1.28645e-10
-5.20123e-10
2.48307e-10
-5.14739e-10
-2.51642e-08
-3.46499e-06
-4.64142e-12
4.89258e-11
-1.39887e-09
-0.000137089
-8.19647e-06
6.03741e-12
-1.99938e-10
1.26556e-08
-1.47127e-11
3.75006e-09
7.52954e-07
-2.69761e-08
4.69718e-11
-2.84336e-07
-1.12291e-11
-3.17879e-09
9.08225e-09
3.02827e-08
-4.14133e-13
-4.78075e-10
4.93798e-06
-7.94232e-08
-2.47272e-11
-1.90036e-10
3.34605e-12
2.51083e-10
1.94023e-09
1.72222e-12
3.74024e-11
-7.82176e-08
1.13681e-09
5.30691e-09
-1.0943e-10
1.74577e-10
7.44284e-07
-1.5775e-11
9.77598e-05
5.67276e-08
-8.8464e-09
-1.60609e-09
8.52039e-06
4.00175e-06
-6.0072e-10
4.78778e-07
1.12933e-05
8.61449e-08
-5.22319e-06
-1.54713e-11
2.64773e-07
3.29252e-12
-2.87584e-05
-7.12372e-12
-1.96456e-06
2.6763e-11
-5.246e-06
2.95437e-05
5.85679e-09
6.95761e-12
-6.3446e-06
0.000213322
-2.06079e-06
-1.10517e-11
-2.3366e-08
-7.18586e-08
2.70583e-05
2.63414e-09
-1.90189e-07
9.33281e-13
-6.16074e-13
-2.41345e-09
3.41705e-07
-3.94275e-06
1.19626e-08
-8.43739e-10
-6.7982e-05
1.97951e-09
-5.78717e-09
-7.86796e-10
6.76866e-12
1.83792e-05
-1.01486e-10
-3.42269e-12
-8.43531e-11
1.08135e-06
-7.93106e-08
1.2338e-10
1.62696e-05
-2.92851e-09
2.34756e-11
4.25599e-10
5.70076e-09
6.67211e-11
-7.39969e-05
6.53156e-12
3.22665e-07
8.07588e-05
8.39544e-12
-1.08011e-09
-1.75597e-05
1.10792e-08
-2.78976e-11
5.72338e-12
-3.05563e-07
-8.15988e-12
-5.91299e-12
2.85934e-09
5.71635e-06
2.2284e-10
-7.32046e-05
-3.61704e-10
5.10973e-06
2.33777e-11
-1.22589e-06
2.83202e-10
5.27021e-12
-5.06279e-07
-1.10377e-09
5.94223e-11
-8.50858e-06
-4.23099e-06
2.46283e-05
-3.69677e-05
2.04988e-07
-3.96139e-06
-7.92755e-09
1.92612e-09
7.56914e-11
1.17446e-11
-9.82201e-09
5.40727e-07
3.10042e-05
-8.23991e-05
1.25663e-10
-1.17782e-07
-1.03624e-07
3.2002e-11
7.38556e-11
7.30162e-11
2.28765e-09
0.000102806
-1.53157e-10
3.86945e-05
-3.17038e-10
-1.29378e-10
5.07463e-10
-6.15946e-09
-3.15997e-05
-1.38857e-09
-4.06805e-10
1.47648e-05
7.39885e-06
-7.37141e-08
9.81335e-09
-7.18284e-10
1.26649e-11
5.04408e-06
1.14911e-08
2.11054e-07
-1.14834e-11
3.28e-12
-1.85147e-06
4.41081e-12
6.06857e-09
-1.61376e-08
-3.44339e-05
-3.39411e-11
-1.15273e-11
1.66788e-05
6.23446e-11
1.96317e-11
2.82249e-10
-7.10301e-08
1.6689e-06
-0.000150622
5.35709e-09
-4.87365e-09
2.20123e-09
1.01519e-06
-2.23696e-11
4.05212e-05
2.73254e-12
2.43771e-10
8.49698e-11
7.85361e-05
6.57324e-13
1.99398e-11
6.88339e-10
9.58798e-11
2.48021e-09
-1.87889e-09
1.4345e-10
-8.62828e-12
-7.01258e-07
3.22763e-05
1.61122e-11
-1.43774e-11
6.4766e-07
-7.31888e-06
9.28678e-10
-3.86371e-10
-3.90618e-06
-5.26305e-08
1.56651e-10
-6.06335e-05
-5.97607e-09
-8.7574e-11
-2.0447e-11
-6.46522e-12
2.56345e-10
4.96659e-11
6.34845e-12
1.87428e-10
-2.91178e-11
-4.1381e-09
1.29398e-09
-2.09806e-12
4.12953e-10
4.6572e-07
-9.61477e-08
9.29859e-09
9.58034e-11
-0.000102775
1.1524e-13
4.00838e-09
-1.1752e-10
7.86059e-12
5.90068e-09
7.02993e-08
1.34797e-11
-5.04363e-09
1.34698e-11
-1.25941e-07
-5.93164e-11
3.24135e-05
2.04616e-05
-9.84441e-06
5.22179e-06
4.71311e-12
-5.52704e-06
-6.57219e-06
4.01334e-08
6.83503e-09
-1.97905e-05
7.09692e-09
-1.31254e-10
-1.18583e-07
-9.48228e-11
-2.06319e-10
1.72929e-11
4.7442e-09
1.59776e-11
1.85687e-11
1.57585e-05
3.21632e-09
1.54653e-09
5.31261e-10
7.82366e-10
2.40393e-13
-5.02253e-13
8.66395e-12
-2.8348e-11
-9.63445e-11
1.54958e-11
2.17471e-11
-7.5204e-09
-1.01642e-05
-4.66671e-12
4.2779e-06
-7.8279e-06
-2.576e-12
2.03435e-09
2.34658e-07
-5.80658e-05
1.12921e-11
-8.61675e-12
1.97588e-05
1.85642e-11
2.21537e-11
5.74547e-08
5.72318e-11
4.21064e-13
-5.57155e-12
-4.93086e-11
-6.92051e-05
6.33177e-06
8.0991e-11
5.34796e-11
6.86543e-12
-2.52713e-11
-3.55378e-09
2.10079e-11
1.05602e-11
3.40743e-12
2.4268e-05
-1.68385e-05
2.79586e-11
-1.17035e-07
-7.80902e-07
-3.43735e-10
-9.04129e-07
-1.52479e-09
3.34294e-11
1.76078e-11
-6.86904e-12
1.88376e-09
5.49289e-10
-1.3627e-07
1.31057e-12
4.16987e-08
-5.53388e-07
5.12972e-05
-6.9512e-05
9.10866e-12
-1.24374e-09
-8.78787e-10
-8.84625e-08
4.3406e-09
2.14865e-09
2.64253e-09
4.45643e-07
-7.67459e-11
-6.68337e-10
2.6145e-07
-1.79573e-07
1.89698e-09
2.60998e-09
2.0112e-09
2.51494e-05
-5.5386e-05
-8.65289e-06
-2.0051e-11
3.6119e-11
-1.64914e-11
-2.25446e-08
0.000110334
-1.47863e-10
2.30632e-10
-4.9045e-08
2.98114e-06
1.85053e-08
8.71541e-12
7.65414e-07
6.3266e-11
4.65566e-12
3.95905e-09
-8.43455e-10
-1.97137e-05
-9.81555e-12
-8.8165e-10
4.43058e-11
-1.44301e-07
1.13886e-05
1.11022e-08
2.56691e-05
-4.19549e-05
4.3881e-05
-6.5249e-08
-1.54868e-09
5.24182e-09