/*--------------------------------*- C++ -*----------------------------------*\
| =========                 |                                                 |
| \\      /  F ield         | OpenFOAM: The Open Source CFD Toolbox           |
|  \\    /   O peration     | Version:  v2012                                 |
|   \\  /    A nd           | Website:  www.openfoam.com                      |
|    \\/     M anipulation  |                                                 |
\*---------------------------------------------------------------------------*/
FoamFile
{
    version     2.0;
    format      ascii;
    class       volScalarField;
    location    "300";
    object      ddt0(omega);
}
// * * * * * * * * * * * * * * * * * * * * * * * * * * * * * * * * * * * * * //

dimensions      [0 0 -2 0 0 0 0];


internalField   nonuniform List<scalar> 
15335
(
0.000888921
-0.00105094
0.000590946
1.34683e-10
-2.02888e-07
2.55102e-10
1.3346e-06
-1.62988e-09
2.46678e-09
-7.11918e-09
-3.09412e-08
5.35413e-10
1.60281e-05
3.48176e-07
2.78019e-07
2.05061e-09
6.39849e-05
0.000627143
6.50845e-10
-1.4888e-07
2.52031e-09
0.000861887
-4.05221e-07
3.12635e-09
0.000469428
0.000624429
-3.41457e-05
3.75449e-09
7.63741e-07
-0.000950866
3.64466e-09
6.1113e-05
2.57401e-08
-3.57148e-07
7.52641e-05
-0.000146544
-6.20975e-09
1.91342e-06
-7.01796e-07
0.000436178
-6.89038e-10
-0.00607624
2.58491e-09
8.94776e-06
-0.00047849
2.29512e-09
-3.37878e-07
1.38276e-08
2.05594e-06
9.01498e-10
3.20737e-09
7.95741e-09
3.39886e-09
-6.06238e-07
0.00326096
-0.000581517
1.08287e-05
4.99625e-06
3.44869e-06
-0.00124135
-0.000407651
-1.23836e-08
3.28435e-09
1.71223e-07
-1.96104e-07
-0.0012057
-0.000456181
1.21634e-09
2.79627e-07
2.97701e-09
-2.51514e-06
-3.91978e-07
5.57205e-09
-8.58284e-05
-1.20412e-07
-0.00644147
-0.000833518
2.81969e-08
1.07874e-09
-0.000161182
0.00177699
5.65892e-07
5.54531e-07
-1.21935e-05
6.19187e-07
-1.93977e-05
1.16489e-07
-2.47697e-05
1.17436e-10
-4.15133e-07
-0.00298931
6.37591e-05
0.000154088
-0.0136842
-1.6682e-07
-1.1298e-05
3.31836e-09
-0.00125957
3.93274e-09
-0.00115196
3.32768e-09
1.8076e-08
0.000289855
3.07503e-09
9.87755e-09
3.38445e-09
-0.00663542
8.50896e-08
3.91166e-08
-3.25169e-06
2.90352e-08
1.09055e-05
0.000230644
2.22851e-10
-8.46348e-11
9.55276e-10
7.48288e-06
2.4688e-09
-0.0240104
-0.000320567
5.27787e-08
1.68881e-05
4.7654e-05
6.56458e-10
3.60076e-05
-6.79837e-12
9.928e-10
0.0011271
4.98068e-05
-1.35911e-06
-1.05411e-08
2.13654e-05
8.03893e-09
0.000768208
-1.65661e-09
0.000962857
4.53904e-08
3.20739e-09
-1.38801e-07
-1.35861e-07
-1.73111e-08
0.0026677
8.48457e-11
0.00107632
-0.000425369
-1.80655e-08
-0.00449979
-1.3319e-05
-1.20994e-08
9.78579e-05
7.49316e-09
0.00332085
9.69474e-10
-7.76661e-08
0.000565315
2.44578e-08
-2.24068e-05
5.53952e-08
-4.6187e-09
5.86474e-07
2.03462e-09
5.96256e-06
5.06465e-09
2.65089e-06
-2.04915e-05
1.1289e-10
-2.64456e-09
0.00242572
-2.79519e-08
4.99954e-10
-1.29638e-07
8.89262e-09
-2.82266e-08
2.85931e-08
-6.29618e-07
3.26957e-07
0.0019932
-8.7471e-09
-2.41917e-05
-0.00131066
-2.27105e-08
-5.00985e-05
1.12292e-09
-2.17508e-07
-2.09017e-07
-3.95972e-06
-1.55782e-05
-5.71514e-06
-7.46792e-10
-0.0064246
1.24213e-08
-0.00122364
2.2579e-06
-2.56784e-10
-9.79308e-09
0.0132957
-2.30733e-08
1.06798e-07
-5.21028e-06
0.00132584
-8.66292e-06
-3.02629e-07
-6.41984e-09
7.85314e-05
-0.00106211
-8.16242e-07
0.00736273
5.19063e-10
5.48142e-05
0.000614209
-0.00176778
-5.08588e-06
-6.40883e-10
-2.48911e-06
-0.000539489
-1.76155e-07
-1.23146e-09
1.71539e-06
-1.57902e-09
-0.000106356
3.37514e-07
1.31591e-05
0.000150168
-1.36878e-05
1.93641e-09
-0.00144343
5.76937e-07
-6.46991e-08
1.17371e-05
-1.91889e-05
-1.12222e-06
0.000500989
0.000111372
-1.74218e-07
8.06624e-09
1.98244e-08
-1.56556e-09
0.00165098
0.00337577
-1.27939e-07
6.62887e-05
-1.70295e-09
8.62718e-06
-1.29712e-07
0.000596861
-2.51501e-07
0.00147404
-2.59461e-07
0.000611348
-0.00800962
-9.80479e-08
4.32508e-09
-0.001808
-3.14064e-06
-3.09817e-09
0.000710014
-9.15726e-08
1.26658e-08
8.51821e-05
-1.47866e-09
-0.00425257
-0.00456782
0.00284864
0.00306613
-0.00161452
0.00022706
0.000496576
1.80639e-09
2.94263e-05
-2.90729e-08
-6.04075e-06
1.14138e-09
0.00190253
7.29533e-09
9.31797e-08
-8.73653e-05
-0.00349908
-9.5966e-07
-9.02514e-09
-0.000945694
1.91185e-09
1.34004e-09
5.97352e-08
-1.14342e-08
-4.21157e-05
-1.14529e-08
9.36558e-07
1.13055e-10
0.00186207
-5.5214e-08
-0.00161576
-1.09005e-07
-1.64711e-09
1.0223e-08
0.00461094
-2.2408e-07
-1.16834e-07
-4.75544e-09
-2.67688e-08
4.99396e-08
-0.000484812
-5.05635e-06
-0.00029359
3.928e-05
-0.000228907
1.48251e-09
3.00827e-09
-0.00107543
0.000437199
5.34025e-06
-0.00376222
-7.63754e-08
1.35697e-05
0.00176175
2.22005e-09
-1.95434e-06
1.4114e-07
-1.87687e-08
-2.77642e-08
1.68964e-09
-1.48059e-09
7.47337e-10
8.33927e-05
0.000408189
-2.43099e-07
0.000423685
0.000313815
-1.43846e-08
1.71484e-08
-3.81149e-07
1.1094e-09
0.000601492
-0.00913826
-4.28055e-06
1.01777e-06
3.29536e-09
-4.88366e-10
-1.15352e-07
-1.00174e-07
-0.00363355
3.91734e-07
3.38911e-06
-8.29612e-05
5.82603e-08
3.10574e-08
-0.00244824
-4.05095e-06
0.00061969
-1.44082e-07
-7.36934e-08
-4.2547e-05
-4.72405e-08
-2.77373e-11
0.00192678
-0.000844447
-1.50666e-07
-1.26399e-06
7.90759e-08
6.03462e-10
0.000780763
-3.13075e-10
6.07702e-10
-3.07436e-07
-2.27598e-10
0.00326385
-1.88014e-06
-2.00995e-08
-2.93039e-08
2.01841e-06
-2.17572e-10
-1.30479e-06
5.10232e-09
-2.10609e-07
3.61745e-10
4.22502e-09
2.40447e-09
2.37969e-09
9.33467e-10
-7.1484e-10
-5.40819e-05
0.000542686
3.2454e-05
-2.97391e-05
-5.36231e-06
-0.00177998
1.74647e-07
-1.16785e-10
-0.000976591
-2.71286e-09
1.04408e-08
-3.27883e-08
6.14401e-06
6.28702e-09
-6.05765e-08
0.00188653
-3.90007e-07
-5.94288e-09
1.03855e-09
2.09243e-10
-0.000685092
2.79002e-07
0.00348026
2.81781e-05
-2.13721e-09
1.43356e-09
9.64156e-06
8.19365e-10
-2.3704e-08
8.45837e-05
-5.3498e-09
-1.43704e-09
-2.28977e-09
1.34024e-09
-1.1583e-07
-8.63311e-06
4.35839e-10
1.43867e-11
-2.56769e-07
1.88324e-08
-7.48009e-07
7.17693e-06
1.07623e-09
0.00167542
-8.21869e-10
5.39473e-07
-0.00393318
7.84477e-10
1.64453e-08
-1.52149e-09
0.00210909
-0.00395074
1.9994e-07
2.11769e-08
0.0035812
1.49832e-09
5.59567e-10
0.00113312
3.89824e-06
1.04367e-09
5.23958e-07
2.80137e-09
-4.77935e-09
5.80906e-10
-0.000359245
-1.58175e-07
0.000348616
-1.03287e-06
-1.00993e-09
-1.59054e-07
0.00192769
1.36535e-06
0.000818453
5.46335e-10
0.00270255
7.80131e-10
3.15302e-08
6.17978e-07
-0.00501759
-4.50243e-07
-1.21035e-08
5.47855e-08
-3.25632e-07
-2.07516e-05
-9.45213e-08
2.24694e-06
0.000319817
8.65728e-09
-0.000947283
-1.5757e-07
-1.03045e-07
2.11036e-09
0.00148073
-7.78678e-08
0.00482154
-3.63329e-10
-8.07082e-10
1.32387e-09
5.46787e-08
-0.000256048
-5.13418e-09
-1.01666e-07
-1.8053e-08
-5.75987e-08
7.85617e-11
4.68519e-10
0.000579026
-2.19121e-07
-7.47324e-09
-7.65958e-09
1.52789e-08
0.000122536
0.000232275
1.04539e-09
4.08307e-09
0.00144103
0.00106798
-0.00316676
4.7041e-07
7.12994e-07
6.4683e-06
-1.72999e-05
0.000272442
1.42236e-09
9.07876e-06
3.17664e-09
-2.64204e-07
3.74168e-07
-5.70022e-06
4.97738e-10
-5.86758e-08
-2.7174e-07
1.37068e-06
0.00382541
-0.000163494
-2.5816e-05
2.4304e-09
-4.90265e-09
8.7522e-09
-8.07502e-05
-0.000221511
-0.00267746
-0.00417979
-1.42224e-07
3.69702e-09
0.00591737
-3.61465e-08
0.00225601
-1.98716e-07
-1.4635e-10
-4.48098e-09
-2.40315e-08
1.2241e-05
0.00243654
-9.14964e-09
-3.25847e-05
2.46754e-07
-0.000991027
1.63945e-05
8.04006e-09
6.13433e-08
5.71765e-05
-2.12611e-05
6.52374e-10
0.00275159
-9.71763e-10
0.000452185
9.0273e-05
-2.81073e-08
1.34895e-05
-8.09949e-07
-4.05578e-07
5.39244e-09
2.86303e-09
6.34763e-09
0.00505263
0.00226097
4.48842e-10
-3.12132e-07
-1.28006e-09
0.000532216
-1.15372e-06
-6.59162e-10
3.64776e-07
1.16123e-09
0.00399945
2.17404e-08
5.19095e-07
-3.00038e-07
0.00137555
0.00152406
8.51689e-05
5.33582e-10
-1.70171e-10
1.12552e-05
7.52953e-09
-8.11163e-11
5.99874e-09
1.16757e-09
-2.12751e-09
-0.000800548
0.000569155
-0.00136803
2.10751e-06
1.52005e-06
7.7952e-07
-0.00204438
0.000486748
-0.00143031
-1.7641e-07
-3.81199e-09
-2.90479e-09
-4.43464e-07
-0.215182
2.8427e-09
4.4805e-10
0.00139438
-2.08352e-07
-0.0020949
-4.8667e-10
-0.00173224
-2.33463e-07
4.82946e-07
0.00618105
-0.000362204
-6.95712e-07
6.57841e-10
1.74043e-07
6.27371e-08
0.00265522
1.26322e-06
0.00235256
0.000210773
0.0111931
3.3206e-09
-1.39685e-08
-1.24495e-06
5.98285e-06
-0.000607059
-2.79523e-08
1.39502e-09
6.39651e-09
-6.78088e-09
1.09782e-09
-2.50857e-08
1.71868e-05
-8.65972e-09
-3.19029e-10
1.05249e-09
-1.46815e-06
2.39928e-07
-2.23181e-10
-4.20731e-05
2.54832e-09
-2.42822e-07
3.78408e-06
-0.00137493
0.00200263
-1.87368e-09
8.17522e-09
3.2011e-07
1.20517e-05
1.01114e-09
5.78896e-10
0.000567268
-9.70488e-10
1.26742e-05
1.28821e-07
3.50963e-09
3.4584e-10
-0.00371995
-0.00163418
-1.51261e-09
-5.97629e-09
4.82548e-10
0.000807943
1.03853e-08
-0.00239789
-2.10806e-09
-3.96438e-08
8.33058e-09
-2.71447e-09
5.95757e-07
-7.6348e-05
0.000193666
1.23473e-08
-0.040875
-3.25861e-08
-8.87233e-09
0.000114785
3.08526e-09
3.69479e-07
-1.50916e-07
-1.45899e-07
4.52363e-10
5.74672e-06
3.42292e-09
6.10219e-11
6.55202e-10
-1.82684e-09
1.45294e-05
-1.15057e-09
0.000178154
2.88606e-08
1.49857e-09
0.00025401
-0.00246204
-8.60939e-06
-5.79853e-12
1.40098e-07
8.21555e-10
-9.53107e-06
2.33363e-06
4.99759e-10
4.13932e-07
6.59347e-09
0.00473268
-0.00412451
-5.58117e-09
4.11731e-10
-0.00249857
-8.37759e-09
0.000815883
-0.00172665
1.4709e-09
3.19745e-09
-0.000313387
4.04204e-07
5.87024e-07
4.99192e-07
0.00143415
1.76748e-10
-1.35795e-09
-0.00125238
2.79589e-09
7.9771e-10
0.00251912
4.54638e-05
0.000642733
-2.64928e-07
1.24242e-08
3.84327e-09
2.11104e-09
-3.86309e-09
3.24291e-08
1.42186e-06
3.48732e-07
-0.000123883
0.00235255
-2.88122e-08
-0.0103489
0.00187838
-2.11189e-05
1.931e-09
-1.42174e-08
9.25959e-10
-2.15921e-08
1.18932e-10
-1.5996e-07
6.32725e-10
-1.87822e-07
3.17417e-07
5.62484e-10
0.00315451
0.00210071
6.19123e-10
-6.13098e-05
-4.81637e-10
-0.00145529
-2.17362e-07
-3.50036e-05
1.6955e-10
1.89262e-06
1.80584e-08
9.03027e-07
1.62096e-08
4.21803e-09
1.32116e-05
2.48428e-05
1.91263e-06
-0.0120239
2.95761e-08
0.00144773
1.98909e-09
0.0103847
1.0028e-09
0.00548122
-3.57915e-10
4.17396e-10
2.00053e-07
4.24872e-05
2.45046e-06
1.51304e-09
1.27018e-06
-4.38315e-06
5.49009e-06
-2.44191e-07
9.33665e-07
0.000257823
2.74572e-09
0.000183079
0.000198635
-1.80874e-09
-7.75812e-09
-1.31644e-08
0.00261878
8.12983e-07
1.13954e-08
-0.00026579
-1.87035e-06
6.97284e-07
0.00100674
-0.00026809
3.10759e-09
-2.55277e-05
-8.43437e-09
-0.00165271
-7.26081e-09
2.33662e-10
0.000987182
1.63607e-07
-0.000215839
1.95695e-07
1.06284e-08
2.04104e-10
-0.000804944
-7.88147e-09
1.96316e-07
-3.76718e-08
-4.93399e-07
-0.000561264
5.03014e-07
-4.26807e-05
5.34312e-06
4.55012e-07
-9.26848e-09
-0.000995058
1.07717e-09
1.32396e-09
-3.61659e-09
-2.91144e-05
8.47981e-09
1.08109e-06
2.61649e-10
-6.07842e-06
1.03367e-08
2.17333e-09
1.14985e-09
-1.81269e-06
-0.000289743
-1.56148e-07
0.000759228
3.49752e-07
1.54874e-06
-1.21015e-07
0.000531952
2.57119e-09
5.53982e-10
2.81109e-09
-3.09171e-10
8.87321e-08
4.08657e-06
-3.07467e-09
4.97174e-07
6.07765e-10
9.01851e-10
2.32697e-10
1.9201e-09
0.000796715
-3.01835e-07
-5.40773e-07
4.90732e-10
4.18148e-10
1.05797e-09
3.64452e-09
-1.00078e-07
1.63809e-09
1.81231e-09
-0.0017585
7.7865e-09
0.00506776
1.98926e-10
-2.5454e-10
-4.14984e-06
7.19472e-10
-2.69942e-05
0.00770101
-0.0172238
0.000378107
1.06984e-08
2.13025e-06
-2.17705e-05
3.33515e-07
3.33414e-08
-4.55798e-10
0.000115261
9.79941e-08
-4.10526e-08
-2.97009e-07
4.54348e-11
8.00251e-06
-6.00688e-07
-0.000907764
-1.75807e-07
2.92266e-09
-8.60713e-09
-1.45861e-09
3.24278e-06
3.98861e-10
-0.000139325
-0.00268213
1.50254e-10
8.20329e-06
-9.54792e-10
4.87489e-09
2.37513e-08
-1.97499e-07
0.00241973
-5.08692e-09
-0.000971965
0.00348149
2.85594e-10
0.000555283
1.58004e-08
-6.36835e-10
-1.33266e-06
-4.14219e-08
2.32736e-06
-2.8482e-09
0.00332042
-1.96229e-09
-7.26244e-07
4.61564e-09
0.00640778
5.23354e-08
-1.31025e-07
-1.2644e-08
3.88131e-06
-1.17143e-09
-1.64523e-05
-7.78258e-08
2.03212e-09
1.09406e-09
3.2837e-08
-0.000422612
-0.000686876
-2.90547e-09
-0.000560232
0.0034859
5.37406e-07
0.000109663
0.00145697
0.000735011
6.51011e-07
-0.0872226
0.000443616
3.55359e-09
8.89059e-10
5.30124e-07
-3.62725e-10
2.56185e-09
-2.94717e-06
-2.12697e-06
-0.000947511
4.2885e-09
-0.000152112
3.8985e-08
-7.47266e-05
-0.000734331
3.9586e-07
-7.13356e-09
-0.000816204
-4.73086e-08
-4.28539e-08
-0.00476909
-9.62101e-08
-2.38751e-08
9.55726e-10
-0.000699467
3.02571e-09
-0.000195613
-1.6344e-09
5.86487e-06
-1.10374e-05
5.04655e-06
1.11987e-05
-1.54248e-07
0.00195799
2.58802e-08
3.3122e-09
-0.000809952
-5.76602e-08
2.27459e-06
3.56138e-09
-1.94779e-08
-0.018596
-0.00120708
8.58122e-09
-0.000793124
0.000624293
3.79983e-09
0.00195811
2.95911e-08
2.19483e-08
0.00102393
0.0020849
-1.52557e-10
0.000285465
-0.000228268
-0.0015069
6.58368e-07
-9.42009e-09
-2.84739e-07
1.68295e-09
0.00354757
-4.13239e-11
-1.56084e-06
7.68474e-09
-1.7862e-07
1.3265e-07
3.56203e-09
-0.00387223
0.000332647
-5.84886e-09
9.79449e-06
-6.73743e-07
0.000675171
-1.27228e-07
-1.5857e-08
-1.72051e-05
2.24821e-10
1.48362e-09
6.33457e-09
1.0933e-09
7.02974e-09
2.88967e-07
1.75966e-08
1.29721e-07
-8.06954e-08
7.75768e-08
-0.00338557
2.09233e-09
6.01923e-10
8.94831e-09
-3.13216e-08
0.00187591
5.09306e-10
7.43111e-10
0.00111753
-0.0130872
5.09164e-10
-0.00148377
6.98097e-09
-0.000580742
5.86248e-06
-0.000972759
1.55958e-05
-3.58639e-09
0.00120722
1.15534e-09
0.000496441
6.00394e-10
1.93903e-08
-2.83358e-09
-8.72277e-06
1.46876e-06
7.4692e-09
-0.000984041
-2.39728e-06
0.00418033
-0.000171498
5.48985e-08
3.5737e-08
-3.79739e-10
-4.36473e-05
4.6255e-09
-0.0595791
-0.00837035
2.07221e-09
6.65123e-07
-3.32398e-08
2.08528e-10
-6.35788e-10
1.71533e-07
6.72994e-10
-2.17675e-05
0.00360908
2.33743e-08
-1.4968e-10
-3.19562e-09
-2.09035e-07
-2.87635e-08
2.60562e-10
0.00218081
-3.19486e-07
-0.0180059
0.00443028
7.72434e-06
1.27071e-06
-9.90198e-09
0.00266109
8.73725e-08
-1.33665e-08
0.0006511
-0.00349074
-3.93763e-08
3.31995e-07
-1.47313e-06
4.0815e-08
-0.000106207
2.10837e-06
-4.20702e-10
-0.00257021
0.000405434
4.30012e-06
3.19868e-09
0.000227337
0.00398944
-6.89924e-10
-2.64402e-08
-6.97235e-10
7.80683e-08
1.07851e-08
1.27915e-10
8.03856e-09
-0.000811097
-1.02361e-08
-4.87867e-09
-1.34282e-07
7.4774e-10
6.92077e-05
4.02402e-10
4.38121e-10
1.1141e-08
-2.83502e-08
-6.49914e-07
4.85215e-06
3.82296e-10
-1.05275e-08
-0.000317025
7.22073e-09
-4.74873e-09
-3.01271e-09
6.31589e-08
0.00259767
-0.00186964
-1.59164e-08
-1.90919e-08
-0.00312436
7.9671e-06
9.42363e-10
1.1508e-09
2.95046e-09
3.57686e-10
4.51732e-07
-1.25019e-06
3.36646e-10
1.12783e-08
-7.88157e-09
-2.63345e-05
-5.87704e-06
1.44842e-08
4.92389e-06
-0.000480502
3.03102e-07
-0.000125123
8.39427e-06
-0.000683159
0.000591996
0.00119847
2.36347e-08
0.000386521
0.0107884
0.000100047
-0.000917669
-0.00171593
9.16521e-09
0.000973557
-6.70111e-08
0.000144314
0.00083053
0.000184679
0.00434716
6.18719e-09
-0.00319755
-6.9765e-09
2.95776e-09
1.48387e-06
0.00175459
5.75262e-07
-9.46525e-06
-8.1011e-10
2.81304e-09
-7.92527e-08
-1.10915e-08
8.76633e-08
-5.00455e-10
-0.000366672
6.92154e-07
-5.24657e-07
-9.77263e-06
-3.81738e-11
9.44695e-07
-1.25406e-10
6.09463e-07
-1.09389e-08
1.91984e-08
2.90187e-08
-1.06884e-08
-1.46164e-08
2.11643e-09
3.95809e-09
1.47769e-08
5.5179e-06
6.28532e-10
-1.13695e-05
-5.92267e-05
0.00567703
7.2823e-06
-5.92743e-05
-4.91952e-10
0.00163868
1.11147e-05
-0.00157691
5.71393e-09
5.51458e-09
-5.61349e-10
-1.12126e-05
1.66123e-08
-1.05279e-08
0.00148822
-0.00174075
-0.00492796
0.00170767
0.000888612
0.00250581
-1.45769e-09
-1.3558e-08
-0.000415502
0.000279626
1.44028e-09
-8.64096e-10
-5.21293e-09
0.0024313
-9.74701e-09
-0.00284108
-0.0115285
0.00239797
0.00100355
-6.87921e-07
1.52907e-07
0.00723826
-0.000253623
0.000733298
7.78735e-09
0.00415841
-1.20138e-09
-0.000425597
1.36602e-08
1.73278e-09
3.25024e-10
4.60782e-09
0.00117728
2.08106e-09
0.00010007
-1.89073e-05
-0.00322827
-1.87114e-10
-3.05774e-07
1.9427e-07
-1.3365e-05
7.3358e-05
1.36619e-07
7.33352e-05
0.0119234
3.10852e-09
5.86407e-08
-7.9852e-07
-3.20189e-09
-2.49423e-05
3.14743e-06
-5.5387e-09
2.61311e-06
0.0071116
1.8333e-09
-3.85716e-09
0.000345528
-0.000704345
-4.34875e-07
1.18659e-08
2.62391e-08
0.000578131
6.72162e-08
-6.12865e-07
1.0534e-09
6.21374e-06
2.37937e-08
0.00120244
-0.000421609
1.48763e-09
3.20733e-09
4.71489e-10
0.000199303
-1.36692e-07
4.80583e-07
-8.80813e-08
1.01814e-09
0.00111753
2.95909e-08
6.36047e-07
-2.53065e-10
8.68211e-09
3.17219e-08
-0.000734027
-0.000103856
2.96278e-06
-0.000170777
-0.00750265
0.0013333
-7.36507e-08
0.000152226
-0.00441419
4.04015e-08
1.96319e-05
8.54613e-06
-0.00584
-1.18762e-09
2.19971e-09
-0.000952504
-4.00658e-05
1.32224e-11
1.12292e-06
-1.6191e-09
3.07687e-06
-0.0133647
-2.4825e-09
0.00067791
0.0109029
1.25074e-09
-5.82152e-09
2.15683e-09
8.06619e-10
-1.05806e-09
-1.40761e-09
-0.00385602
-7.52956e-10
-2.40606e-08
-5.08812e-06
-0.0010994
-2.72203e-09
-0.000153073
-1.78326e-09
7.9997e-10
-4.98397e-09
9.12923e-10
-7.22002e-09
-1.66308e-09
3.42278e-08
-0.0029461
-0.00382758
5.22923e-06
6.84129e-05
0.00936886
-1.41593e-06
-2.38956e-09
-0.00036258
1.39943e-08
-1.17049e-08
-2.61e-07
0.00194474
0.000257455
0.00171503
-0.000642297
0.000657202
-2.62396e-09
0.000645937
-3.41962e-07
0.00771953
0.00207404
1.61064e-09
5.39965e-06
9.28924e-08
8.20286e-10
-8.83292e-09
3.00664e-08
0.000998577
-5.87427e-08
3.37471e-07
-1.33817e-09
0.00126319
5.70904e-10
0.000347705
6.31774e-10
6.07199e-05
-0.000732333
-1.5646e-05
2.60026e-09
2.53313e-07
5.04586e-06
-0.000401944
-0.000202099
-1.19863e-08
6.86549e-10
-5.31686e-05
4.2347e-07
9.10306e-05
-1.47321e-05
0.000611957
-8.76061e-08
-9.22686e-08
-8.8106e-10
3.21493e-08
6.21617e-07
-1.45605e-09
1.44714e-09
1.06289e-06
-1.3603e-09
1.60198e-10
7.81702e-07
0.00502729
-8.35089e-09
5.78257e-10
0.00779702
-0.00040775
-9.8417e-09
4.98732e-06
-0.000135668
1.9919e-09
-9.69658e-08
0.000259667
-4.79133e-08
0.00412442
0.000604248
1.13123e-09
-2.17307e-07
0.00121134
4.59312e-09
1.99037e-10
-0.000165999
-1.48838e-06
1.24699e-09
-0.000133855
0.00268353
5.5274e-07
-1.56275e-08
2.95397e-06
-0.000527377
1.12641e-09
1.12209e-09
1.74928e-09
-1.26048e-07
0.00112892
0.000821367
0.000475686
0.000597265
0.000102639
-1.56401e-09
-2.6076e-09
-0.000728637
2.37893e-08
-3.89248e-07
1.9839e-06
1.08695e-07
-1.67679e-09
3.08025e-06
5.72258e-07
-3.53676e-07
0.0034024
-0.000131865
1.90485e-05
-0.00113567
3.4541e-08
-8.26946e-08
-0.00063585
-0.000329161
-0.00147552
0.000134562
3.99823e-08
0.000965019
0.000654787
2.33638e-06
3.14827e-08
0.000845152
-2.15891e-07
-0.00018739
7.54782e-10
1.34892e-06
-3.07058e-07
-2.28029e-06
-4.13154e-09
-0.00174115
-3.12297e-09
4.09694e-10
-1.18185e-08
0.00501923
0.0160684
2.61484e-07
2.6258e-06
0.000296993
0.00110152
3.3437e-09
7.6739e-09
5.34337e-08
-0.000358882
3.82343e-09
1.52019e-09
-1.27929e-08
-2.06001e-08
0.00255485
-1.03592e-07
-0.000546767
-2.39395e-09
9.03337e-08
0.000233741
-7.77303e-10
1.87868e-09
1.87285e-06
1.87286e-07
-4.29281e-09
1.57796e-09
-5.08349e-08
2.6021e-06
4.3441e-05
6.94318e-08
-3.57192e-06
-5.97565e-08
-5.4291e-10
-1.39081e-08
2.7629e-08
0.000894588
-2.56574e-08
0.00115014
-1.00766e-07
7.74535e-09
-1.46444e-06
-6.04905e-09
-1.50537e-07
1.38915e-08
3.70971e-10
-1.71254e-10
-1.35084e-09
-0.000870659
1.93856e-09
-2.67998e-07
1.10476e-09
-0.00213425
-4.9566e-05
0.00187244
-4.37673e-09
-0.0033437
-2.66356e-07
-5.54578e-07
-4.26527e-10
7.35599e-10
0.000886243
2.58499e-06
-4.236e-10
-1.07962e-05
-0.00256224
8.62619e-07
-0.000335679
-6.23467e-07
0.0126945
-0.000575921
-5.03006e-09
-7.48737e-10
1.66177e-09
-4.29899e-06
2.97003e-11
1.48503e-09
3.0924e-07
-0.00355322
-0.00407216
-4.45794e-05
-4.22575e-08
2.69047e-07
0.00539651
-0.000239806
-0.00232721
0.00556183
-0.00038039
-8.08227e-07
0.00448955
9.47641e-07
1.80671e-06
-0.0118015
2.11528e-09
-5.0539e-09
2.4614e-06
-0.000471721
-0.00331202
0.00125736
6.16883e-10
-3.72069e-07
-7.20833e-10
0.000119103
-0.000383241
4.166e-07
2.46738e-06
1.32053e-06
-6.68929e-07
-2.10373e-07
-1.13276e-09
0.000509245
0.000107143
2.7141e-06
-1.44282e-07
-1.58295e-07
-0.000588894
-0.00140294
8.12461e-10
7.42514e-10
-3.69394e-10
3.22866e-10
5.63858e-09
0.000935882
-4.77293e-05
1.72037e-09
1.00118e-07
-3.78023e-09
9.74862e-08
-4.19094e-08
6.62692e-10
5.34551e-11
-0.00234419
1.9811e-06
2.24506e-06
1.89746e-09
1.72777e-05
7.86563e-10
1.32764e-09
1.25386e-09
-7.42531e-09
1.59623e-09
-5.18205e-10
0.000775833
1.78874e-09
0.000595552
0.000781362
2.47064e-05
6.03306e-07
2.93291e-10
-0.000262488
0.00130806
3.81572e-09
-0.000965506
1.94868e-08
-0.00182186
3.27581e-10
0.00173707
2.39815e-06
6.54617e-10
-1.50047e-06
6.24227e-08
-0.0015184
5.30779e-10
5.906e-10
1.29553e-09
1.26528e-06
-3.16207e-08
4.23441e-09
6.34673e-06
-2.43796e-07
-7.10619e-09
-1.38916e-09
-0.0010873
8.80437e-10
-0.000800497
-9.95297e-08
7.94666e-05
2.77083e-05
0.00026987
-0.00226279
-1.32947e-08
-1.43221e-09
-4.76638e-09
-3.6462e-08
-0.00119511
0.000600023
1.72857e-07
1.63832e-09
-0.0155715
-3.92797e-08
-2.75529e-08
3.60158e-09
2.38673e-05
-6.18647e-10
-0.000210324
-0.00123151
-3.93347e-08
0.00161408
0.00131205
-7.54892e-06
-2.2467e-05
-0.000101973
0.00191092
0.000313181
2.38962e-06
0.000545473
-3.73661e-08
9.141e-07
-0.00751785
-1.18977e-07
6.90461e-10
-1.06021e-08
-0.22087
0.000313091
-0.000871826
1.44442e-06
7.11252e-09
-0.0013551
-8.60292e-08
0.000539723
7.82653e-10
0.000202286
-0.000285971
3.56611e-09
2.21945e-09
-0.000127375
-2.42186e-07
0.000107449
3.89803e-07
-2.32917e-07
8.53074e-10
0.00181138
1.60424e-09
6.6264e-08
-0.000105892
0.00357551
-0.00107364
0.000481086
1.34583e-09
-2.91157e-05
1.9325e-10
-9.3601e-09
5.52918e-08
0.000157561
9.0228e-08
-8.08914e-07
-1.48178e-09
-7.29964e-09
-1.49917e-05
-0.00151322
-0.000660495
-1.3849e-06
1.61946e-05
0.00319306
1.19916e-09
-1.50873e-10
9.36557e-10
1.35087e-06
-0.000241004
5.1893e-09
-2.61544e-09
0.000499261
-2.45682e-09
0.000318362
0.00104122
-5.82359e-06
4.20724e-09
-4.03084e-07
5.45699e-07
0.00361972
1.83767e-07
-7.90096e-09
2.01398e-09
5.44909e-09
6.21692e-07
-0.00449847
0.00220218
1.0292e-09
0.000567092
4.41668e-10
0.000725963
0.000218842
1.12153e-05
7.02446e-10
-1.76474e-06
0.000482248
-1.59665e-09
2.30695e-07
-2.82517e-05
-5.91668e-09
0.00248846
-0.000176619
6.05682e-10
0.00119254
-1.75248e-05
-9.45639e-09
3.41129e-10
-1.11468e-09
1.43939e-10
-1.16896e-06
-9.28719e-08
1.98179e-09
3.23097e-10
-2.11924e-07
1.68467e-07
-1.76392e-08
1.16826e-09
-0.00147262
-9.71708e-08
1.72335e-09
0.000320524
-0.00160263
-0.00161762
1.09981e-09
1.8316e-11
1.08456e-06
9.37113e-06
-3.52071e-09
-4.57479e-09
1.47053e-06
-2.2766e-05
-2.2412e-10
1.33916e-09
-7.27441e-10
-8.42834e-08
-1.14087e-06
-2.49986e-08
-3.1781e-09
-0.000272158
-1.25202e-08
8.55327e-09
-0.000947867
0.00220011
0.00175307
9.00436e-07
4.46535e-10
1.13414e-07
0.000498187
-3.44133e-08
-4.86821e-09
-1.04498e-07
-5.53985e-09
0.000165523
-5.69068e-08
-5.14808e-10
-1.13966e-09
3.4911e-09
0.000550519
5.75908e-10
7.3894e-10
-0.000173649
0.00167376
-0.00131598
7.44826e-10
-0.0032079
6.47453e-10
2.48994e-06
5.44462e-10
-0.00154876
-8.85988e-10
-2.64027e-07
-3.0404e-07
6.82358e-07
-2.48248e-07
4.96023e-06
-1.38209e-08
-8.95296e-05
4.65884e-07
0.000727727
-9.92214e-09
6.15163e-08
-0.00411622
-2.08138e-07
2.15717e-06
1.09686e-09
4.44748e-10
-5.56446e-08
2.42961e-07
-4.62178e-07
0.00174056
-0.00326642
2.94968e-09
-1.73179e-08
7.1237e-05
-9.97981e-11
-0.000228452
-0.00145112
-0.000370767
0.000138688
-0.00960504
-0.00034952
8.03322e-10
0.0150397
4.6282e-07
0.00876091
-5.40604e-08
2.30526e-05
-0.0167365
-1.54788e-08
4.66598e-09
3.62573e-09
4.37083e-10
0.000258418
5.23306e-05
2.99605e-07
0.00359206
2.86066e-09
1.90906e-09
6.95306e-05
-0.00119734
9.61697e-10
-1.7996e-07
1.24246e-09
1.29186e-09
3.34989e-08
0.000996528
0.00043432
3.09764e-09
5.18345e-05
3.29714e-09
-6.3446e-10
-3.63534e-06
-1.80015e-07
3.44036e-08
0.0327448
-2.67941e-08
0.000143922
-3.55068e-10
-1.3048e-08
-8.6774e-08
2.25254e-06
0.000313793
-0.000579448
2.78841e-07
1.73422e-09
1.83504e-09
-2.58974e-08
-4.12581e-09
-1.31139e-08
-1.18644e-09
-1.65375e-06
-0.000166121
0.00106991
2.93467e-07
2.73333e-07
4.99883e-07
0.000409503
-0.000132572
1.57015e-07
-3.44318e-10
7.65358e-07
8.58624e-06
0.00669367
-2.36747e-07
0.000103146
-5.28626e-07
-7.40119e-08
-4.42549e-06
4.09473e-09
-0.000195595
6.33542e-10
-1.98058e-08
-1.10347e-06
0.000257262
-5.26205e-09
2.60163e-08
0.00230968
-3.09411e-05
0.00120672
-1.9603e-07
0.000117913
-4.49584e-06
-4.91429e-07
8.29003e-10
-4.94466e-05
6.87585e-06
8.96918e-06
-0.000151417
1.95864e-09
-0.00153963
-3.05308e-07
2.58009e-08
-1.07296e-06
2.27817e-09
-0.023395
-3.42176e-07
1.00704e-05
0.000358524
1.81443e-06
0.00394774
2.52383e-05
0.000259841
-0.00395726
2.45774e-10
1.72018e-09
6.24904e-10
0.00218338
0.000757597
0.000442413
0.000545515
-0.00112336
-0.0010925
5.1381e-09
-1.19652e-08
-4.22717e-09
0.00217105
-0.00430654
2.3128e-07
0.000432669
9.3333e-09
-0.00230449
5.49784e-10
-2.79279e-08
0.000724898
-8.67074e-05
3.32549e-09
0.00108491
3.45891e-08
-8.67806e-08
2.34311e-08
-7.6165e-08
-4.22942e-07
-5.3518e-05
-3.47085e-10
1.53481e-09
-1.35067e-05
-9.59368e-05
-0.00316044
4.45809e-10
-2.35568e-08
3.79812e-06
-1.12674e-09
1.30537e-06
5.46453e-05
-1.58558e-06
7.70562e-09
0.000458207
-8.43059e-10
-0.0018428
5.00115e-06
7.87276e-06
-6.74766e-11
-8.03734e-08
0.000651452
0.00016822
-2.16648e-09
-1.37599e-08
2.34104e-10
2.77542e-08
-4.26966e-07
8.22497e-10
3.03078e-09
-6.85488e-05
3.98384e-07
4.60306e-07
-1.04498e-08
1.19053e-08
-0.00142878
-1.18951e-09
0.00447414
6.93102e-06
-6.16524e-07
1.08598e-06
0.000965873
-0.00141733
1.83224e-07
-0.00417678
0.00390094
-0.000114422
0.00134028
-1.06193e-09
8.53929e-05
2.60986e-10
-8.40445e-06
-5.45564e-10
-0.00593611
2.19866e-09
-0.000712132
0.000297964
-7.34044e-06
5.89895e-10
-0.000135178
-0.000492384
0.00301212
-6.34889e-10
1.76863e-06
-7.78892e-06
-0.000147135
1.20091e-06
0.00278796
1.71107e-10
4.62836e-12
-6.03108e-07
-0.000315118
0.000614269
1.03358e-06
-1.31717e-07
6.58643e-05
-8.0689e-07
-4.87557e-07
-1.40522e-07
5.45003e-10
-0.000303352
-1.09648e-08
-2.54042e-10
-7.33384e-09
-0.000300473
-9.03826e-05
2.85174e-08
0.00586271
0.000683735
1.71104e-09
4.07005e-08
3.37562e-07
6.00487e-09
-0.0540294
4.76876e-10
0.000220552
0.0041324
6.79421e-10
-2.33027e-07
-0.000324777
5.34369e-06
-2.1935e-09
4.45266e-10
1.62141e-05
-5.96156e-10
-4.2755e-10
2.85704e-06
0.000321634
2.15506e-08
-0.0411949
-2.79634e-08
0.000460896
-1.76932e-08
0.00211762
4.10118e-08
4.02645e-10
0.00133121
1.89852e-07
1.12668e-08
0.00119157
-0.00052008
-0.000489071
-4.6343e-05
0.000154378
-0.00554584
-6.27949e-07
1.74365e-07
5.48671e-09
8.69076e-10
6.01409e-07
7.30348e-05
0.00288508
0.000198152
1.37251e-08
0.00145809
-2.01261e-06
4.86365e-09
5.58669e-09
6.25093e-09
1.72626e-06
0.00445527
-1.64945e-08
0.00202545
1.41279e-08
-9.74852e-09
3.85347e-08
-1.7335e-06
-0.048442
-3.19206e-07
-5.61786e-08
0.00324373
0.00186787
5.52216e-05
5.52022e-06
-1.05375e-07
9.96495e-10
0.00635234
-9.96029e-06
-5.05657e-05
-8.59669e-10
2.75026e-10
-0.00158633
3.5013e-10
2.53104e-06
8.80165e-06
-0.000148977
-3.09505e-09
-8.41683e-10
0.000452976
6.17048e-09
1.56178e-09
2.26466e-08
-7.77312e-06
-0.000131379
0.00147318
1.60476e-07
5.05187e-07
1.03839e-06
0.00041593
-2.14709e-09
0.00202496
2.48262e-10
2.60206e-08
2.538e-07
-0.00148106
3.11393e-10
1.50925e-09
5.91058e-08
8.85291e-09
1.93325e-06
-6.02622e-07
3.16588e-09
-6.62478e-10
-0.00103419
0.00256367
1.22793e-09
-1.16926e-09
0.00014205
0.000299105
2.47454e-07
-2.56729e-08
0.000425257
0.000102856
1.95636e-08
-0.000344251
-3.86979e-07
-1.05773e-08
-2.53026e-09
-7.24625e-10
1.18513e-08
3.84847e-09
4.71273e-10
4.5984e-07
-2.28907e-09
6.76036e-07
1.15001e-07
-1.30717e-10
3.29105e-08
9.03588e-05
-0.000141573
1.96579e-06
1.40967e-08
-0.0260484
4.37623e-10
3.26984e-07
-1.25586e-08
6.47947e-10
3.23793e-06
2.07872e-05
9.59725e-10
1.91432e-06
1.55135e-09
-1.0438e-05
-4.50863e-09
0.01162
0.000657375
0.00095353
0.00377193
3.75455e-10
-0.000443826
0.000294956
-0.000269865
2.67816e-06
-0.000403108
4.72838e-07
-1.4616e-08
-0.000488389
-8.14045e-09
-2.36863e-08
1.30087e-09
5.3013e-07
1.20077e-09
1.58689e-09
0.000738301
2.21719e-06
1.83129e-06
4.82044e-08
-4.32072e-06
1.13808e-09
-4.14724e-11
9.19309e-10
-1.9025e-09
-9.70846e-09
1.80527e-09
2.46042e-09
-2.08725e-06
0.000958708
-3.16242e-10
0.000442529
0.00106747
-1.84026e-10
2.16535e-07
0.00116
-0.0472527
8.58314e-10
-6.74738e-10
-0.000237537
1.3721e-09
1.64857e-09
1.75533e-05
6.26984e-09
8.92851e-11
-4.4304e-10
-3.7831e-09
0.00180996
0.000208165
7.35072e-09
4.06105e-09
4.97627e-10
-1.7667e-09
-4.88741e-07
2.1958e-09
7.8051e-10
9.74251e-10
-0.000169734
-0.00153382
3.28989e-09
-3.59092e-05
-0.00211713
-4.48258e-08
0.00141316
-2.28974e-07
4.36521e-10
1.32972e-09
-5.35129e-10
3.51016e-07
5.00999e-08
0.000427001
-2.34017e-11
2.76612e-05
-0.00166462
0.00215717
0.00169486
6.8088e-10
-2.72068e-07
-1.19061e-07
-3.62601e-05
3.9598e-07
2.51633e-07
2.3274e-07
0.00104307
-6.58268e-09
-1.07029e-07
9.24385e-05
-0.00117772
4.95879e-07
2.32128e-07
1.83482e-07
-0.000532418
0.00129572
0.00106346
-1.48883e-09
2.83628e-09
-1.27242e-09
-0.00446326
-0.00252163
-3.90781e-08
-1.9674e-07
-0.00030198
0.00399717
1.02575e-06
1.82767e-09
-4.84876e-05
2.36104e-09
3.60168e-10
-7.27131e-06
-1.58232e-07
0.00208079
-7.72478e-10
-1.5906e-07
3.28776e-09
0.000147047
0.00212259
2.75646e-05
-7.07549e-06
0.000519966
0.00466571
-0.00020759
-1.15299e-07
1.59229e-06
5.48831e-10
0.00195433
8.23097e-10
-0.000119145
-9.40039e-07
-0.000469718
-1.2603e-06
0.000608856
7.10032e-06
-1.41209e-06
3.00983e-09
-0.000375967
0.00145478
4.6075e-10
0.000524732
-4.34485e-09
3.24586e-10
-4.49843e-07
-0.00106043
1.36929e-09
-0.00012691
8.39432e-06
-4.79375e-10
0.00196247
8.41154e-06
-7.20993e-06
-1.01637e-07
2.43344e-05
-0.00207763
-4.11874e-07
-2.62458e-05
-0.0062776
-1.26855e-05
1.50078e-06
-0.000969137
0.000166165
-6.6863e-08
-0.085133
-0.0086038
0.00375244