/*--------------------------------*- C++ -*----------------------------------*\
| =========                 |                                                 |
| \\      /  F ield         | OpenFOAM: The Open Source CFD Toolbox           |
|  \\    /   O peration     | Version:  v2012                                 |
|   \\  /    A nd           | Website:  www.openfoam.com                      |
|    \\/     M anipulation  |                                                 |
\*---------------------------------------------------------------------------*/
FoamFile
{
    version     2.0;
    format      ascii;
    class       surfaceScalarField;
    location    "300";
    object      ddtCorrDdt0(phi);
}
// * * * * * * * * * * * * * * * * * * * * * * * * * * * * * * * * * * * * * //

dimensions      [0 3 -2 0 0 0 0];
oriented        oriented;


internalField   nonuniform List<scalar> 
22766
(
3.2762e-05
-1.36102e-05
-1.91518e-05
-3.01236e-05
2.94898e-05
6.27181e-07
2.49691e-05
3.42756e-05
-5.92407e-05
2.28802e-08
-1.20996e-08
-1.11222e-08
7.62132e-07
-4.10037e-07
-3.5295e-07
-6.94621e-09
-5.7339e-09
1.18935e-08
-1.14378e-07
-3.24994e-06
3.3619e-06
-1.36553e-08
1.12973e-08
2.44936e-09
-2.05101e-07
1.68072e-07
3.70417e-08
2.15174e-07
-2.77551e-07
6.17702e-08
1.48937e-07
-6.68864e-08
-8.17102e-08
-1.04831e-08
2.04691e-08
-9.61741e-09
-0.000119351
-1.69594e-05
0.000136311
-3.32923e-07
-7.49573e-06
7.82486e-06
-1.47709e-06
4.65292e-07
1.01272e-06
4.15023e-08
-1.30003e-07
8.84179e-08
2.52681e-05
-2.05922e-05
-4.67798e-06
-1.4121e-05
1.14968e-05
2.62444e-06
5.76251e-09
2.8365e-08
-3.35112e-08
3.69486e-07
5.07515e-07
-8.77599e-07
-7.27854e-08
-1.32152e-07
-5.69458e-06
-9.53012e-07
6.64502e-06
8.95837e-07
-7.95462e-07
-1.00432e-07
-2.37071e-07
1.64298e-07
-3.34571e-05
5.84246e-05
-2.00858e-05
7.9988e-06
1.2091e-05
6.37393e-06
-8.91333e-06
2.53751e-06
-2.13046e-07
1.10833e-07
1.02418e-07
-5.43016e-07
1.83535e-06
-1.29191e-06
-0.000113213
0.000369134
-0.000255921
3.10444e-07
-3.55726e-07
4.54863e-08
8.00476e-06
-3.76176e-06
-4.24326e-06
3.84898e-08
2.45683e-08
-6.30936e-08
-1.38042e-05
-2.61587e-06
1.64201e-05
3.56091e-06
4.44381e-06
9.39165e-06
2.76831e-06
-1.21604e-05
2.0741e-07
7.72064e-09
-8.43404e-06
-1.16864e-05
2.01189e-05
-5.63115e-06
5.2974e-06
-9.89206e-06
-4.22792e-06
3.66875e-09
-5.66695e-08
5.32776e-08
-3.00274e-06
-2.03248e-05
2.33281e-05
1.52138e-07
-1.50072e-07
-1.62869e-09
4.39403e-05
-8.77639e-05
4.38237e-05
-0.000478846
0.000319131
0.000159712
8.37821e-08
-7.37272e-08
-9.84967e-09
-3.25952e-07
9.4949e-07
-6.24098e-07
-5.65935e-09
2.55219e-08
-2.0081e-08
1.01713e-06
-2.49578e-06
1.47937e-06
8.28035e-09
-1.51931e-08
6.84189e-09
-1.06018e-07
-1.30964e-07
-5.2159e-07
3.47147e-07
1.74828e-07
-1.88921e-07
1.14515e-07
7.30756e-08
-1.84581e-05
-4.57683e-06
2.30352e-05
6.26e-06
1.43587e-06
-7.71211e-06
-0.00029339
-0.000185456
1.97868e-05
2.76801e-05
-4.74624e-05
6.77334e-05
3.88019e-05
-0.000106535
-3.57769e-05
2.73439e-05
-8.0177e-06
8.01821e-06
-1.94501e-05
-1.06809e-05
1.79895e-06
-1.19095e-06
-6.08016e-07
-1.17779e-07
-7.11891e-08
4.49516e-06
-2.00317e-06
-2.49222e-06
3.29905e-07
4.31813e-07
-1.24271e-05
2.47152e-05
-1.22881e-05
0.000607482
-0.000288351
-1.52417e-08
7.12024e-08
-5.59332e-08
5.45446e-06
-4.27957e-06
-1.17482e-06
-9.35686e-08
1.65927e-07
-7.21771e-08
-3.5349e-05
1.79654e-06
3.35525e-05
7.21579e-07
1.74178e-07
-7.1584e-08
-1.5608e-08
8.41099e-08
0.000280358
0.000327123
8.55574e-07
-1.80888e-06
9.52367e-07
-0.00012507
-0.000208253
0.000333324
1.68293e-05
8.43442e-06
4.81697e-08
-9.68797e-09
4.39288e-08
2.82926e-09
-4.70588e-08
-2.50672e-06
1.18982e-05
-8.632e-06
-1.20186e-05
2.06517e-05
1.13223e-06
3.04729e-07
-1.43637e-06
1.49839e-06
-3.65122e-07
3.37285e-08
6.55218e-06
-6.58424e-06
-5.84818e-07
5.08533e-06
-4.50128e-06
-7.15867e-06
1.34152e-05
4.78387e-06
-2.89003e-07
6.7561e-06
-3.82404e-07
2.52917e-09
-9.47352e-09
-2.11992e-05
2.74086e-06
1.22274e-05
-4.57821e-06
-7.64817e-06
3.00923e-05
-0.000149443
0.00069031
-0.000409951
8.52653e-06
-8.84155e-06
3.15098e-07
8.02641e-07
-4.33426e-07
-6.23889e-06
6.27334e-06
-1.34164e-07
1.55944e-07
-2.17854e-08
-2.73667e-05
1.49377e-05
2.51283e-08
2.85432e-07
1.80225e-05
-2.96645e-05
1.16421e-05
-1.58878e-07
2.44659e-08
-7.93574e-06
-1.563e-06
9.499e-06
2.62201e-05
-1.23992e-05
-1.38232e-05
-1.34564e-07
1.76076e-07
7.37403e-08
-1.83175e-10
-7.37426e-08
1.18586e-07
3.72724e-08
-3.38008e-06
5.26553e-06
-1.87546e-06
1.41234e-06
-2.40622e-06
9.96638e-07
3.5379e-05
-2.39926e-05
-1.13867e-05
7.3067e-06
-8.47239e-06
1.16573e-06
3.53391e-08
-3.53855e-08
-5.99396e-05
3.57423e-05
2.41975e-05
8.21891e-05
-0.000195402
-2.21796e-08
2.76081e-09
1.93954e-08
-9.32547e-09
-1.2881e-08
6.60608e-08
-7.13183e-09
-5.86556e-08
-1.45504e-06
2.10289e-06
-6.46393e-07
5.13672e-08
-7.4839e-09
4.04005e-05
-1.25931e-05
-2.78076e-05
3.24335e-05
-2.81212e-05
-4.30548e-06
-5.34186e-07
-7.40193e-06
1.94568e-06
2.74032e-06
-4.69222e-06
2.08089e-06
-2.61704e-06
5.39824e-07
3.25558e-08
-2.63426e-08
-3.80674e-06
7.36757e-06
-9.59591e-08
-2.03031e-07
2.99223e-07
-2.54063e-08
3.78354e-08
-1.37496e-08
1.30302e-07
-5.82614e-06
4.11947e-06
-7.92641e-06
1.95234e-05
1.58566e-05
3.65657e-07
-5.82659e-07
2.17362e-07
3.83242e-06
-1.88946e-06
3.04532e-09
4.30147e-08
-4.628e-08
2.73679e-05
5.39433e-06
1.4079e-06
-6.212e-07
-7.86152e-07
0.000352198
0.000338111
-1.61706e-08
-6.6399e-07
6.80183e-07
-1.52531e-07
5.89668e-08
7.26448e-06
4.16481e-08
-1.3452e-05
-3.52094e-07
-1.54416e-07
5.47342e-08
9.92271e-08
-6.40433e-05
-1.03141e-05
7.43559e-05
-2.36825e-08
1.65404e-08
7.52077e-09
8.62574e-07
-2.09465e-05
3.49033e-06
-1.40321e-06
-7.00451e-08
-1.23792e-07
1.93898e-07
0.000128283
-0.000253352
-6.35047e-05
-3.19526e-05
9.54573e-05
-9.10695e-08
4.75846e-08
4.36196e-08
-0.000120038
4.25481e-05
7.749e-05
1.2346e-08
6.13836e-08
-7.477e-06
7.39693e-06
7.65181e-08
-4.40512e-08
1.01477e-08
3.39076e-08
-5.61268e-07
-6.0243e-08
6.20918e-07
1.03044e-05
3.35197e-06
-1.36554e-05
4.17322e-07
1.05086e-07
-5.22297e-07
1.72929e-06
5.9234e-06
-7.64423e-06
-9.68891e-08
1.51073e-06
-7.27838e-08
-1.2273e-07
1.95579e-07
-4.57764e-06
3.99151e-06
-1.18557e-08
2.89974e-08
-1.68298e-08
-4.08308e-05
3.53788e-05
5.44957e-06
-7.27097e-08
3.65207e-11
3.71833e-05
-4.57725e-05
8.58941e-06
7.99662e-06
-7.15014e-05
9.50909e-09
1.33374e-08
3.49052e-07
6.44474e-08
-4.13509e-07
-7.34662e-06
1.08882e-06
8.14481e-09
-1.09689e-06
8.43207e-09
-1.90485e-08
-3.88576e-07
2.73303e-07
1.15959e-07
1.50056e-07
-1.40961e-07
-8.37288e-09
1.59445e-07
-5.45823e-08
-1.05497e-07
-8.11018e-08
4.98445e-07
-1.08308e-05
1.41343e-06
9.41801e-06
2.23154e-06
-1.5423e-06
-6.85635e-07
-1.79349e-05
9.30374e-06
7.09504e-07
3.79909e-07
6.03898e-09
-6.40555e-06
6.40005e-06
-3.09173e-05
1.67011e-05
1.41962e-05
-4.70711e-08
-1.08001e-07
-7.27632e-05
-0.000108509
0.000181272
-3.02534e-09
7.75455e-09
-4.4403e-09
8.43637e-10
-4.11011e-07
-5.2324e-07
5.2411e-07
1.34141e-05
-6.85131e-06
-6.56078e-06
8.28225e-06
0.000102367
-0.00017513
-1.46233e-09
-2.59806e-09
4.49598e-09
-4.06951e-06
6.82941e-07
2.15482e-08
-1.91616e-08
-2.37337e-09
-6.1994e-06
2.25383e-06
-1.23619e-06
-6.73293e-08
7.11437e-08
5.0914e-08
-1.08872e-08
-4.09529e-08
1.22757e-05
2.81248e-05
1.12111e-07
7.70296e-07
1.02864e-06
9.37401e-06
-1.00002e-05
6.29031e-07
-2.45642e-05
1.19562e-05
1.26064e-05
-3.06217e-05
9.05372e-06
2.15679e-05
3.44053e-06
-1.42703e-05
-3.53341e-07
2.88786e-07
6.48641e-08
-7.80876e-05
-4.19498e-05
-9.34415e-06
-4.72752e-05
3.61625e-05
1.11095e-05
-3.04785e-05
8.77318e-05
-5.72534e-05
9.22332e-10
-2.92283e-08
2.7055e-08
3.11217e-06
-6.87389e-06
1.54607e-05
1.19082e-05
4.08376e-06
-2.46738e-05
-4.20063e-05
-3.57637e-06
4.55828e-05
-7.25055e-08
1.15944e-07
-4.33362e-08
-5.60052e-05
1.51757e-05
-2.14576e-05
2.55319e-05
-4.30581e-06
-3.9288e-06
8.23522e-06
-8.58415e-09
-5.03592e-09
3.25131e-06
-2.60531e-06
-6.42785e-07
1.24033e-08
-1.0117e-09
-0.000140906
3.16518e-05
0.000109254
2.08731e-06
1.40268e-07
-1.5999e-05
2.74099e-08
-1.01001e-05
1.00786e-05
-6.2328e-06
-5.80437e-09
2.95608e-09
1.22685e-05
-9.5767e-06
-2.69279e-06
-5.97562e-06
1.83979e-06
4.13741e-06
-6.24337e-08
9.19836e-07
-8.58511e-07
2.65741e-06
-2.7736e-06
6.77022e-06
-7.48471e-06
-1.09063e-05
1.83911e-05
5.15821e-06
8.2574e-06
3.38892e-07
-1.43582e-05
1.40188e-05
9.08185e-07
2.43577e-07
-1.15096e-06
-2.13319e-08
3.25907e-08
-1.15027e-08
-8.16785e-08
4.04863e-07
-3.22922e-07
4.18006e-08
4.72329e-07
-5.13988e-07
-0.000826622
0.000438227
-3.2804e-05
-5.99347e-07
3.34014e-05
-1.8517e-06
1.63289e-06
2.1745e-07
-4.52155e-05
-3.27049e-08
6.0685e-05
-1.60445e-06
-5.90804e-05
3.48704e-07
2.16906e-08
-3.70333e-07
3.14237e-05
-1.59627e-05
5.09305e-08
-7.2322e-07
6.7212e-07
0.000227118
-0.000216124
-1.09925e-05
-1.05466e-05
6.2411e-06
-1.86468e-06
1.65073e-05
-1.4655e-05
1.14714e-06
7.37945e-06
6.58605e-08
-6.27459e-07
4.2251e-07
-1.13435e-07
-3.09454e-07
2.00575e-05
-1.31125e-05
-6.94214e-06
-5.10559e-05
-8.26424e-06
5.93197e-05
9.28111e-08
-8.76214e-08
-5.04642e-09
1.9919e-05
-2.08738e-05
1.26137e-06
-4.06153e-07
5.52414e-08
-5.21238e-08
9.1505e-06
-9.12137e-06
6.448e-08
2.83762e-08
4.36016e-05
-5.01134e-05
6.51637e-06
4.30342e-05
-1.69687e-05
-2.60681e-05
-3.16142e-05
-1.19247e-06
-1.63845e-05
-8.17426e-06
2.27731e-06
1.22039e-06
-7.85083e-06
8.82568e-06
-9.75724e-07
1.1043e-05
-7.32874e-07
1.02777e-07
-3.27311e-08
-6.99075e-08
8.18536e-07
-2.22859e-05
1.36944e-07
-5.07281e-08
-8.59627e-08
5.51986e-06
-8.78676e-06
3.26748e-06
4.17752e-09
-6.66873e-08
6.24666e-08
6.09465e-06
-2.59804e-05
1.98827e-05
6.92045e-07
7.1422e-07
-4.53599e-07
4.92099e-07
-3.99727e-08
1.41771e-05
-1.38373e-05
-1.02925e-05
1.91803e-06
8.37403e-06
-3.75822e-05
3.52898e-06
3.40519e-05
9.04659e-09
4.12141e-08
1.06533e-05
-3.22761e-05
2.16234e-05
-1.53062e-07
1.26394e-08
1.40565e-07
-3.06292e-08
-9.08756e-09
4.00429e-08
-4.65604e-07
5.70847e-07
-1.04842e-07
7.0409e-08
-4.64498e-08
-2.40149e-08
-9.13291e-07
6.43209e-06
3.77951e-08
3.27045e-08
6.42891e-06
-1.34391e-06
1.37186e-08
6.05354e-09
-1.97961e-08
1.94435e-05
-7.49473e-06
5.73859e-07
-6.34289e-07
9.07914e-06
1.09815e-05
4.11575e-07
-5.35126e-08
-3.62454e-07
1.08822e-07
2.40339e-07
2.19419e-08
1.28271e-07
-1.84101e-05
1.67974e-05
1.61227e-06
-8.78187e-07
5.20608e-07
3.57081e-07
3.23232e-07
2.5833e-08
2.92247e-07
-2.27755e-07
7.14005e-08
6.54206e-08
1.76966e-07
-6.42405e-07
-0.000335691
0.000341615
-5.92546e-06
4.58498e-06
-4.41195e-06
-1.73199e-07
0.000437615
-3.72879e-05
-0.000400325
-0.000233324
1.30428e-06
-5.11583e-06
3.81414e-06
-1.42234e-08
-1.38793e-07
-2.00347e-07
-0.000318513
-8.76576e-05
0.000406171
1.37312e-06
-9.22491e-06
-1.60803e-06
-4.36585e-06
-2.50542e-06
-7.78402e-06
-5.36062e-09
-3.10913e-07
3.15789e-07
-8.27373e-05
-1.89381e-05
0.000101674
-1.52462e-05
2.1341e-05
7.39238e-08
9.94139e-09
-4.30593e-05
-1.22822e-06
1.40485e-06
-1.76817e-07
3.06793e-07
8.41301e-07
-1.14801e-06
9.80487e-08
1.24067e-08
-4.03045e-09
-1.30713e-08
2.62721e-08
-1.36548e-08
1.15813e-08
-1.32606e-08
1.7686e-09
0.0007209
-0.000505742
-0.000215158
1.31099e-05
-4.6431e-06
-8.47967e-06
-2.93736e-07
-5.84343e-07
-2.1925e-06
-4.23338e-07
-8.13314e-06
-1.75845e-06
1.06708e-06
-7.60255e-07
1.9641e-06
-8.43326e-07
-1.12139e-06
-2.29211e-06
2.83233e-06
-5.41515e-07
5.33256e-08
-9.63704e-08
4.31688e-08
0.000356039
0.000364861
2.84781e-05
1.45568e-05
-2.76593e-05
-1.43468e-05
2.86798e-06
-6.60442e-07
-2.20755e-06
-3.18192e-08
1.504e-07
-2.35904e-09
3.91754e-09
-1.5459e-09
5.81434e-07
-5.15559e-07
2.6724e-06
-1.01694e-05
1.0637e-05
-9.48983e-06
-4.56538e-06
2.08023e-08
4.54364e-06
-3.99423e-07
1.04691e-06
-6.47003e-07
5.74478e-06
6.02536e-07
-6.34711e-06
-1.13886e-06
-3.42585e-06
6.36127e-09
2.94844e-08
-2.265e-05
1.96475e-05
9.02168e-07
-1.5066e-05
1.32081e-05
-1.2712e-07
-2.61359e-07
2.0384e-07
-3.9299e-07
1.88467e-07
0.000177592
-0.000115843
-6.17475e-05
5.46531e-07
-1.77481e-06
2.79577e-09
-1.20964e-08
4.16867e-05
-0.000105731
8.12227e-05
-0.000428004
0.000346783
1.74757e-07
-4.99708e-07
3.25157e-07
-3.86444e-05
3.03787e-05
1.73071e-06
2.32756e-07
2.96868e-09
1.5278e-08
-1.84191e-08
0.000255171
-0.000386458
-9.34691e-10
-9.10335e-11
1.28202e-09
7.37958e-08
-2.04037e-08
7.73157e-07
-6.77228e-07
-9.48141e-08
3.56681e-09
-4.42767e-09
0.00011786
0.000109259
-4.55169e-05
1.0168e-05
1.88102e-07
-2.58149e-07
-1.21673e-07
-2.2875e-07
-2.26671e-06
2.49291e-08
-2.4505e-08
-1.61177e-09
-8.9497e-06
-2.96947e-05
-7.99987e-08
6.37785e-08
1.6692e-08
1.03376e-06
-1.25044e-07
1.7847e-08
-4.14887e-09
2.95297e-07
-2.03777e-07
-9.13306e-08
-8.26932e-08
1.48973e-07
1.35558e-08
2.34079e-08
-3.69798e-08
-8.02981e-09
-3.60204e-08
-3.30322e-09
1.15456e-08
-8.3243e-09
0.000112973
6.46197e-05
-4.73232e-06
-1.30534e-05
1.77738e-05
6.04219e-06
-1.92306e-06
-9.38222e-05
5.17633e-06
8.8644e-05
6.62185e-06
5.40628e-05
9.76375e-06
4.31532e-06
-1.11295e-07
3.88824e-08
5.96595e-06
3.82878e-06
-9.79116e-06
-1.9014e-07
-7.45563e-08
2.65213e-07
1.56597e-07
-1.34831e-07
-3.85622e-08
-1.30881e-07
1.69307e-07
9.26149e-06
2.7922e-05
-4.96395e-07
3.64037e-07
-1.60154e-07
-0.000470583
-4.39072e-07
-3.45671e-06
3.89591e-06
-1.64742e-08
4.40915e-08
-2.82146e-08
4.7008e-08
-3.67787e-08
4.53517e-09
-1.61376e-08
1.09806e-08
1.55886e-05
-9.62219e-06
-1.18211e-06
-2.94284e-07
0.000338895
-0.000289933
-4.89629e-05
7.36499e-06
2.2871e-05
-3.02342e-05
-6.20126e-09
-8.12985e-08
-3.45398e-08
3.74982e-08
-2.47773e-09
-3.25338e-06
1.83792e-07
3.06986e-06
7.44275e-08
-1.90433e-08
-5.52027e-08
-1.14406e-07
7.16175e-08
4.26231e-08
5.40632e-05
-4.09938e-08
2.45613e-08
1.73001e-07
-1.79141e-07
-3.69946e-08
-3.37615e-08
7.11671e-08
-1.30739e-08
1.61409e-08
2.72564e-07
4.99205e-08
1.79423e-06
2.79033e-06
-8.79838e-08
8.10418e-08
1.82685e-08
6.4023e-09
6.29077e-07
-5.78002e-07
-2.03394e-07
3.08869e-07
-1.70902e-05
9.60558e-06
3.80132e-06
-4.2665e-06
4.66959e-07
2.32439e-08
-1.56039e-09
-2.12232e-08
1.08291e-05
-2.3025e-05
1.22074e-05
-1.29353e-08
9.67243e-09
-3.36888e-06
-1.21145e-06
6.95568e-05
-0.000209381
0.000139825
-8.26181e-09
4.08429e-08
9.88111e-08
-3.01887e-07
2.18967e-07
-3.14736e-07
-1.9444e-05
3.02663e-05
3.94572e-05
4.14991e-06
0.000126728
-5.89947e-05
2.96491e-08
-3.54154e-08
0.000143994
0.000194902
-2.20561e-08
-1.09515e-08
3.30879e-08
5.40684e-08
2.03964e-08
-3.08728e-05
2.21992e-05
8.67462e-06
-5.9567e-07
4.39787e-06
-7.42872e-10
2.41494e-08
1.45823e-06
-4.88646e-08
-1.408e-06
4.01661e-08
1.11995e-07
-3.51724e-07
8.05263e-08
2.71113e-07
-3.57745e-08
3.36699e-08
2.15928e-09
1.51824e-05
-1.0074e-06
4.88877e-07
-3.14493e-07
4.16678e-06
8.94045e-06
-5.44659e-07
-5.47668e-07
1.09247e-06
5.26808e-09
-2.47755e-08
1.92496e-08
-3.0578e-07
-4.23415e-07
7.29005e-07
0.000238455
-0.00045458
-2.77511e-05
-2.34618e-06
-2.85272e-05
-1.58918e-08
-1.79931e-08
3.42695e-08
2.17941e-05
-2.17927e-05
-1.39533e-08
-2.19901e-08
1.96189e-06
-6.07723e-07
-1.35318e-06
-5.31637e-07
-1.05283e-06
1.58493e-06
-2.73197e-05
1.69601e-05
1.03596e-05
1.11446e-05
2.78429e-05
-3.89873e-05
-5.32714e-08
1.94158e-06
-2.03689e-06
-8.81658e-07
5.5515e-07
6.97049e-05
-3.0903e-05
3.62718e-07
4.67686e-08
-2.90665e-06
3.91477e-06
-1.00787e-06
-2.56384e-05
-0.000194437
0.000220076
-3.21607e-09
1.27274e-08
-9.63114e-09
-1.22101e-05
2.90326e-05
3.52017e-07
1.37688e-07
2.93677e-07
-2.00099e-08
-2.44829e-08
1.26358e-08
3.0071e-05
-7.87136e-06
3.5945e-07
-3.64986e-07
1.91726e-07
6.07355e-07
-7.99407e-07
-8.24829e-08
-6.7826e-08
1.50686e-07
1.08441e-08
4.13283e-09
-1.52517e-08
1.23388e-08
-4.30049e-08
-7.78928e-08
4.23255e-07
-3.44906e-07
1.19107e-05
2.05338e-05
2.05641e-08
2.06e-08
-4.09073e-08
6.93541e-07
-3.36138e-06
2.66741e-06
3.95607e-07
-1.87427e-07
-2.08102e-07
-5.66687e-07
5.04162e-07
-1.43055e-08
1.95728e-08
1.1774e-05
-1.09858e-07
2.57022e-06
-2.46034e-06
-8.92655e-08
-2.62583e-07
-2.0611e-07
-1.47052e-07
8.86246e-07
1.07625e-06
-8.20602e-05
-0.000107991
0.000190052
-0.000205787
0.000123727
-2.89086e-08
2.22376e-09
-2.66343e-08
4.01501e-08
1.84276e-05
1.1643e-05
3.21283e-05
-8.00291e-06
-2.41263e-05
6.17106e-06
6.05718e-06
-9.94588e-07
1.23643e-06
-2.41598e-07
1.10644e-06
-1.64905e-06
3.88028e-06
-4.11587e-06
2.33954e-07
-3.66691e-06
2.35865e-05
4.38135e-08
-5.91348e-08
-2.87987e-06
2.65587e-06
2.24218e-07
-5.22784e-08
-1.002e-07
-6.47339e-07
6.41453e-07
6.70204e-09
-1.2414e-06
2.46827e-07
-4.92911e-06
2.02333e-06
-1.39915e-08
-4.9834e-09
1.94181e-08
-5.17042e-07
-4.01369e-07
9.1744e-07
-2.88688e-06
2.77687e-06
2.09815e-05
-2.71781e-05
6.1969e-06
-1.98826e-07
-3.96526e-06
4.1623e-06
4.83034e-06
-8.22285e-05
-5.86777e-05
-1.1001e-07
-4.00393e-08
-3.05552e-08
3.64838e-08
-4.85013e-09
-5.17645e-08
2.13416e-08
3.04952e-08
6.5643e-06
2.00434e-06
-8.56989e-06
9.30865e-06
-1.29536e-05
3.64382e-06
1.84339e-06
-9.86165e-06
-7.84869e-07
6.05709e-06
-2.40621e-07
-1.58737e-07
4.00529e-07
1.08356e-07
1.87044e-07
2.59294e-05
-5.64067e-05
-1.13714e-06
-3.67806e-06
4.81489e-06
6.24772e-06
-6.4614e-06
3.77789e-07
2.19249e-06
3.94813e-07
-2.85917e-07
-1.20553e-06
6.73869e-07
5.31278e-07
1.01304e-07
-2.24988e-07
-2.26112e-06
8.07133e-07
-2.20939e-05
2.62415e-05
-4.14867e-06
3.08678e-06
-4.22383e-06
1.74467e-06
-3.04583e-06
1.30113e-06
5.80055e-06
-9.01721e-07
-4.90059e-06
-3.47672e-05
0.000125304
-9.05505e-05
-0.00013443
0.000107449
2.69808e-05
-4.05189e-07
1.09345e-07
2.96001e-07
-3.20043e-07
2.42932e-07
-6.32463e-05
-1.94932e-05
8.48985e-07
2.08757e-06
-2.93452e-06
-3.04981e-08
2.87531e-08
1.93053e-09
5.79244e-07
-9.49347e-07
3.6922e-07
1.03354e-08
2.17917e-09
-1.23597e-08
-1.24676e-05
7.82405e-06
4.54893e-08
-2.94036e-05
2.93603e-05
-4.3048e-08
-1.17853e-06
-3.426e-06
4.60833e-06
-9.34898e-07
3.89132e-07
-1.49717e-06
2.8509e-06
-1.3561e-06
4.4395e-08
-9.23575e-08
4.82531e-08
-1.04382e-07
1.40088e-07
-3.56007e-08
-1.11188e-07
4.58471e-07
-1.87977e-05
1.90696e-05
-2.72824e-07
3.44792e-06
-1.50494e-06
-1.94212e-06
4.95599e-09
-1.87381e-08
-3.32593e-06
-2.91414e-08
-1.54884e-06
9.85364e-06
-8.30569e-06
-6.05903e-07
1.39093e-06
-7.84977e-07
3.37619e-08
-1.16399e-07
1.57185e-06
-4.14145e-09
-5.17042e-08
5.5343e-08
-6.5109e-05
-0.000359444
0.000424537
-3.12279e-07
2.30694e-07
-1.08183e-06
1.38661e-06
7.85898e-07
1.63529e-07
-2.77984e-05
2.54523e-05
3.17497e-06
2.72697e-07
-1.53447e-05
9.89825e-07
-2.513e-08
2.63367e-08
3.313e-08
-3.88666e-08
6.34632e-09
-3.00763e-06
-2.45641e-07
-3.98064e-08
1.25865e-08
2.75883e-08
4.71909e-08
-1.41791e-08
1.26987e-07
-8.21905e-08
-3.17769e-10
1.63565e-08
-1.65421e-08
4.22812e-08
-5.75726e-08
1.45587e-08
-1.31334e-05
1.56617e-05
-2.5256e-06
-4.24793e-06
-8.22358e-06
1.23517e-05
-2.71541e-07
-1.20808e-05
1.17315e-06
2.08054e-06
2.03707e-05
6.10685e-07
1.21278e-06
6.22724e-07
5.09229e-06
-3.10535e-07
-4.78944e-06
-5.10724e-06
-2.30131e-05
-2.73585e-05
1.14674e-05
1.58476e-05
7.47002e-07
2.86852e-07
2.19508e-07
5.84702e-07
-5.33072e-06
1.87438e-06
-9.17007e-06
3.64123e-05
-2.72556e-05
1.01636e-08
-1.32562e-08
2.26853e-08
-1.79964e-08
-4.06774e-09
-2.50709e-05
-7.10564e-06
4.84237e-06
-2.44957e-05
1.96523e-05
5.31595e-09
5.53184e-09
2.1031e-06
-1.52126e-05
5.2057e-09
6.2386e-07
-3.1251e-07
1.34441e-06
-1.0318e-06
-2.09374e-05
2.18466e-05
-9.09687e-07
-1.36659e-05
8.05236e-06
5.6126e-06
-1.11134e-05
1.25276e-05
-4.86146e-08
-4.76264e-08
1.63283e-06
-1.0736e-06
1.05689e-06
-6.11493e-05
9.2027e-05
-2.71585e-06
1.2177e-06
-7.53508e-05
1.42056e-05
0.000202305
-7.15857e-05
-0.00013072
3.23533e-05
-3.44059e-05
2.05442e-06
-5.25835e-08
1.63508e-07
-7.83383e-08
-6.06582e-08
1.39158e-07
-3.06644e-05
2.9624e-05
1.03951e-06
8.78605e-07
1.22524e-06
8.19822e-06
-5.18773e-05
-2.66031e-07
1.05881e-07
5.39942e-09
9.74882e-08
-5.1403e-08
-2.84819e-08
-4.77769e-07
1.44307e-07
3.3346e-07
6.51791e-08
6.04094e-09
-3.63123e-07
-8.39798e-08
4.4686e-07
5.82012e-07
-4.40649e-08
-5.38425e-07
-4.63304e-08
5.48972e-08
-8.56857e-09
-5.34903e-08
5.76359e-08
-1.92722e-07
-2.05739e-05
2.07703e-05
-3.9549e-06
1.71464e-06
2.24021e-06
-3.26624e-09
8.87604e-10
-2.59802e-06
-6.31635e-06
-1.26379e-07
-5.18062e-07
1.64596e-06
-2.60377e-06
9.58522e-07
-1.06564e-05
1.07989e-05
8.64011e-06
-9.95142e-09
5.18945e-08
-2.04968e-07
-1.11682e-06
1.3207e-06
3.78483e-07
1.00619e-06
-1.38491e-06
3.10443e-06
-4.28093e-06
3.8515e-08
-1.85766e-08
-1.96478e-08
2.96776e-09
1.78621e-08
5.94305e-05
-1.93338e-05
-4.00928e-05
2.54732e-08
-2.02145e-08
-2.29674e-05
3.03324e-05
-3.39566e-07
3.20672e-06
4.86106e-08
1.1943e-07
-1.95225e-09
1.3867e-08
-7.20247e-06
2.62419e-06
2.92621e-05
-0.000194807
0.000165545
-2.26504e-08
9.48472e-09
-2.6976e-07
1.47123e-07
-2.52164e-08
1.45066e-08
1.07588e-08
5.84552e-06
2.62822e-05
9.36924e-09
1.60573e-08
1.088e-05
-1.99862e-05
9.10601e-06
1.24191e-08
-4.9731e-08
-4.49502e-07
8.62344e-08
-3.02575e-08
-1.14455e-08
-9.36132e-08
-1.08158e-07
2.01956e-07
8.34935e-07
-1.36637e-06
4.48167e-06
0.000421308
1.63104e-05
6.09704e-07
-8.13586e-07
-3.13101e-05
1.87169e-05
1.18566e-07
6.10454e-08
-1.7969e-07
6.83583e-08
-2.36166e-09
-6.62508e-08
-8.4515e-05
0.000237013
-0.000152495
4.31843e-07
-1.1641e-07
-3.15524e-07
-2.79066e-05
1.70004e-05
-2.19693e-07
-2.81204e-07
4.96724e-07
1.78567e-08
-1.27713e-06
8.79366e-07
-6.61738e-08
5.80406e-08
8.47893e-09
1.93475e-09
-3.5687e-09
-3.03386e-08
4.48036e-10
-1.23458e-08
1.23794e-08
-7.06086e-05
-6.38215e-05
-6.26562e-09
9.9729e-09
0.000277366
-7.50622e-05
2.72457e-08
2.09304e-08
1.55367e-07
-2.77953e-07
1.22666e-07
0.000119058
-0.000153825
3.34203e-06
7.72435e-06
-1.1069e-05
-7.83837e-06
-2.16056e-06
-1.98038e-08
1.66202e-08
6.57392e-07
-6.74745e-07
8.13192e-09
6.09093e-05
3.71914e-05
-9.80994e-05
-7.78939e-06
1.04591e-05
-3.34937e-08
1.75738e-08
3.25737e-06
-2.64069e-06
-6.22309e-07
6.23327e-08
-1.95375e-08
1.61418e-06
-2.25522e-05
0.000110015
-0.000146345
3.63302e-05
-2.08463e-08
4.59448e-09
2.25707e-10
-4.84186e-09
-1.03637e-05
-3.97433e-07
2.97654e-05
-1.08447e-05
-1.89202e-05
-7.47947e-06
1.83588e-05
8.51461e-09
-7.50405e-10
-1.18876e-07
4.91193e-06
3.10596e-06
1.68819e-05
1.8496e-05
4.12282e-06
1.6772e-06
-1.27721e-06
-2.28108e-05
-0.000326307
0.000349118
1.05879e-08
1.28407e-08
-2.30593e-08
1.99523e-10
-2.40159e-09
-0.000122206
-0.000196307
2.12919e-07
2.19089e-07
4.89055e-09
-5.30404e-11
2.77812e-07
-2.23699e-05
0.000113956
-7.48615e-05
-3.90945e-05
2.51836e-05
1.89535e-06
-2.70991e-05
-1.26424e-07
-5.20572e-07
-8.68996e-08
1.8625e-07
2.45595e-07
1.76998e-07
-7.74252e-09
-2.55249e-08
3.33326e-08
5.60906e-08
-2.57341e-08
-2.96515e-08
1.33423e-06
-1.32748e-05
1.27231e-05
5.51176e-07
1.04438e-06
-1.35653e-06
0.000434011
0.000118216
-3.06409e-06
8.99901e-06
-5.93394e-06
-4.15694e-06
-1.22938e-07
9.60748e-06
-1.41429e-05
4.53561e-06
1.9186e-05
7.05697e-06
9.0758e-06
-6.57761e-06
-2.49875e-06
-9.63209e-07
6.62101e-07
3.00823e-07
5.84142e-07
-9.30612e-08
-4.90757e-07
2.87114e-08
4.52268e-08
-1.47604e-07
-1.33922e-07
7.6527e-08
5.75266e-08
-1.47378e-06
5.05989e-09
-2.97818e-08
1.71029e-05
-8.16906e-06
-8.93558e-06
1.14855e-05
5.62065e-06
2.74829e-08
2.67082e-08
-2.44802e-06
3.02673e-06
2.16926e-05
8.33727e-06
-3.00401e-05
-2.29095e-08
2.78543e-08
3.59488e-06
5.48065e-06
1.59675e-08
-1.81212e-08
1.88587e-09
1.72002e-05
-2.20041e-05
4.78252e-06
9.30609e-07
-1.83808e-07
4.70849e-06
-2.96112e-06
1.73199e-08
-7.60173e-10
-1.90411e-06
1.67588e-06
-4.54728e-08
5.87825e-08
-1.24047e-08
-1.57435e-05
5.40834e-06
1.03358e-05
-1.51813e-08
-2.99981e-08
-3.67241e-07
-8.23642e-07
9.105e-06
-1.06545e-05
9.274e-05
-2.99799e-05
-6.27603e-05
4.08076e-07
-3.01218e-06
1.50436e-05
-5.43616e-06
3.56451e-08
-8.36556e-09
-2.89531e-05
1.1537e-06
2.71486e-08
1.93877e-09
2.93569e-05
2.99808e-06
2.07917e-07
-5.24443e-08
-1.09523e-06
-1.77031e-05
1.63254e-08
-4.58516e-10
6.05667e-08
-3.30289e-08
-4.90886e-07
-2.59288e-07
7.50106e-07
-8.55596e-05
0.000155117
-6.37289e-07
-1.33246e-06
1.97017e-06
1.04965e-08
-4.43654e-08
4.37592e-05
6.91453e-06
-5.06715e-05
-9.43227e-07
-5.26036e-07
1.4705e-06
-2.07013e-05
6.83385e-07
-5.44773e-07
-1.38316e-07
-6.8863e-06
-8.85745e-06
-2.46103e-05
-2.19823e-07
2.00956e-07
1.90383e-08
0.000233222
-0.000256033
-1.31134e-05
1.68825e-06
1.14263e-05
4.07206e-08
8.40287e-09
-4.93343e-08
2.79987e-08
-3.52522e-07
3.24832e-07
-6.67475e-08
1.01894e-07
-3.50858e-08
-4.59316e-07
2.2153e-05
-3.22358e-05
1.34991e-10
2.13489e-08
-1.39723e-05
3.93851e-06
1.00334e-05
-7.06779e-06
5.46035e-06
-6.50349e-06
4.77899e-06
1.72467e-06
-0.000334671
3.77058e-05
0.000296973
0.00043891
0.000145059
-6.9811e-07
-5.0794e-07
-3.83536e-05
9.92632e-05
8.04184e-10
6.74658e-08
1.92204e-05
-2.0343e-06
-8.72461e-06
-4.72717e-06
-5.33306e-08
-5.59055e-08
1.08882e-07
1.63941e-06
9.85654e-06
1.04954e-06
1.75896e-07
-1.22464e-06
-1.10111e-05
-2.96074e-06
-9.03056e-07
1.28187e-06
8.46495e-08
-1.71117e-07
1.72309e-08
-1.43713e-08
0.0005214
-7.05944e-05
-0.000450806
-7.6599e-08
2.51921e-08
-3.06585e-06
-8.88721e-07
-1.84119e-07
1.45914e-07
-3.46815e-06
1.41664e-05
-1.06981e-05
-0.000187754
0.000626663
1.66448e-06
-4.51642e-07
-4.19957e-05
-5.18276e-05
-8.13102e-06
-2.25336e-05
-1.12193e-07
1.07567e-07
-2.49053e-07
1.41697e-07
1.99281e-05
-3.36629e-07
-1.95893e-05
6.45471e-08
-3.58105e-08
-9.70594e-09
-5.4049e-09
3.49238e-08
2.1157e-08
-1.99855e-06
2.84913e-06
-8.7799e-09
2.69858e-05
2.00685e-05
-4.70542e-05
6.68063e-09
-6.56963e-09
-7.23933e-06
1.73049e-07
2.87883e-07
-2.91811e-07
3.88195e-09
1.86998e-08
-8.41571e-09
2.88445e-08
3.58627e-08
5.03012e-06
-4.2464e-06
-7.85411e-07
-4.35743e-06
-4.57792e-07
2.17426e-07
2.60018e-05
-1.38848e-05
-1.67368e-05
-8.19304e-06
-1.50264e-05
2.32197e-05
-5.61483e-07
8.58817e-05
2.39964e-05
-0.000109878
-2.37437e-07
-1.18195e-07
5.41059e-08
-5.67116e-08
2.79721e-09
-8.73318e-09
-1.21575e-08
-3.4112e-08
-3.31166e-07
-1.23485e-07
1.99141e-06
-7.24893e-07
-1.26783e-06
6.09487e-07
-5.67848e-07
-1.38953e-06
-4.81044e-07
1.87115e-06
6.10908e-08
-6.87413e-09
5.16749e-08
-5.5305e-08
2.70393e-08
-1.35109e-08
-1.34278e-08
-1.46709e-07
1.66668e-08
1.41222e-05
1.56432e-05
8.17009e-06
3.13741e-06
-1.13023e-05
-4.9974e-06
5.80864e-06
-8.11303e-07
-1.2623e-08
-2.07884e-08
-1.5725e-08
1.54561e-08
3.51652e-08
5.58537e-08
-9.08752e-08
2.90505e-09
-7.29194e-07
7.25995e-07
-6.10512e-08
-3.35707e-07
3.94368e-07
-5.7449e-08
3.46547e-08
2.25126e-08
5.67885e-09
1.30277e-08
-8.60593e-05
0.000115321
2.29253e-08
-7.9043e-08
5.69594e-08
6.59132e-07
-5.92409e-07
-3.70975e-07
-1.22261e-05
-0.000205163
0.000217389
-2.64281e-08
6.16465e-08
0.000112247
-0.000124473
2.77624e-05
5.99698e-05
8.27585e-06
-1.71174e-05
-2.61104e-05
3.12989e-05
-5.18839e-06
-1.03273e-08
2.97978e-07
5.50909e-06
1.17656e-06
-6.68525e-06
1.42789e-05
2.20022e-06
-1.64761e-05
8.12795e-07
-4.31571e-07
-3.80783e-07
3.31609e-07
7.35e-08
-7.7129e-07
1.78552e-07
-2.72293e-06
-1.03909e-05
-3.25151e-05
3.65493e-06
2.88612e-05
2.17185e-06
-5.90125e-08
-2.11495e-06
3.57226e-07
-3.99382e-06
3.63758e-06
2.95225e-10
1.10861e-08
-1.1354e-08
0.000171106
-0.000255623
1.69852e-05
-8.82002e-06
0.000322268
0.000199132
-6.16685e-07
2.62951e-07
3.52655e-07
1.05296e-07
6.06282e-08
5.93704e-08
-3.84522e-08
-2.0639e-08
6.77428e-09
3.43919e-08
3.33555e-05
1.04033e-05
-3.06512e-08
1.81128e-08
9.27804e-06
-3.95682e-06
-5.32247e-06
-6.52003e-05
0.000146424
3.18823e-09
1.49686e-09
-4.8337e-09
2.72167e-06
-1.00152e-06
-1.71963e-06
-2.60955e-09
-2.90803e-07
2.04771e-07
8.60759e-08
3.89956e-08
3.03266e-07
-3.42343e-07
-2.8643e-07
1.93928e-05
-2.73963e-05
2.44797e-07
-9.30448e-06
1.25979e-05
0.000110765
-0.000123362
1.30686e-08
1.36615e-08
-0.000155803
1.0971e-09
-2.86325e-07
2.84799e-07
-1.21192e-07
-2.80355e-06
1.63116e-05
-1.35057e-05
2.00136e-07
-1.39587e-07
-5.9972e-08
1.63014e-06
-2.26715e-06
-4.27738e-07
2.37728e-07
3.32074e-06
-6.384e-06
-6.67158e-07
-1.04361e-07
-1.15371e-06
-1.71654e-07
-1.19105e-07
-1.32951e-07
6.97863e-06
-6.84763e-06
-3.60524e-07
-2.5656e-08
3.85784e-07
-5.05075e-07
-1.3039e-06
7.46427e-06
-2.70536e-07
-7.19321e-06
2.07559e-06
-4.29545e-07
-7.03861e-08
1.37323e-08
1.09944e-05
-1.37962e-05
9.41828e-06
-1.95401e-06
2.29977e-08
-3.06434e-08
5.01978e-08
-2.13025e-08
3.19127e-09
-2.33936e-08
2.00877e-08
-0.00017473
0.000407952
-1.25705e-05
1.20776e-06
1.13612e-05
4.47567e-08
8.675e-06
2.07123e-06
-1.07467e-05
-7.44412e-06
2.37753e-06
5.07119e-06
1.09329e-07
-0.000308366
0.000245164
6.32015e-05
0.000590653
1.84678e-06
3.07676e-05
-3.26155e-05
2.06235e-06
-7.20031e-08
-1.80996e-05
4.49797e-05
-2.68778e-05
-9.72242e-05
-1.11436e-07
2.53628e-08
2.49912e-08
1.37686e-06
2.87373e-07
2.24364e-09
-2.33285e-08
2.02063e-08
3.89422e-08
1.24452e-08
-9.64237e-07
9.6336e-07
3.47648e-09
3.3978e-06
1.63172e-06
-2.14245e-05
3.20783e-05
-4.38216e-08
-2.22204e-08
-1.15418e-05
-1.41216e-06
-7.45334e-07
8.17898e-06
-1.61633e-06
-7.18875e-06
-2.50864e-05
-2.35147e-07
-2.41736e-07
-2.48229e-05
2.46664e-05
1.54865e-07
4.0502e-07
-4.11505e-08
-3.58214e-07
-2.66538e-07
6.25218e-07
-3.23111e-06
-9.70363e-06
1.29346e-05
3.0613e-07
-3.63244e-07
-1.03416e-07
9.5477e-08
7.76443e-09
-2.90875e-08
1.44971e-08
1.38072e-08
1.05965e-05
-1.91991e-06
-2.07669e-07
1.43993e-07
6.37078e-08
8.40532e-06
-7.10046e-06
-1.64387e-08
9.14153e-09
7.06858e-09
-2.69619e-06
-2.76837e-05
-3.78522e-05
6.55367e-05
-6.32707e-06
4.20694e-05
-2.78638e-05
2.27579e-05
-3.46864e-06
4.16121e-06
-6.47689e-06
-1.95051e-05
-2.90918e-06
2.24774e-06
-1.20969e-07
-8.66492e-08
-7.64769e-06
-1.71485e-05
4.02443e-07
-2.18294e-06
1.02224e-05
-8.03726e-06
-2.43625e-07
7.2046e-08
5.76732e-07
-2.9845e-05
3.3389e-05
-3.54308e-06
1.38528e-05
-6.38095e-06
-7.47057e-06
-4.80093e-07
3.95804e-07
8.43731e-08
-2.63752e-05
2.68099e-05
-4.39487e-07
2.79671e-05
-2.08979e-05
-7.06732e-06
-9.963e-08
-0.000225685
-0.000108981
-1.57128e-08
-1.97199e-08
-3.33377e-08
-3.9616e-09
3.73482e-08
-3.25848e-05
1.89746e-05
5.6756e-06
-3.23201e-06
-2.54961e-08
3.6008e-08
-1.1131e-08
-0.000179746
-0.00012862
-1.23329e-05
-2.09713e-07
1.2543e-05
2.32522e-05
-3.32392e-06
-7.22759e-07
-5.78054e-06
-6.09406e-07
2.31057e-07
3.78239e-07
4.72833e-07
3.00246e-07
-3.03354e-08
3.66456e-08
-6.42252e-09
0.000523843
-0.000571778
4.79279e-05
-3.50459e-08
9.8461e-09
-3.43723e-05
-2.87471e-07
-1.92552e-07
-3.11146e-06