/*--------------------------------*- C++ -*----------------------------------*\
| =========                 |                                                 |
| \\      /  F ield         | OpenFOAM: The Open Source CFD Toolbox           |
|  \\    /   O peration     | Version:  v2012                                 |
|   \\  /    A nd           | Website:  www.openfoam.com                      |
|    \\/     M anipulation  |                                                 |
\*---------------------------------------------------------------------------*/
FoamFile
{
    version     2.0;
    format      ascii;
    class       volScalarField;
    location    "300";
    object      k;
}
// * * * * * * * * * * * * * * * * * * * * * * * * * * * * * * * * * * * * * //

dimensions      [0 2 -2 0 0 0 0];


internalField   nonuniform List<scalar> 
15335
(
0.0174472
0.000201259
0.000157169
0.000141909
0.000155235
0.000143273
0.000179859
0.000164225
0.000132468
0.00014562
0.000149479
0.000142584
0.00017808
0.000172231
0.000163082
0.000128512
0.000196959
0.000191566
0.000140934
0.000158263
0.000132573
0.032897
0.000160619
0.000132731
0.000108405
0.017489
0.000183715
0.00013676
0.000164928
4.2184e-05
0.000134781
0.00018207
0.000167588
0.000155755
0.000180872
0.000185657
0.000145587
0.000156221
0.000171627
0.000191573
0.000136197
0.00540242
0.000131851
0.000171913
0.00646823
0.00013618
0.000159257
0.000158112
0.000167686
0.000148709
0.000132906
0.000134933
0.000147535
0.000153336
0.0195235
0.00651432
0.000178436
0.000158122
0.000157621
0.00514739
0.000200379
0.000130763
0.000147534
0.000149475
0.000155014
0.0155304
0.00639572
0.00014327
0.000165065
0.000131121
0.000148369
0.000160412
0.000147118
0.00574688
0.000149324
0.00793832
0.000199855
0.000173817
0.000143048
0.000184861
0.0186516
0.000163454
0.000164212
0.000182749
0.000161236
0.0158584
0.000149708
0.000183396
0.000143238
0.000152072
0.0105819
0.000182137
0.00531725
0.00369911
0.000157783
0.000182738
0.000131674
0.0157306
0.000134743
0.0158666
0.000131784
0.000152238
0.000194859
0.000128622
0.00014927
0.000131597
0.00719507
0.000146982
0.000149615
0.000174471
0.000185876
0.000169267
0.000132322
0.000168083
0.000161646
0.000136072
0.000174772
0.00014857
0.00411511
0.00947557
0.000151895
0.000180598
0.00511762
0.000140985
0.00018054
0.000136695
0.000141622
0.0273086
0.000181412
0.000149706
0.000136943
0.000180654
0.000152464
0.0173377
0.000135495
0.00391905
0.000145938
0.000131229
0.00017362
0.000154697
0.000149144
0.0119064
0.000140367
0.018106
0.00509942
0.000150428
0.0108622
0.000154374
0.00014711
0.000173061
0.000144651
0.015327
0.000128205
0.000156647
0.0122937
0.000144997
0.000183345
0.000146586
0.000135322
0.000160672
0.000139973
0.000152444
0.000147114
0.000169671
0.000150789
0.000141534
0.000135459
0.0172956
0.000135132
0.000141654
0.000152687
0.000143445
0.000149486
0.000145218
0.000157565
0.000156218
0.0187615
0.000135204
0.000182284
0.0156068
0.000149278
0.000146339
0.000157828
0.00015583
0.000155834
0.000188827
0.00018336
0.000147343
0.000147558
0.00683917
0.000150205
0.015467
0.00016812
0.000136125
0.000147118
0.00516823
0.000149249
0.000131173
0.000176831
0.000170211
0.000139029
0.000158181
0.00013615
0.000178911
0.0155841
0.000150324
0.000583218
0.000141357
0.00018213
0.0172318
0.000197867
0.000156287
0.000136383
0.000153385
0.000199856
0.000156956
0.000161585
0.000170697
0.000158203
7.64779e-05
0.000156915
0.000171164
0.0114509
0.000182304
0.00016803
0.00644497
0.000178764
0.000148314
0.000179056
0.000196038
0.000145167
0.000188466
0.0109907
0.000160852
0.000147641
0.000151978
0.000142155
0.0198715
0.00910086
0.000150072
0.000173251
0.000144923
0.000175365
0.000152661
0.0171513
0.000157423
0.00245186
0.000156874
0.0095076
0.00388445
0.000156304
0.00013368
0.000198628
0.000149033
0.000133275
0.0346587
0.000148854
0.000168286
0.0123023
0.000133155
0.0083814
0.00248033
0.00935827
0.00015854
0.00576153
0.00737291
0.0122538
0.000133689
0.000200237
0.000149095
0.00018545
0.000128031
0.0183922
0.000135822
0.000151018
0.00989862
0.0050559
0.000152674
0.00014695
0.0159454
0.000136623
0.000141971
0.000150365
0.000146944
0.000185259
0.000146962
0.000162378
0.000141865
0.000195953
0.000157074
0.000196761
0.000153336
0.000135244
0.00014375
0.00933449
0.000157394
0.000152283
0.00013549
0.000148903
0.000150432
3.76446e-05
0.000174954
0.0128691
0.000139546
0.0102549
0.000136673
0.000136798
2.27931e-05
0.00788772
0.000179132
0.00480243
0.000152923
0.000163569
0.0184849
0.000136126
0.000148837
0.000135333
0.000135231
0.000149171
0.000160404
0.000144336
0.000153444
0.01692
0.0120411
0.000157599
0.00448179
0.000189718
0.000135283
0.000135157
0.000135478
0.000136015
0.0184506
0.00109213
0.000156061
0.000171101
0.000131491
0.000148024
0.000155869
0.000173877
0.00549868
0.000162879
0.000173133
0.000183371
0.000163147
0.000187127
0.00753088
0.00017602
0.00923849
0.000153028
0.000153477
0.000176794
0.000135381
0.000151779
0.0167471
0.0040509
0.000153254
0.000148483
0.000135104
0.00014427
0.0149676
0.000143036
0.000135912
0.000157755
0.000143071
0.00133454
0.000147948
0.000150712
0.000149474
0.000168004
0.000142331
0.000147821
0.00014349
0.000160239
0.000144459
0.000134358
0.000136267
0.000130943
0.000127986
0.000143797
0.000177342
0.0109434
0.000181297
0.000164054
0.000176572
0.00649802
0.000164676
0.000136458
0.0141123
0.00014136
0.000143798
0.000149652
0.00016808
0.000134954
0.000153408
0.0201436
0.000152128
0.000145899
0.00012841
0.000141639
0.0134633
0.000163376
0.000251754
0.000179365
0.000133425
0.000142123
0.000174665
0.00013304
0.000148614
0.000180093
0.000145691
0.000133355
0.000145607
0.000150012
0.000152136
0.00017461
0.000136018
0.000142257
0.000157235
0.00014454
0.000144702
0.000175662
0.000139054
0.000199366
0.00014372
0.000159519
0.000158545
0.000140991
0.00014431
0.00013666
0.000198013
0.0085608
0.000160069
0.000175265
0.000226181
0.000129454
0.000133009
0.0171106
0.000175648
0.000139013
0.000164636
0.000131785
0.000145685
0.000142018
0.00930188
0.000153346
0.0125174
0.000165565
0.000144303
0.000157072
0.0030976
0.000150507
0.0167388
0.000140647
0.00535304
0.000144088
0.00014623
0.000164792
0.00963455
0.000147416
0.000147107
0.000146552
0.000159386
0.000150222
0.000152948
0.000178415
0.00701696
0.000179222
0.000198919
0.000153298
0.000151798
0.000140099
0.0176943
0.00015325
0.00255648
0.000144189
0.000138851
0.000142039
0.000152614
0.00950394
0.000145487
0.000150182
0.000147775
0.000148218
0.000140568
0.000143408
0.0107347
0.00015116
0.000145739
0.000136132
0.000145946
0.000126823
0.000130703
0.000141681
0.000134198
0.0176756
0.0126383
0.0104273
0.000162842
0.000164478
0.000181508
0.00015043
0.0372054
0.000143265
0.000174492
0.000131303
0.000156016
0.000162301
0.000179317
0.000138944
0.00014805
0.000151367
0.000154269
0.00295761
0.000184472
8.85757e-05
0.00013196
0.00014548
0.000142322
0.000183406
0.013567
0.0053807
0.00593067
0.000153024
0.000134328
0.000649543
0.000142076
0.00395991
0.000150693
0.000135206
0.000144517
0.000150373
0.000176001
0.0192341
0.000141746
0.000181125
0.000164602
0.0281668
0.000162955
0.000133239
0.000152425
0.000163809
0.000176511
0.000141995
0.00819104
0.000143576
0.010919
0.0167617
0.000148861
0.000176906
0.000166248
0.000170297
0.000142611
0.000131281
0.000134732
0.00881593
0.00880775
0.000139002
0.000151847
0.000144674
0.00920856
0.00016541
0.000144402
0.000163507
0.000142905
0.00202845
0.000151543
0.000163263
0.000158474
0.017567
0.0103842
0.0113723
0.000141317
0.00013421
0.000175202
0.000147485
0.000134146
0.000142851
0.000150059
0.000144313
0.0139566
0.00980972
0.00745609
0.000170591
0.000154256
0.000164637
0.00739971
0.0106731
0.015494
0.000159777
0.000135276
0.000136956
0.000152774
0.000138399
0.000157563
0.000138917
0.0258276
0.000158234
0.017895
0.00013869
0.000195597
0.000156628
0.000162684
0.00798432
0.0136989
0.00015759
0.000136137
0.000172266
0.000146368
0.0319393
0.000170525
0.0319872
0.00693981
0.000464841
0.000136549
0.000149446
0.000177357
0.00017446
0.0372884
0.000151567
0.000133644
0.000146517
0.000145997
0.000143165
0.000153027
0.000180725
0.000136701
0.000132909
0.000127994
0.000142526
0.000161481
0.000150953
0.000184741
0.000136352
0.000156525
0.000171945
0.0154401
0.000195398
0.000144147
0.000136177
0.000162183
0.000176318
0.000141854
0.000143515
0.000174091
0.00014441
0.000178113
0.000171533
0.000132382
0.000165027
0.00977489
0.0239255
0.000144225
0.000135495
0.000138484
0.0131756
0.000147878
0.000453325
0.000145601
0.000152896
0.000147481
0.000140789
0.000164094
0.000182659
0.0107146
0.000135939
0.00464516
0.000149297
0.000146866
6.53194e-05
0.000142215
0.000146252
0.000153346
0.000157531
0.000138899
0.000174143
0.000143815
0.000144016
0.000141451
0.000180928
0.000162445
0.000138911
0.00689169
0.000174306
0.000133287
0.0235173
0.0139909
0.000178224
0.000138638
0.00015349
0.000141525
0.000169788
0.00017441
0.0001406
0.000158394
0.000148697
0.00868713
0.000248563
0.00014567
0.000160644
0.00649769
0.000146023
0.0157548
0.000185192
0.000154055
0.000131862
0.00504219
0.000152097
0.000165059
0.000162464
9.16551e-05
0.000140043
0.000150472
5.98677e-05
0.000142521
0.000159482
0.0190574
0.000185151
0.000202605
0.000156432
0.000143891
0.000133461
0.000139963
0.000145765
0.000146243
0.000163751
0.000161848
0.00665376
0.009974
0.000164788
0.00337556
0.0190694
0.000182406
0.000143334
0.000136421
0.000135796
0.000149505
0.000132857
0.000150542
0.000141394
0.000145269
0.000145801
0.000132882
0.00831919
0.0186409
0.000141359
0.000183188
0.000143892
0.0153787
0.000159302
0.000181565
0.000140588
0.000167394
0.00014881
0.000161542
0.000148641
0.000130492
0.00778621
0.000146977
0.000170041
0.00319882
0.00017764
0.0173191
0.00013991
0.000237913
0.000133125
0.00794715
0.000143838
0.000132805
0.000158308
0.000156849
0.00016855
0.000142191
0.000152507
0.000176374
0.000153238
0.000156144
0.000161711
0.000194721
0.000134138
0.000102908
0.00019043
0.000143615
0.000135908
0.000147698
0.0187387
0.00015434
0.000147481
0.000186698
0.000178522
0.000157975
0.00645792
0.00659899
0.000144157
0.000169233
0.000146854
0.0153891
0.000154252
0.000143927
0.0001959
0.000155566
0.000186653
0.00016152
0.000143664
0.000180507
3.76817e-05
0.000147257
0.000161091
0.000149908
0.00014431
0.00660738
0.000163763
0.000164105
0.000175822
0.000159318
0.000147079
0.000197166
0.000135717
0.000152101
0.000145523
0.000177293
0.00014764
0.000146197
0.000143036
0.000178681
0.00014469
0.000152027
0.000135606
0.000172165
0.0136401
0.000153408
0.000201093
0.000136276
0.000139291
0.000135506
0.00309173
0.00013497
0.000133701
0.00013633
0.000132955
0.000150923
0.00017746
0.000142436
0.000165455
0.000133715
0.000142943
0.0001399
0.000128348
0.0161714
0.000149996
0.000132389
0.000140674
0.000143522
0.000133386
0.000157883
0.000153314
0.000142426
0.000149683
0.0209456
0.000143034
0.00838706
0.000136225
0.000143033
0.000102158
0.000133285
0.000113771
0.000492476
0.00504531
0.0169661
0.000144937
0.000173828
0.000181545
0.000171375
0.000152084
0.000143027
0.000190456
0.000142631
0.000149008
0.000151147
0.000140103
5.56237e-05
0.000150167
4.13455e-05
0.000154266
0.000131045
0.000146484
0.000143543
0.000152239
0.000140632
0.000186148
0.00524521
0.000146621
0.000171825
0.000143643
0.000131213
0.000129669
0.000154625
0.0110959
0.00013638
0.0140599
0.0113712
0.000139833
0.0146993
0.000144883
0.000144133
0.000179084
0.000149793
0.000169139
0.000141721
0.00826668
0.000142726
0.000165805
0.000131295
0.00183069
0.000150077
0.000149711
0.000140599
0.000171297
0.000136295
0.000178593
0.000140603
0.000139824
0.000135523
0.000188126
3.77381e-05
0.00787808
0.000141782
0.0140125
0.0081958
0.000164795
7.74328e-05
0.00282417
0.0155395
0.000177924
0.00100819
0.00701173
0.000134168
0.000135416
0.000163625
0.000142462
0.000148017
0.000175075
0.000171666
0.0162522
0.000146479
0.0135207
0.000145665
0.000182607
0.0157226
0.000162666
0.000135725
0.00019487
0.00015348
0.000147983
0.0105637
0.000153435
0.000148501
0.00014008
0.0139653
0.000131103
0.0101639
0.000143325
0.000175002
0.000165677
0.000168582
0.0124477
0.000150647
0.0181689
0.000171251
0.000131184
0.000194873
0.000148016
0.000171715
0.000131147
0.000157432
0.000350356
0.0147722
0.00013145
0.000200364
0.010026
0.000131232
0.00601662
0.000186269
0.000178841
0.0174007
0.0148233
0.000134621
8.64357e-05
0.000187597
0.000198896
0.000157619
0.000146352
0.000157219
0.000138526
0.00778122
0.000134703
0.000147972
0.000131524
0.00015063
0.000153778
0.00017251
0.000337889
0.0138828
0.000146282
0.000174285
0.000144706
0.00988339
0.000149683
0.000149441
0.000185609
0.000143273
0.000137753
0.000147612
0.000128907
0.00014437
0.000155154
0.000159744
0.000133287
0.000148474
0.000143384
0.0127155
0.000142085
0.000140839
0.000143287
0.000149444
0.0107141
0.000132479
0.000140068
0.000198091
0.00120564
0.000132442
0.000195356
0.000147441
0.00390673
0.000172875
0.00779358
0.000153175
0.000145769
0.0186175
0.000148117
0.000187212
0.000142855
0.000173575
0.000141074
0.000176493
0.000174221
0.000143147
0.00162889
0.000145893
0.0181154
0.000177675
0.000138692
0.000149643
0.000132983
0.000155075
0.00014751
0.000222069
0.00499446
0.000130557
0.000146519
0.000149486
0.000140078
0.0001428
0.00015623
0.000135334
0.000176574
0.0121373
0.000143711
0.000138515
0.00016581
0.000134777
0.000149037
0.000135227
0.0189615
0.000151331
0.000817895
0.00863203
0.000181384
0.000143209
0.00014636
0.00349738
0.000152148
0.000147489
0.0092268
0.00908475
0.000149789
0.000158084
0.000142153
0.000150804
0.000158429
0.000167708
0.000138463
0.00276509
0.016365
0.000170812
0.000147195
0.010983
0.0179755
0.000181983
0.000153683
0.00014273
0.000144252
0.000131861
0.000142318
0.000149106
0.000201076
0.000147468
0.000145497
0.000155677
0.000140144
0.0131096
0.000140707
0.000137363
0.000131925
0.000148745
0.000160887
0.00017325
0.000143337
0.00014686
0.000187723
0.000133433
0.000146076
0.000141077
0.000151035
0.00907978
0.011591
0.00014075
0.000145358
0.0143835
0.000172542
0.000136601
0.000128753
0.000131065
0.000140665
0.000164342
0.000142096
0.000137475
0.000146293
0.000148023
0.00134179
0.000175143
0.000152159
0.000170029
0.0125758
0.00015385
0.000191281
0.000174266
0.00805584
0.000141122
0.000199325
0.000167643
0.017075
0.00284007
0.000183961
0.0156551
0.000201965
0.000151024
0.000199963
0.000151773
0.0168996
0.0176293
0.00765587
0.0139978
0.00013131
0.00432366
0.000146494
0.000131398
0.000168257
0.00959878
0.000155105
0.000166995
0.000143963
0.000131214
0.000152148
0.000146728
0.000152104
0.00013248
0.00667166
0.000171667
0.000163086
0.000138919
0.000135147
0.000164698
0.000141808
0.000164369
0.000146885
0.000143368
0.000132524
0.000147284
0.00014802
0.000145854
0.00014182
0.000131631
0.00017837
0.000140432
0.000175129
0.0088834
0.00223658
0.000106195
0.000190009
0.000135038
0.0176973
0.000147891
0.0130952
0.000135439
0.000131396
0.00014252
0.000106355
0.000144829
0.000146889
0.0125702
0.000191788
0.0105446
0.0189227
0.000200074
0.000272304
0.000143183
0.000147591
0.00931294
0.00249202
0.000142015
0.000142983
0.000138293
0.000302581
0.000147437
0.00874833
0.00538364
0.0191435
0.0120389
0.000159054
0.00015779
0.00576593
0.00991691
0.0142725
0.000144618
0.00732029
0.00014309
0.00654777
0.000131705
0.000142538
0.000142907
0.000133045
0.0167129
0.000137941
0.000173884
0.000180955
0.0244779
0.000143912
0.00015775
0.000163354
0.0127408
0.0110548
0.000161127
0.000184743
0.0044984
0.000131144
0.000132152
0.00015912
0.000166944
0.000181534
0.000183192
0.000146264
0.000171519
0.00117302
0.000135013
0.00013831
0.00173263
0.00802091
0.000161327
0.000148634
0.000175065
0.0104691
0.000146488
0.000162738
0.000132784
0.000173422
0.000168979
0.012325
0.0118732
0.000145883
0.000182414
0.000142069
0.000161253
0.000152871
0.000164274
0.000148815
0.000146615
0.0180448
0.000169115
0.000170798
0.000152117
0.000151382
0.000181544
0.00191325
0.000178087
0.000169459
6.7189e-05
0.00287601
0.000210805
0.000152306
0.000167123
0.0082837
0.00013221
0.000141122
0.000170714
0.00801813
0.000134663
0.000138101
0.00185996
0.000182494
0.000140388
0.000163374
0.000143292
0.000172876
0.000254725
0.000132855
0.011149
0.000730345
0.000139988
0.00014614
0.000138159
0.00013331
0.00013485
0.000173887
0.0106527
0.00013496
0.000148764
0.000180508
0.00387244
0.000128784
8.55152e-05
0.000135796
0.000133296
0.000141241
0.000140141
0.000142758
0.000181152
0.000149607
0.0100175
0.0068067
0.000172419
0.00966355
0.00179993
0.000153309
0.000142722
0.000239303
0.00013288
0.000136438
0.000156421
0.010028
0.000195315
0.026097
0.0144433
0.0176961
0.000142413
0.00768782
0.000162729
0.000729494
0.0185843
0.00014197
0.000141417
0.000157032
0.000138418
0.00014725
0.000188227
0.0161873
0.000142699
0.000161506
0.000133473
0.0105774
0.000140395
0.015695
0.00014149
0.000112574
0.0162961
0.00017619
0.000155087
0.000153476
0.000136097
0.000188471
0.000187571
0.000136205
0.000141399
0.000101548
0.00017082
0.000186982
0.000181829
0.0123267
0.000152663
0.000155689
0.000144441
0.00014547
0.000162735
0.000143153
0.000138215
0.000138036
0.000144643
0.000140251
0.000142936
0.000990057
0.000146484
0.000141115
0.00155027
0.00011752
0.000147569
0.000176605
0.0114774
0.000155219
0.000149581
0.0156721
0.000149836
0.00237898
0.0141758
0.000142357
0.000155917
0.0109905
0.000142358
0.000179991
0.000185343
0.000179817
0.000140112
0.0109324
0.00879473
0.000151928
0.000151793
0.00017795
0.000114711
0.000128006
0.000140167
0.000143213
0.00015255
0.0177993
0.0182725
0.00548395
0.011897
0.0104957
0.000181705
0.000167378
0.000266423
0.00012962
0.000161543
0.000170259
0.000158435
0.000133703
0.00017042
0.000137559
0.000144848
0.00290948
0.00811183
0.000170289
0.00422208
0.000149434
0.000152227
0.00019737
0.0086302
0.000128388
0.0115677
0.000149662
0.000137655
0.012077
0.000168208
0.000178872
0.000133417
0.000158461
0.000188925
0.000148022
0.000168553
0.000157724
0.000176058
0.000145346
8.4519e-05
0.00016545
0.000139526
0.000146728
0.000981741
0.000579938
0.000155998
0.000168942
0.0154315
0.0166454
0.000131416
0.000180242
0.000161572
0.000110616
0.000146904
0.000136426
0.000147624
0.000149055
0.00677876
0.000153455
0.000197326
0.000142917
0.000146915
0.00859452
0.000142575
0.000146032
0.000168803
0.000155174
0.000145352
0.000143684
0.000150908
0.000168786
0.000113292
0.000158057
0.000170232
0.000148383
0.000142879
0.000146657
0.000145166
0.000238656
0.000151709
0.0176316
0.000151672
0.000143048
0.000170995
0.000146122
0.000153375
0.000150771
0.000142185
0.000143883
0.00014453
0.016357
0.000142122
0.000163341
0.000149334
0.0354383
0.00534887
0.0283885
0.00014588
0.00492179
0.000144826
0.000163878
0.000142929
0.000141433
0.0085301
0.000168374
0.000146424
0.000174172
0.014159
0.000152309
0.0124621
0.000150548
0.00127198
0.0127608
0.000145694
0.000142581
0.000146123
0.000169832
0.000138626
0.000137827
0.000142664
0.00988
0.000526692
0.000186383
0.000149547
0.00014344
0.000767067
0.0144711
0.0241128
0.00702567
0.0157918
0.000139082
0.00198474
0.000145833
0.000164075
0.000714025
0.000135635
0.000145788
0.000149882
0.00995996
0.000616288
0.0180763
0.000140052
0.000151885
0.00015331
0.000185422
0.0149525
0.000156675
0.000172876
0.000146536
0.000160791
0.0001573
0.000134778
0.0165687
0.00521191
0.000149276
0.000153122
0.000153628
0.000150951
0.0153747
0.000154
0.000140877
0.000143317
0.000141192
0.000148831
0.0112413
0.000183835
0.000139623
0.000169758
0.000145024
0.00014191
0.000148044
0.000140769
0.000143149
0.0113409
0.000169021
0.000168567
0.000139757
0.000178713
0.000133181
0.000139809
0.000138579
0.000138939
0.000132938
0.000146734
0.0113287
0.000137878
0.0144647
0.019698
0.000180427
0.000164822
0.000143368
0.00936141
0.0195715
0.000147088
0.00747686
0.000174702
0.00206751
0.000138708
0.000191102
0.000168745
0.000139971
0.000145382
0.000150491
0.000201196
0.000141993
0.000141887
0.000139445
0.000174928
0.000147418
0.000142106
0.000175682
0.000156682
0.000135913
0.000144122
0.00204024
0.000142341
0.0139406
0.000152754
0.000155315
0.000181278
0.0122825
0.00257737
0.000147547
0.000144372
0.00014527
0.00014761
0.0145114
0.009826
0.000153561
0.000138077
0.00299714
0.000151009
0.000149003
0.000133079
0.000115029
0.000152209
0.000187164
0.0160988
0.000149938
0.000193657
0.00707901
0.000174027
0.000180171
0.000182927
0.00849786
0.00561078
0.000149956
0.0112196
0.000150771
0.000167194
0.0028815
0.000155557
0.00014577
0.000147465
0.00113515
0.0156908
0.0119303
0.000149366
0.000143161
0.000155413
0.000151726
0.00943258
0.000133091
0.0151909
0.000187146
0.000141207
0.000140036
0.00694676
0.000156142
0.00424563
0.000151748
0.00015571
0.000166776
0.000193493
0.000143134
0.000156736
0.0103833
0.0278584
0.00558707
0.0104687
0.00013993
0.00378177
0.000140275
0.000154317
0.00015009
0.000215729
0.000133301
0.000167785
0.00014452
0.000146514
0.000175712
0.0155983
0.013427
0.000151013
0.000177194
0.00783064
0.000139421
0.000143143
0.000141837
0.000145028
0.000191634
0.000147714
0.000144869
0.00605371
0.000145326
0.0111462
0.0107525
0.00017455
0.000134532
0.000132082
0.000163023
0.000158387
0.000154606
0.000138948
0.000137881
0.000134501
0.000171434
0.00945537
0.000194877
0.000143917
6.804e-05
0.000139191
0.000190771
0.0123156
0.000175329
0.000145875
0.000171113
8.80179e-05
0.000139272
0.000151258
0.000181404
0.000145943
0.0195328
0.000186651
0.000135231
0.000395983
0.000173469
0.000146652
0.000140739
0.000136466
0.000143116
0.000146741
0.000134665
0.000145663
0.000139579
0.000155434
0.000143801
0.000148028
0.000141968
0.00430758
0.000151577
0.000135958
0.00536544
0.000196386
0.0151463
0.000135899
0.000140152
0.000144423
0.000134497
0.000135477
0.0001453
0.000182131
0.000184692
0.00015199
0.000141956
0.000142566
0.000152555
0.000169541
0.000148582
0.000135969
0.00018765
0.000146886
0.000143414
0.000184459
0.0180702
0.0182972
0.000159729
0.000141958
0.000159642
0.0110524
0.000141202
0.000145285
0.000155198
0.000144916
0.00937859
0.00014703
0.000143676
0.000135851
0.000143321
0.0139489
0.000139815
0.000135444
0.0133556
0.000117296
0.0142293
0.000133454
0.0137409
0.000135161
0.000153481
0.000141309
0.0158098
0.000136705
0.000158047
0.000157747
0.000158753
0.000155875
0.000170188
0.000147517
0.00977611
0.000156758
0.000195796
0.000146683
0.000156051
0.00595932
0.000157089
0.000172517
0.000139361
0.000139193
0.000149634
0.000160815
0.000164227
0.0181877
0.035796
0.000140576
0.000135082
0.0137882
0.000142444
0.000193395
0.0148847
0.00937201
0.00592272
0.000962535
0.0107086
0.000133425
0.00101712
0.000161985
0.000397264
0.000160829
0.000181942
0.00100537
0.000147737
0.000135198
0.000140577
0.000142272
0.00592609
0.00608404
0.000161463
0.00016113
0.000128564
0.000138369
0.000128613
0.00013076
0.000141135
0.00015474
0.000139259
0.000142474
0.000160407
0.00947413
0.00701071
0.000142589
0.000180038
0.000140875
0.00014439
0.000172969
0.000153986
0.000156226
0.00106892
0.000130896
0.00390932
0.000138297
0.000137449
0.000151337
0.000135615
0.0145972
0.0134439
0.000161686
0.000151074
0.000132145
0.000148944
0.000131899
0.000147693
0.000168128
0.000157683
0.000190569
0.000196383
0.000170582
0.000170891
0.000162295
0.00782755
0.000158071
0.000158262
0.000147854
0.000159072
0.0001667
0.00124651
0.000155344
0.000126143
0.000137481
0.000151652
0.000182522
0.000141487
0.000188208
0.000145981
0.000132167
0.00016709
0.0124943
0.000145467
0.000149136
0.0109856
0.000184395
0.000196837
0.000158965
0.000184547
0.00588575
0.000152965
0.000141914
0.0135371
0.000173525
0.000136282
0.00583055
0.000130033
0.0154911
0.000158067
0.000188919
0.000146871
0.000133824
0.000200477
0.000151595
0.000175062
0.0123968
0.000170891
0.00203801
0.00017578
0.0175617
0.00933006
0.000143254
0.000143244
0.000142446
0.0181157
0.0125261
0.0133822
0.0137924
0.0147117
0.0140221
0.000144044
0.000147081
0.00014092
0.0201089
0.0155454
0.00015429
0.00891011
0.000144403
0.0132659
0.000145681
0.00014863
0.0109694
0.00014675
0.000146643
0.000195438
0.000155556
0.000152391
0.000148801
0.000152676
0.0001773
0.00637157
0.000142509
0.000140496
0.000187184
0.0120188
0.00175405
0.000141327
0.000148587
0.000172816
0.000136095
0.000166166
0.00583443
0.000159984
0.000179475
9.00274e-05
0.000134485
0.00982183
0.000136213
0.000170118
0.000143833
0.000151858
0.0100999
0.000185542
0.000145071
0.000141363
0.000142439
0.00018109
0.000170693
0.00012809
0.000142397
0.000149911
0.000161276
0.00015655
0.000147277
0.000150424
0.000159671
0.000134606
0.014749
0.000180892
0.000151318
0.000137957
5.33781e-05
6.05865e-06
0.000160686
0.00927576
0.000912507
0.000184062
0.0117698
0.000144262
0.00673465
0.00014318
0.00631806
0.000138339
0.000170883
0.000137998
0.0159593
0.0135691
0.000176172
0.000141426
0.0132621
0.0230988
0.00844938
0.000145757
0.000178304
0.000163439
0.0116773
0.000169898
0.0159377
0.000143782
0.000143088
0.000162238
0.000188088
0.00794217
0.000160357
0.000152802
0.0112376
0.000170023
0.000152304
0.00015311
0.000139909
0.013322
0.000147185
0.000138419
0.000146263
0.000251914
0.000192048
0.00013518
0.00139635
0.0122103
0.000138011
0.000139902
0.000151797
0.000143376
0.00326646
0.00014137
0.000195474
0.0119369
0.000140098
0.000157007
0.00971928
0.000172204
0.000143707
0.00014133
0.00900763
0.000135775
0.000138116
0.000175972
0.00994514
0.000164557
0.0020087
0.000147123
0.00988432
0.000153635
0.000194874
0.000140234
0.000142286
0.0109995
0.000162988
0.000144634
0.0115787
0.000173149
0.012771
0.0116047
0.00714791
0.000125515
0.000150711
0.000153253
0.00014008
0.000141139
0.000137654
0.00655121
0.00373531
0.0109251
0.000152915
0.00019404
0.000185186
0.000147363
0.000143787
0.000142528
0.000168316
0.0147671
0.000148824
0.00537917
0.000160042
0.00014637
0.000139582
0.000170401
0.00342672
0.000158653
0.000151194
0.0296735
0.000675817
0.000183244
0.000160078
0.000152604
0.000142219
0.0219105
0.000139091
0.00586921
0.000136008
0.000140706
0.0157453
0.00013386
0.000168353
0.000179757
0.00753797
0.000140892
0.000136101
0.0102892
0.000147373
0.000142041
0.000145578
0.000162438
7.77631e-05
0.0207837
0.000143454
0.000138046
0.000166684
0.000472412
0.000145125
0.00551891
0.000143178
0.000172468
0.000163147
0.0269428
0.00014308
0.000139558
0.00015152
0.000143415
0.000167499
0.000164423
0.000139765
0.000142577
0.0156354
0.00487153
0.000139208
0.000138814
0.000130921
0.0133011
0.000150178
0.000151529
0.0107935
0.000184866
0.000143829
0.0110929
0.000156168
0.00014775
0.000166893
0.000145575
0.000138951
0.000142138
0.000139167
0.000135961
0.000143806
0.000138138
0.000151521
0.000136944
0.000145999
0.000116639
0.000173405
0.000173124
0.000144945
0.00363063
0.000145548
0.000156925
0.000147327
0.000143927
0.000170881
0.000178951
0.000142335
0.000135511
0.00016254
0.000166176
0.000145065
0.000429642
0.00844647
0.0129397
0.000346483
0.000133845
0.0129388
0.0104123
0.00019255
0.000169808
0.00870627
0.000151357
0.000147771
0.000139275
0.000147059
0.000148392
0.000142022
0.000159657
0.000141878
0.000137673
0.00791513
0.000169668
0.000169277
0.000139901
0.000172874
0.000154672
0.000142501
0.000143853
0.000136645
0.000146929
0.000145388
0.000146172
0.000172285
0.0130434
0.000135716
0.0118582
0.0113337
0.000142767
0.000142282
0.000193248
0.00146375
0.00014176
0.00014265
0.0129462
0.000142993
0.000143035
0.000180925
0.000138719
0.000142916
0.000142317
0.000145696
0.0216307
0.00999626
0.000147808
0.000142142
0.000142705
0.000140797
0.000132617
0.00014156
0.00014228
0.000149223
0.0121425
0.00459304
0.000146487
0.000167921
0.000295913
0.000150209
0.000195843
0.000156848
0.000146433
0.000139567
0.000138191
0.000136904
0.000150069
0.000282561
0.000143633
0.000178848
0.00900151
0.0081922
0.0179103
0.000141896
0.000156763
0.000155091
0.000183529
0.000157063
0.000148676
0.000153079
0.000198729
0.000145887
0.000152107
0.000184692
0.000379218
0.000170677
0.000153913
0.000142281
0.0127644
0.017352
0.0123222
0.000143298
0.000141218
0.000136147
0.00567317
0.0263324
0.000131139
0.000164186
0.000186968
0.000598036
0.000163107
0.000155659
0.00016461
0.000139763
0.000134942
0.000139469
0.000153435
0.00220843
0.000135976
0.000156786
0.000140693
0.000162608
0.0316826
0.00017926
0.0113179
0.0106739
0.00332527
0.00615866
0.000149362
0.000163097
0.000143755
0.0157371
0.000141826
0.00653196
0.000156877
0.0105579
0.000174395
0.0109722
0.013557
0.000158411
0.000140499
0.0106093
0.00729631
0.000141265
0.00892457
0.000153711
0.0001425
0.000156264
0.0160406
0.00013975
8.41951e-05
0.000140081
0.000142958
0.0137797
0.000167181
0.000139514
0.000151881
0.000152343
0.000142223
0.000160439
0.000181383
0.000519876
0.000181414
0.000169484
0.000199242
0.010029
0.000161933
0.00123943
0.000125461
0.00334168
0.000184119
0.000166127
0.000139567
0.000171273
0.000137306
0.01492
0.0111902
0.000145337
0.000152898
0.00017272
0.0148418
0.000171491
0.00745822
0.000145467
0.000132693
0.000139138
0.015019
0.000166436
0.000169588
0.0134314
0.000134995
0.000134296
0.000151365
0.0122686
0.0138861
0.000139242
0.000137731
0.000139742
0.0112319
0.000139153
0.0317082
0.0100878
0.000134108
0.000163646
0.000177798
0.000134527
0.00017189
0.000143433
0.00116291
0.0001871
0.000141161
0.000137296
0.000133644
0.0115278
0.000151254
0.000174599
0.014579
0.00581715
0.000149205
0.0141959
0.000756303
0.00322997
0.000186854
0.000174714
0.000143699
0.0099826
0.000168209
0.000143229
0.000125752
0.0133065
0.000169546
0.000144156
0.000169256
0.000133106
0.000144492
0.000148469
0.000134231
0.0115946
0.000105651
0.000169636
0.000175353
0.000183976
0.000181538
0.000150025
0.00150803
0.0160034
0.023917
0.0165418
0.000148432
0.000146888
0.0148133
0.000133169
0.0144391
0.000145681
0.000137437
0.000168134
0.000177313
0.000169038
0.000177888
0.023149
0.000132204
0.000169475
0.000168978
0.000387382
0.0165551
0.00946232
0.00491763
0.000141543
0.00134213
0.000157771
0.000147344
0.000153032
0.000134323
0.000152967
0.00362315
0.000179057
0.000161054
0.000147544
0.0369208
0.0114185
0.00017702
0.0326894
0.000199956
0.000145207
0.000139257
0.012068
0.000150716
0.00760932
0.0106857
0.0348961
0.000141287
0.00014265
0.000130946
0.000179606
0.000128536
0.000142219
0.000136459
0.00942558
0.000150255
0.000145031