/*--------------------------------*- C++ -*----------------------------------*\
| =========                 |                                                 |
| \\      /  F ield         | OpenFOAM: The Open Source CFD Toolbox           |
|  \\    /   O peration     | Version:  v2012                                 |
|   \\  /    A nd           | Website:  www.openfoam.com                      |
|    \\/     M anipulation  |                                                 |
\*---------------------------------------------------------------------------*/
FoamFile
{
    version     2.0;
    format      ascii;
    class       volScalarField;
    location    "300";
    object      k_0;
}
// * * * * * * * * * * * * * * * * * * * * * * * * * * * * * * * * * * * * * //

dimensions      [0 2 -2 0 0 0 0];


internalField   nonuniform List<scalar> 
15335
(
0.0174477
0.000201283
0.000157146
0.000141909
0.000155235
0.000143273
0.000179859
0.000164225
0.000132468
0.00014562
0.000149479
0.000142584
0.000178077
0.000172231
0.000163082
0.000128512
0.000196974
0.000191566
0.000140934
0.000158263
0.000132573
0.0328969
0.000160619
0.000132731
0.000108392
0.0174893
0.000183714
0.00013676
0.000164928
4.21499e-05
0.000134781
0.000182069
0.000167588
0.000155755
0.000180871
0.000185657
0.000145587
0.00015622
0.000171627
0.000191573
0.000136197
0.0054042
0.000131851
0.000171913
0.00646833
0.00013618
0.000159257
0.000158112
0.000167686
0.000148709
0.000132906
0.000134933
0.000147535
0.000153337
0.0195235
0.00651466
0.000178439
0.000158123
0.00015762
0.0051474
0.000200412
0.000130763
0.000147534
0.000149475
0.000155014
0.0155304
0.00639558
0.00014327
0.000165065
0.000131121
0.000148369
0.000160412
0.000147118
0.00574615
0.000149324
0.00793993
0.000199878
0.000173817
0.000143048
0.000184861
0.0186523
0.000163454
0.000164212
0.000182749
0.000161236
0.0158584
0.000149708
0.000183396
0.000143238
0.000152072
0.0105819
0.000182137
0.00531606
0.00370069
0.000157783
0.000182739
0.000131674
0.0157307
0.000134743
0.0158667
0.000131784
0.000152238
0.000194863
0.000128622
0.00014927
0.000131597
0.00719507
0.000146982
0.000149615
0.000174471
0.000185876
0.000169267
0.000132312
0.000168083
0.000161646
0.000136072
0.000174772
0.00014857
0.0041159
0.00947559
0.000151895
0.000180597
0.00511762
0.000140985
0.000180539
0.000136695
0.000141622
0.0273083
0.000181411
0.000149705
0.000136943
0.000180653
0.000152464
0.0173381
0.000135495
0.00391742
0.000145938
0.000131229
0.00017362
0.000154697
0.000149144
0.0119058
0.000140367
0.0181064
0.00509942
0.000150428
0.0108642
0.000154376
0.00014711
0.000173061
0.000144651
0.015327
0.000128205
0.000156647
0.0122936
0.000144997
0.000183345
0.000146586
0.000135322
0.000160672
0.000139973
0.000152443
0.000147114
0.000169671
0.00015079
0.000141534
0.000135459
0.0172955
0.000135132
0.000141654
0.000152687
0.000143445
0.000149486
0.000145218
0.000157565
0.000156218
0.0187622
0.000135204
0.000182284
0.0156068
0.000149278
0.000146345
0.000157828
0.00015583
0.000155834
0.000188825
0.000183361
0.000147348
0.000147558
0.00683916
0.000150205
0.015467
0.00016812
0.000136125
0.000147118
0.00516948
0.000149249
0.000131173
0.000176831
0.000170148
0.000139029
0.000158181
0.00013615
0.000178907
0.0155842
0.000150324
0.000583079
0.000141357
0.000182129
0.0172322
0.000197884
0.000156287
0.000136383
0.000153384
0.000199859
0.000156957
0.000161585
0.000170697
0.000158203
7.64414e-05
0.000156915
0.000171163
0.0114506
0.000182305
0.00016803
0.00644495
0.000178765
0.000148314
0.000179056
0.000196035
0.000145167
0.000188464
0.0109906
0.000160852
0.000147641
0.000151978
0.000142155
0.0198716
0.00910093
0.000150072
0.00017325
0.000144923
0.000175364
0.000152661
0.0171518
0.000157423
0.00245069
0.000156874
0.00950765
0.00388606
0.000156304
0.00013368
0.000198616
0.000149033
0.000133275
0.0346587
0.000148854
0.000168286
0.012302
0.000133155
0.00838209
0.00248073
0.00935836
0.000158461
0.00576154
0.00737289
0.0122537
0.000133689
0.000200235
0.000149095
0.000185451
0.000128031
0.018393
0.000135822
0.000151018
0.00989852
0.00505591
0.000152674
0.00014695
0.0159455
0.000136623
0.000141971
0.000150365
0.000146944
0.00018526
0.000146962
0.000162378
0.000141865
0.000195956
0.000157074
0.00019675
0.000153336
0.000135244
0.00014375
0.00933458
0.000157394
0.000152283
0.00013549
0.000148903
0.000150432
3.76167e-05
0.000174954
0.0128668
0.000139548
0.0102551
0.000136673
0.000136798
2.27555e-05
0.00788767
0.000179133
0.00480244
0.000152923
0.000163569
0.0184856
0.000136126
0.000148837
0.000135333
0.000135231
0.000149171
0.000160404
0.000144336
0.000153444
0.0169222
0.0120409
0.000157599
0.00448178
0.000189719
0.000135283
0.000135157
0.000135478
0.000136015
0.0184516
0.00109245
0.000156061
0.000171101
0.000131491
0.000148024
0.00015587
0.000173877
0.00550026
0.000162879
0.000173133
0.000183372
0.000163147
0.000187127
0.0075328
0.000176021
0.00923852
0.000153028
0.000153477
0.000176796
0.000135381
0.000151779
0.0167463
0.00405156
0.000153254
0.000148483
0.000135104
0.00014427
0.0149681
0.000143036
0.000135912
0.000157755
0.000143071
0.00133372
0.000147948
0.000150712
0.000149474
0.000168004
0.000142331
0.000147821
0.00014349
0.000160239
0.000144459
0.000134358
0.000136267
0.000130943
0.000127986
0.000143797
0.000177345
0.0109434
0.000181295
0.000164052
0.000176571
0.006498
0.000164676
0.000136458
0.014112
0.00014136
0.000143798
0.000149652
0.00016808
0.000134954
0.000153408
0.020144
0.000152128
0.000145899
0.00012841
0.000141639
0.013463
0.000163376
0.000251569
0.000179364
0.000133425
0.000142123
0.000174665
0.00013304
0.000148614
0.000180097
0.000145691
0.000133355
0.000145607
0.000150012
0.000152136
0.00017461
0.000136018
0.000142257
0.000157235
0.00014454
0.000144702
0.000175662
0.000139054
0.000199352
0.00014372
0.000159519
0.000158567
0.000140991
0.00014431
0.00013666
0.000197993
0.00856156
0.000160069
0.000175265
0.000226014
0.000129454
0.000133009
0.0171117
0.000175648
0.000139013
0.000164636
0.000131785
0.000145685
0.000142018
0.00930179
0.000153346
0.0125172
0.000165565
0.000144303
0.000157072
0.00309623
0.000150507
0.01674
0.000140647
0.00535301
0.000144088
0.00014623
0.000164792
0.00963632
0.000147416
0.000147107
0.000146552
0.000159386
0.000150223
0.000152948
0.000178415
0.00701651
0.000179222
0.000198947
0.000153298
0.000151798
0.000140099
0.0176951
0.00015325
0.00255612
0.000144189
0.000138851
0.000142039
0.000152614
0.00950399
0.000145487
0.000150182
0.000147775
0.000148218
0.000140568
0.000143408
0.0107347
0.00015116
0.000145739
0.000136132
0.000145946
0.000126814
0.000130696
0.000141681
0.000134198
0.0176762
0.0126384
0.0104273
0.000162842
0.000164478
0.000181509
0.000150431
0.0372056
0.000143265
0.000174492
0.000131303
0.000156016
0.000162301
0.000179317
0.000138944
0.00014805
0.000151367
0.000154269
0.00295722
0.000184472
8.85402e-05
0.00013196
0.00014548
0.000142322
0.000183405
0.0135668
0.00538071
0.00593067
0.000153024
0.000134328
0.000649408
0.000142076
0.00395941
0.000150693
0.000135206
0.000144517
0.000150373
0.000176001
0.0192348
0.000141746
0.000181126
0.000164602
0.0281653
0.000162956
0.000133239
0.000152425
0.000163809
0.000176512
0.000141995
0.00819105
0.000143576
0.0109188
0.016762
0.000148861
0.000176906
0.000166248
0.000170297
0.000142611
0.000131281
0.000134732
0.00881602
0.00880776
0.000139002
0.000151847
0.000144674
0.0092085
0.00016541
0.000144402
0.000163507
0.000142905
0.00202745
0.000151543
0.000163263
0.000158474
0.017568
0.0103842
0.0113721
0.000141317
0.00013421
0.000175202
0.000147485
0.000134146
0.000142851
0.000150059
0.000144313
0.0139564
0.00980954
0.00745605
0.000170591
0.000154256
0.000164637
0.00739971
0.0106731
0.015494
0.000159777
0.000135276
0.000136956
0.000152774
0.000138517
0.000157563
0.000138917
0.0258275
0.000158235
0.0178954
0.00013869
0.000195595
0.000156628
0.000162684
0.00798438
0.0136987
0.000157591
0.000136137
0.000172266
0.000146368
0.03194
0.000170525
0.0319879
0.00693928
0.000464844
0.000136549
0.000149446
0.000177356
0.00017446
0.0372885
0.000151567
0.000133644
0.000146517
0.000145997
0.000143165
0.000153027
0.000180724
0.000136701
0.000132909
0.000127994
0.000142527
0.000161481
0.000150953
0.000184739
0.000136352
0.000156525
0.000171945
0.0154401
0.0001954
0.000144147
0.000136177
0.000162183
0.000176318
0.000141854
0.000143515
0.000174068
0.00014441
0.000178113
0.000171533
0.000132382
0.000165027
0.00977487
0.0239253
0.000144225
0.000135495
0.000138484
0.0131757
0.000147878
0.000453371
0.000145601
0.000152896
0.000147481
0.000140789
0.000164094
0.000182659
0.010713
0.000135939
0.00464604
0.000149297
0.000146866
6.53813e-05
0.000142215
0.000146252
0.000153346
0.000157531
0.000138899
0.000174143
0.000143815
0.000144016
0.000141451
0.000180928
0.000162446
0.000138911
0.00689109
0.000174306
0.000133287
0.0235154
0.0139909
0.000178225
0.000138638
0.00015349
0.000141525
0.00016979
0.00017441
0.0001406
0.000158394
0.000148697
0.00868722
0.000248597
0.00014567
0.000160644
0.00649768
0.000146023
0.015756
0.000185228
0.000154055
0.000131862
0.0050422
0.000152096
0.000165059
0.000162464
9.15889e-05
0.000140043
0.000150472
5.98435e-05
0.000142521
0.000159482
0.0190581
0.000185154
0.00020259
0.000156432
0.000143891
0.000133461
0.000139963
0.000145765
0.000146243
0.000163751
0.000161848
0.00665367
0.00997405
0.000164788
0.00337686
0.01907
0.000182406
0.000143334
0.000136421
0.000135796
0.000149505
0.000132857
0.000150542
0.000141394
0.000145269
0.000145801
0.000132882
0.00831921
0.0186416
0.000141359
0.000183188
0.000143892
0.0153787
0.000159302
0.000181565
0.000140588
0.000167394
0.00014881
0.000161542
0.000148641
0.000130492
0.00778617
0.000146977
0.000170041
0.00320013
0.00017764
0.0173203
0.00013991
0.000237984
0.000133125
0.00794721
0.000143838
0.000132805
0.000158308
0.000156845
0.00016855
0.000142191
0.000152506
0.000176374
0.000153238
0.000156144
0.000161711
0.000194726
0.000134138
0.00010287
0.00019043
0.000143615
0.000135908
0.000147698
0.0187395
0.00015434
0.000147481
0.000186698
0.000178523
0.000157975
0.00645718
0.00659904
0.000144157
0.000169235
0.000146854
0.015389
0.000154252
0.000143927
0.0001959
0.000155566
0.000186653
0.00016152
0.000143664
0.000180507
3.7682e-05
0.000147257
0.000161091
0.000149908
0.00014431
0.00660737
0.000163763
0.000164103
0.000175821
0.000159318
0.000147079
0.000197163
0.000135717
0.000152101
0.000145523
0.000177293
0.00014764
0.000146197
0.000143036
0.000178682
0.00014469
0.000152027
0.000135606
0.000172165
0.0136399
0.000153408
0.000201081
0.000136275
0.000139291
0.000135506
0.00309163
0.00013497
0.000133701
0.00013633
0.000132955
0.000150923
0.00017746
0.000142436
0.000165454
0.000133715
0.000142943
0.0001399
0.000128348
0.0161724
0.000149996
0.000132389
0.000140674
0.000143522
0.000133386
0.000157883
0.000153314
0.000142426
0.000149683
0.0209464
0.000143034
0.00838713
0.000136225
0.000143033
0.000102166
0.000133285
0.000113777
0.000492354
0.00504719
0.0169664
0.000144937
0.000173828
0.000181545
0.000171375
0.000152084
0.000143027
0.000190457
0.000142631
0.000149008
0.000151147
0.000140103
5.56994e-05
0.000150167
4.1339e-05
0.000154266
0.000131045
0.000146484
0.000143543
0.000152238
0.000140632
0.000186143
0.0052462
0.000146621
0.000171825
0.000143643
0.000131213
0.000129669
0.000154625
0.0110961
0.00013638
0.0140597
0.0113702
0.000139833
0.0146995
0.000144883
0.000144133
0.000179085
0.000149793
0.000169139
0.000141721
0.00826672
0.000142726
0.000165805
0.000131295
0.00183045
0.000150077
0.000149711
0.000140599
0.000171297
0.000136295
0.000178594
0.000140603
0.000139824
0.000135523
0.000188126
3.77132e-05
0.00787803
0.000141782
0.0140123
0.00819585
0.000164795
7.7475e-05
0.00282262
0.0155409
0.000177924
0.00100854
0.00701125
0.000134168
0.000135416
0.000163625
0.000142462
0.000148017
0.000175075
0.000171667
0.0162523
0.000146479
0.0135205
0.000145665
0.000182607
0.0157228
0.000162666
0.000135725
0.000194875
0.00015348
0.000147983
0.0105638
0.000153435
0.000148501
0.00014008
0.0139651
0.000131103
0.0101641
0.000143325
0.000175001
0.000165678
0.000168581
0.0124477
0.000150647
0.0181699
0.000171251
0.000131184
0.000194878
0.000148016
0.000171715
0.000131147
0.000157432
0.000350591
0.0147721
0.00013145
0.000200407
0.010026
0.000131232
0.0060153
0.000186269
0.000178841
0.0174013
0.0148233
0.000134621
8.6344e-05
0.000187599
0.000198891
0.000157619
0.000146352
0.000157219
0.000138526
0.00777789
0.000134703
0.000147971
0.000131524
0.00015063
0.000153778
0.00017251
0.000337951
0.0138826
0.000146282
0.000174285
0.000144706
0.00988329
0.000149683
0.000149441
0.000185606
0.000143273
0.000137753
0.000147612
0.000128907
0.00014437
0.000155154
0.000159744
0.000133287
0.000148474
0.000143384
0.0127156
0.000142085
0.000140839
0.000143287
0.000149444
0.0107141
0.000132479
0.000140068
0.000198083
0.00120618
0.000132442
0.000195342
0.000147441
0.00390594
0.000172875
0.00779352
0.000153171
0.000145769
0.018613
0.000148117
0.000187212
0.000142855
0.000173575
0.000141074
0.000176494
0.00017422
0.000143147
0.00162899
0.000145892
0.0181153
0.000177674
0.000138692
0.000149643
0.000132983
0.000155072
0.00014751
0.000222091
0.00499584
0.000130557
0.000146519
0.000149486
0.000140078
0.0001428
0.00015623
0.000135334
0.000176577
0.0121323
0.000143711
0.000138515
0.00016581
0.000134777
0.000149037
0.000135227
0.018962
0.000151331
0.000818256
0.0086321
0.000181385
0.000143209
0.00014636
0.00349688
0.000152148
0.000147489
0.00922667
0.00908476
0.000149789
0.000158084
0.000142153
0.000150804
0.000158429
0.000167708
0.000138463
0.00276641
0.0163654
0.000170812
0.000147195
0.0109831
0.0179755
0.000181983
0.000153683
0.00014273
0.000144252
0.000131861
0.000142318
0.000149106
0.000201114
0.000147468
0.000145497
0.000155677
0.000140144
0.0131095
0.000140707
0.000137363
0.000131925
0.000148745
0.000160887
0.00017325
0.000143337
0.00014686
0.000187725
0.000133433
0.000146076
0.000141077
0.000151035
0.00907759
0.0115931
0.00014075
0.000145358
0.0143838
0.000172541
0.000136601
0.000128753
0.000131065
0.000140665
0.000164342
0.000142096
0.000137475
0.000146293
0.000148023
0.00134184
0.000175143
0.000152159
0.000170029
0.0125753
0.00015385
0.000191284
0.000174266
0.008056
0.000141129
0.00019931
0.000167643
0.0170754
0.00284243
0.000183964
0.0156553
0.000201956
0.000151024
0.000199952
0.000151773
0.0168999
0.0176297
0.00765599
0.0139966
0.00013131
0.00432416
0.000146494
0.000131398
0.000168257
0.00959886
0.000155105
0.000166996
0.000143963
0.000131214
0.000152148
0.000146728
0.000152104
0.00013248
0.00667152
0.000171667
0.000163086
0.00013892
0.000135147
0.000164698
0.000141808
0.000164369
0.000146885
0.000143368
0.000132524
0.000147284
0.00014802
0.000145854
0.00014182
0.000131631
0.00017837
0.000140432
0.000175128
0.00888338
0.00223627
0.000106213
0.00019001
0.000135038
0.0176984
0.000147891
0.0130969
0.000135439
0.000131396
0.00014252
0.000106381
0.000144829
0.000146889
0.0125702
0.000191781
0.0105448
0.0189232
0.000200133
0.000272263
0.000143183
0.000147591
0.00931327
0.00249202
0.000142015
0.000142983
0.000138293
0.000302523
0.000147437
0.0087502
0.00538361
0.019144
0.012039
0.000159054
0.00015779
0.0057659
0.00991714
0.0142726
0.000144618
0.00732033
0.00014309
0.00654791
0.000131705
0.000142538
0.000142907
0.000133045
0.0167142
0.000137941
0.000173881
0.000180956
0.0244768
0.000143912
0.00015775
0.000163354
0.0127406
0.0110547
0.000161127
0.000184743
0.00449948
0.000131144
0.000132152
0.00015912
0.000166944
0.000181534
0.000183193
0.000146264
0.000171519
0.0011728
0.000135013
0.00013831
0.00173268
0.00802085
0.000161327
0.000148634
0.000175065
0.0104689
0.000146488
0.00016273
0.000132784
0.000173422
0.000168979
0.0123251
0.0118733
0.000145883
0.000182414
0.000142069
0.000161257
0.000152871
0.000164274
0.000148815
0.000146615
0.0180452
0.000169115
0.000170798
0.000152117
0.000151382
0.000181544
0.00191325
0.000178086
0.000169458
6.7174e-05
0.00287727
0.000210784
0.000152306
0.000167127
0.00828373
0.00013221
0.000141122
0.000170712
0.00801989
0.000134663
0.000138101
0.00186006
0.000182494
0.000140388
0.000163374
0.000143292
0.000172875
0.000254855
0.000132855
0.0111489
0.000729866
0.000139988
0.00014614
0.000138159
0.00013331
0.00013485
0.000173887
0.0106527
0.00013496
0.000148764
0.000180509
0.00387267
0.000128784
8.54897e-05
0.000135796
0.000133296
0.000141241
0.000140141
0.000142758
0.000181152
0.000149607
0.0100175
0.0068067
0.000172419
0.00966347
0.00179826
0.000153309
0.000142722
0.00023928
0.00013288
0.000136438
0.000156421
0.0100275
0.000195302
0.0260984
0.0144433
0.0176964
0.000142413
0.00768779
0.000162729
0.000729336
0.0185851
0.00014197
0.000141417
0.000157032
0.000138418
0.00014725
0.000188227
0.0161887
0.000142699
0.000161506
0.000133473
0.0105774
0.000140395
0.0156954
0.00014149
0.000112566
0.0162962
0.000176191
0.000155087
0.000153476
0.000136097
0.000188473
0.000187566
0.000136205
0.000141399
0.000101564
0.00017082
0.000186961
0.000181828
0.0123266
0.000152663
0.000155689
0.000144441
0.00014547
0.000162735
0.000143153
0.000138215
0.000138036
0.000144643
0.000140251
0.000142935
0.000989921
0.000146484
0.000141115
0.00155
0.000117546
0.000147569
0.000176605
0.0114782
0.000155219
0.000149581
0.015673
0.000149836
0.0023786
0.0141759
0.000142357
0.000155917
0.0109905
0.000142358
0.000179991
0.000185343
0.000179817
0.000140112
0.0109325
0.00879478
0.000151928
0.000151793
0.000177951
0.000114744
0.000128006
0.000140167
0.000143213
0.00015255
0.0177997
0.0182726
0.00548379
0.0118969
0.0104956
0.000181705
0.000167378
0.000266414
0.00012962
0.000161543
0.000170259
0.000158435
0.000133703
0.00017042
0.000137559
0.000144848
0.00290903
0.00811187
0.000170291
0.00422454
0.000149434
0.000152227
0.000197366
0.00863035
0.000128374
0.0115676
0.000149662
0.000137659
0.012077
0.000168208
0.000178872
0.000133384
0.000158461
0.000188924
0.000148022
0.000168553
0.000157724
0.000176059
0.000145346
8.44995e-05
0.00016545
0.000139526
0.000146728
0.000981605
0.000580216
0.000155998
0.000168942
0.0154324
0.0166465
0.000131416
0.000180242
0.000161572
0.000110629
0.000146904
0.000136426
0.000147624
0.000149055
0.00677803
0.000153455
0.000197321
0.000142917
0.000146915
0.00859464
0.000142575
0.000146032
0.000168803
0.000155174
0.000145352
0.000143684
0.000150908
0.000168786
0.000113264
0.000158057
0.000170232
0.000148383
0.000142879
0.000146657
0.000145166
0.00023863
0.000151709
0.0176321
0.000151672
0.000143048
0.000170995
0.000146122
0.000153375
0.000150771
0.000142185
0.000143883
0.00014453
0.0163571
0.000142122
0.000163341
0.000149334
0.0354375
0.00534898
0.0283898
0.00014588
0.00492241
0.000144826
0.000163878
0.000142929
0.000141433
0.0085297
0.000168373
0.000146424
0.000174172
0.0141591
0.000152309
0.0124618
0.000150548
0.00127178
0.0127602
0.000145694
0.000142581
0.000146123
0.000169834
0.000138626
0.000137827
0.000142664
0.00988425
0.000527116
0.000186384
0.000149547
0.00014344
0.000766986
0.0144712
0.0241114
0.00702347
0.0157912
0.000139082
0.00198444
0.000145833
0.000164075
0.000714351
0.000135635
0.000145788
0.000149882
0.00996141
0.000616705
0.0180768
0.000140052
0.000151885
0.00015331
0.000185423
0.0149527
0.000156675
0.000172876
0.000146536
0.000160791
0.0001573
0.000134778
0.0165694
0.0052119
0.000149276
0.000153122
0.000153628
0.000150969
0.0153747
0.000154
0.000140877
0.000143317
0.000141192
0.000148831
0.0112413
0.000183835
0.000139623
0.000169758
0.000145024
0.00014191
0.000148044
0.000140769
0.000143149
0.0113409
0.000169021
0.000168567
0.000139757
0.000178713
0.000133181
0.000139809
0.000138579
0.000138939
0.000132938
0.000146734
0.0113287
0.000137878
0.0144649
0.0196988
0.000180427
0.000164822
0.000143368
0.00936152
0.0195713
0.000147088
0.00747682
0.000174702
0.00206834
0.000138708
0.00019111
0.000168745
0.000139971
0.00014538
0.000150491
0.000201197
0.000141993
0.000141887
0.000139445
0.000174927
0.000147418
0.000142106
0.000175682
0.000156682
0.000135913
0.000144122
0.00204106
0.000142341
0.0139404
0.000152754
0.000155308
0.000181278
0.0122824
0.00257754
0.000147547
0.000144372
0.00014527
0.00014761
0.0145112
0.00982593
0.000153561
0.000138077
0.00299439
0.000151009
0.000149003
0.000133079
0.000115004
0.000152209
0.000187165
0.0160988
0.000149938
0.000193679
0.00707856
0.000174027
0.000180172
0.000182927
0.00849714
0.00561034
0.000149955
0.0112204
0.000150771
0.000167194
0.00288226
0.000155557
0.00014577
0.000147465
0.00113552
0.0156915
0.0119309
0.000149366
0.000143161
0.000155401
0.000151726
0.0094326
0.000133091
0.015192
0.000187147
0.000141207
0.000140036
0.00694692
0.000156142
0.00424561
0.000151748
0.00015571
0.000166776
0.000193496
0.000143134
0.000156736
0.0103832
0.0278582
0.00558736
0.0104688
0.00013993
0.0037822
0.000140275
0.000154317
0.00015009
0.000215698
0.000133301
0.000167785
0.00014452
0.000146514
0.000175713
0.0155985
0.0134267
0.000151013
0.000177192
0.00783066
0.000139421
0.000143143
0.000141837
0.000145028
0.000191631
0.000147714
0.000144869
0.00605377
0.000145326
0.0111461
0.0107525
0.000174549
0.000134532
0.000132082
0.000163023
0.000158318
0.000154606
0.000138948
0.000137881
0.000134501
0.000171434
0.00945533
0.000194882
0.000143917
6.77136e-05
0.000139191
0.000190765
0.0123154
0.000175329
0.000145875
0.000171113
8.80192e-05
0.000139272
0.000151258
0.000181404
0.000145943
0.0195333
0.000186652
0.000135231
0.000395979
0.000173468
0.000146652
0.000140739
0.000136466
0.000143116
0.000146741
0.000134665
0.000145663
0.000139579
0.000155434
0.000143801
0.000148028
0.000141968
0.00430784
0.000151577
0.000135958
0.00536503
0.000196397
0.0151462
0.000135899
0.000140152
0.000144423
0.000134497
0.000135477
0.0001453
0.000182132
0.000184692
0.00015199
0.000141956
0.000142566
0.000152555
0.00016954
0.000148582
0.000135969
0.000187646
0.000146886
0.000143414
0.000184467
0.0180701
0.0182979
0.000159729
0.000141958
0.000159642
0.0110523
0.000141202
0.000145285
0.000155198
0.000144916
0.00937852
0.00014703
0.000143676
0.000135851
0.000143321
0.0139488
0.000139815
0.000135444
0.0133573
0.000117703
0.0142291
0.000133454
0.013741
0.000135161
0.000153482
0.000141309
0.0158098
0.000136705
0.000158047
0.000157747
0.000158752
0.000155875
0.000170188
0.000147517
0.00977602
0.000156758
0.00019579
0.000146683
0.000156051
0.00596129
0.000157089
0.000172517
0.000139361
0.000139193
0.000149634
0.000160815
0.000164227
0.0181884
0.0357953
0.000140576
0.000135082
0.0137879
0.000142444
0.000193396
0.0148846
0.00937225
0.00592236
0.000963151
0.0107087
0.000133425
0.00101633
0.000161985
0.000397208
0.000160829
0.000181942
0.00100603
0.000147737
0.000135198
0.000140577
0.000142272
0.00592568
0.00608403
0.000161463
0.000161172
0.000128564
0.000138369
0.000128603
0.000130786
0.000141135
0.00015474
0.000139259
0.000142474
0.000160407
0.00947409
0.0070107
0.000142589
0.000180037
0.000140875
0.00014439
0.00017297
0.000153986
0.000156226
0.0010691
0.000130896
0.00390942
0.000138297
0.000137449
0.000151337
0.000135615
0.0145979
0.0134436
0.000161686
0.000151074
0.000132145
0.000148944
0.000131899
0.000147693
0.000168128
0.000157684
0.00019057
0.000196378
0.000170582
0.000170891
0.000162295
0.00782765
0.000158076
0.000158262
0.000147854
0.000159072
0.0001667
0.00124635
0.000155344
0.000126143
0.000137481
0.000151652
0.000182522
0.000141487
0.000188208
0.000145981
0.000132167
0.00016709
0.0124942
0.000145467
0.000149136
0.0109857
0.000184394
0.000196835
0.000158965
0.000184549
0.00588547
0.000152965
0.000141914
0.0135372
0.000173525
0.000136281
0.00583035
0.000130033
0.0154911
0.000158067
0.000188919
0.000146871
0.000133824
0.000200581
0.000151595
0.000175062
0.0123968
0.000170891
0.0020376
0.000175779
0.017564
0.00933005
0.000143254
0.000143244
0.000142446
0.0181167
0.0125262
0.0133823
0.0137925
0.0147116
0.0140222
0.000144044
0.000147081
0.00014092
0.0201088
0.0155457
0.00015429
0.0089102
0.000144403
0.013266
0.000145681
0.00014863
0.0109694
0.000146751
0.000146643
0.000195432
0.000155556
0.000152391
0.000148801
0.000152676
0.000177301
0.00637162
0.000142509
0.000140496
0.000187183
0.0120207
0.00175416
0.000141327
0.000148587
0.000172816
0.000136095
0.000166166
0.00583442
0.000159984
0.000179475
9.00316e-05
0.000134485
0.00982182
0.000136213
0.000170118
0.000143833
0.000151858
0.0100999
0.000185543
0.000145071
0.000141363
0.000142439
0.00018109
0.000170693
0.00012809
0.000142397
0.000149912
0.000161276
0.000156549
0.000147277
0.000150424
0.000159661
0.000134606
0.0147476
0.000180891
0.000151318
0.000137957
5.33386e-05
6.00245e-06
0.000160686
0.00927576
0.000912351
0.00018406
0.0117699
0.000144262
0.00673465
0.00014318
0.00631846
0.000138339
0.000170913
0.000137998
0.0159594
0.0135687
0.000176172
0.000141426
0.0132622
0.0230958
0.00844941
0.000145757
0.000178304
0.00016344
0.0116769
0.000169898
0.0159377
0.000143782
0.000143088
0.000162238
0.000188084
0.00794222
0.000160357
0.000152802
0.0112385
0.000170023
0.000152304
0.00015311
0.000139909
0.0133218
0.000147185
0.000138419
0.000146263
0.0002519
0.000192049
0.00013518
0.00139612
0.0122103
0.000138011
0.000139902
0.000151797
0.000143376
0.00326747
0.00014137
0.00019547
0.0119358
0.000140098
0.000157007
0.00971952
0.000172204
0.000143707
0.00014133
0.00900764
0.000135775
0.000138116
0.000175972
0.00994506
0.000164557
0.00200972
0.000147123
0.00988425
0.000153635
0.000194891
0.000140234
0.000142286
0.0109995
0.000162988
0.000144634
0.0115788
0.000173206
0.0127706
0.0116052
0.00714791
0.00012557
0.000150711
0.000153253
0.00014008
0.000141139
0.000137654
0.0065512
0.00373487
0.0109262
0.000152915
0.000194042
0.000185188
0.000147363
0.000143787
0.000142528
0.000168316
0.0147657
0.000148824
0.00537862
0.000160042
0.00014637
0.000139582
0.000170401
0.00342718
0.000158653
0.000151194
0.0296733
0.000675713
0.000183245
0.000160078
0.000152604
0.000142219
0.0219105
0.000139091
0.00586921
0.000136008
0.000140706
0.0157453
0.00013386
0.000168352
0.000179757
0.00753845
0.000140892
0.000136101
0.010289
0.000147373
0.000142041
0.000145578
0.000162439
7.77394e-05
0.0207858
0.000143454
0.000138046
0.000166684
0.000472396
0.000145125
0.00551834
0.000143178
0.000172468
0.000163147
0.0269417
0.00014308
0.000139558
0.00015152
0.000143415
0.000167499
0.000164423
0.000139765
0.000142577
0.0156354
0.00487108
0.000139208
0.000138814
0.000130912
0.0133012
0.000150178
0.000151529
0.0107935
0.000184867
0.000143829
0.0110937
0.000156168
0.00014775
0.000166893
0.000145575
0.000138951
0.000142138
0.000139167
0.000135961
0.000143806
0.000138138
0.000151521
0.000136944
0.000145999
0.000116632
0.000173406
0.000173124
0.000144945
0.00363204
0.000145548
0.000156925
0.000147327
0.000143927
0.000170881
0.00017895
0.000142335
0.000135511
0.00016254
0.000166177
0.000145065
0.000429185
0.00844618
0.0129398
0.000346405
0.000133845
0.0129389
0.0104124
0.000192549
0.000169808
0.00870655
0.000151357
0.000147771
0.000139277
0.000147059
0.000148392
0.000142022
0.000159657
0.000141878
0.000137673
0.0079149
0.000169668
0.000169277
0.000139901
0.000172874
0.000154672
0.000142501
0.000143853
0.000136645
0.000146929
0.000145388
0.000146172
0.000172285
0.0130435
0.000135716
0.0118581
0.0113338
0.000142767
0.000142282
0.000193245
0.00146456
0.00014176
0.00014265
0.012946
0.000142993
0.000143035
0.000180925
0.000138719
0.000142916
0.000142317
0.000145696
0.0216317
0.00999618
0.000147808
0.000142142
0.000142705
0.000140797
0.000132617
0.00014156
0.00014228
0.000149223
0.0121422
0.00459327
0.000146487
0.000167923
0.000295924
0.000150209
0.000195855
0.000156848
0.000146433
0.000139567
0.000138191
0.000136904
0.000150069
0.000282563
0.000143633
0.000178848
0.00900152
0.00819148
0.0179112
0.000141896
0.000156763
0.000155091
0.00018353
0.000157063
0.000148676
0.000153079
0.000198722
0.000145887
0.000152107
0.000184689
0.00037922
0.000170677
0.000153913
0.000142281
0.012764
0.0173527
0.0123223
0.000143298
0.000141218
0.000136147
0.00567317
0.0263309
0.000131139
0.000164186
0.000186969
0.000597993
0.000163106
0.000155659
0.000164599
0.000139763
0.000134942
0.000139469
0.000153435
0.00220873
0.000135976
0.000156786
0.000140693
0.00016261
0.0316825
0.00017926
0.0113176
0.0106745
0.00332466
0.00615866
0.000149362
0.000163097
0.000143755
0.015737
0.000141826
0.00653298
0.000156877
0.0105592
0.000174395
0.0109731
0.0135565
0.000158411
0.000140499
0.0106095
0.00729584
0.000141265
0.00892422
0.000153711
0.0001425
0.000156264
0.0160406
0.00013975
8.41976e-05
0.000140081
0.000142958
0.0137797
0.000167181
0.000139515
0.000151881
0.000152342
0.000142217
0.000160439
0.000181383
0.000520163
0.000181414
0.000169484
0.000199234
0.0100292
0.000161933
0.00123978
0.000125511
0.00334128
0.000184118
0.000165988
0.000139567
0.000171273
0.000137306
0.0149199
0.0111901
0.000145337
0.000152898
0.00017272
0.0148418
0.000171491
0.00745823
0.000145469
0.000132693
0.000139131
0.0150192
0.000166436
0.000169588
0.0134312
0.000134995
0.000134296
0.000151365
0.0122687
0.0138859
0.000139242
0.000137731
0.000139742
0.0112318
0.000139153
0.0317081
0.010088
0.000134108
0.000163646
0.000177798
0.000134527
0.00017189
0.000143433
0.0011619
0.000187096
0.000141161
0.000137296
0.000133644
0.0115277
0.000151254
0.000174598
0.0145791
0.00581728
0.000149205
0.014196
0.000756153
0.00323012
0.000186855
0.000174714
0.000143699
0.00998269
0.000168209
0.000143229
0.000125737
0.0133063
0.000169546
0.000144156
0.000169252
0.000133106
0.000144492
0.000148469
0.000134231
0.0115945
0.00010476
0.000169636
0.000175353
0.000183974
0.000181538
0.000150025
0.00150802
0.0160034
0.0239171
0.0165417
0.000148432
0.000146888
0.0148172
0.000133169
0.0144393
0.000145681
0.000137437
0.000168136
0.000177313
0.000169038
0.000177888
0.0231489
0.000132204
0.000169475
0.000168978
0.000387326
0.0165553
0.00946246
0.00491703
0.000141543
0.00134238
0.000157771
0.000147344
0.000153012
0.000134323
0.000152967
0.00362275
0.000179057
0.000161054
0.000147553
0.036921
0.0114192
0.00017702
0.0326896
0.000199952
0.000145209
0.000139257
0.0120676
0.000150716
0.00760962
0.0106859
0.0348962
0.000141287
0.00014265
0.00013094
0.000179607
0.000128536
0.000142219
0.000136459
0.00942519
0.000150255
0.000145031
0.00354589