/*--------------------------------*- C++ -*----------------------------------*\
| =========                 |                                                 |
| \\      /  F ield         | OpenFOAM: The Open Source CFD Toolbox           |
|  \\    /   O peration     | Version:  v2012                                 |
|   \\  /    A nd           | Website:  www.openfoam.com                      |
|    \\/     M anipulation  |                                                 |
\*---------------------------------------------------------------------------*/
FoamFile
{
    version     2.0;
    format      ascii;
    class       volScalarField;
    location    "300";
    object      nut;
}
// * * * * * * * * * * * * * * * * * * * * * * * * * * * * * * * * * * * * * //

dimensions      [0 2 -1 0 0 0 0];


internalField   nonuniform List<scalar> 
15335
(
0.00612506
0.00113353
0.000734461
0.00585289
0.00556601
0.0058305
0.00235414
0.00624472
0.00580943
0.0059121
0.00588914
0.00584526
0.00258471
0.00320118
0.004642
0.00579574
0.001244
0.00136135
0.00582985
0.00525004
0.00581042
0.0070554
0.00446572
0.00581468
0.000582432
0.00580582
0.00204804
0.00583949
0.00441169
0.000861769
0.00582592
0.00224434
0.00642092
0.00537674
0.00238884
0.00191987
0.00591305
0.00528829
0.00299856
0.00135427
0.00581894
0.00230591
0.00579969
0.0034704
0.0182912
0.00582791
0.00469314
0.00631655
0.00403391
0.00598153
0.00581843
0.00583309
0.00591222
0.00544163
0.00222057
0.0192024
0.00148391
0.00500295
0.00515616
8.48912e-05
0.00117167
0.00584851
0.00591128
0.00581882
0.00518601
0.00584804
0.0179779
0.00585939
0.00386559
0.0057969
0.0055861
0.00436818
0.00591459
0.0159759
0.00585781
0.00468514
0.00117857
0.00649612
0.00595937
0.00201961
0.00627015
0.00463861
0.00453762
0.00230195
0.00495257
0.00155704
0.00581457
0.00209974
0.00583047
0.0055687
0.00197641
0.00251517
0.014718
0.00175551
0.0053053
0.00230422
0.00580066
0.00590424
0.00582683
0.00591783
0.00580191
0.00566762
0.00129354
0.0057983
0.00610425
0.00580049
0.000484875
0.00588163
0.00561099
0.00265803
0.00654924
0.00383032
0.00530435
0.00629671
0.00622883
0.00583053
0.00268646
0.00605668
0.00179042
0.00145318
0.00569605
0.00239738
0.00220675
0.00583181
0.00241876
0.00584591
0.00583077
0.0057563
0.00233621
0.00562456
0.00585517
0.00239287
0.00613994
0.00612058
0.00585495
0.0111732
0.00590599
0.00579786
0.00319623
0.00548501
0.00589592
0.0053403
0.00582592
0.00604012
0.00206164
0.00586189
0.00594113
0.00486934
0.00590991
0.00301263
0.0060268
0.00428754
0.00578452
0.00543066
0.00539358
0.00590885
0.00225255
0.00588667
0.00582737
0.00500557
0.0058388
0.00546246
0.00591545
0.0037286
0.00520959
0.00584705
0.00583451
0.00450595
0.00585854
0.00582697
0.00575504
0.00589566
0.00588898
0.00591062
0.00528432
0.00548601
0.00626944
0.00585796
0.00233441
0.00589799
0.00589369
0.00567382
0.00612997
0.00550969
0.00507145
0.00146163
0.00225497
0.00573566
0.00592336
0.000551953
0.00617216
0.00585296
0.00399179
0.00581877
0.00591379
0.00214856
0.00589403
0.00585518
0.00258876
0.000816766
0.00581732
0.00523542
0.00583926
0.00258842
0.00583472
0.00553023
0.000775892
0.00582895
0.00223846
0.00611245
0.00122234
0.00519228
0.00582442
0.00524877
0.0011701
0.00536312
0.00618834
0.00368621
0.0061494
0.00209893
0.00541392
0.0034514
0.00484422
0.00233454
0.00625349
0.000657267
0.00220635
0.00589218
0.0025226
0.00125281
0.00579652
0.00146258
0.00425842
0.00493459
0.00591305
0.00579017
0.00589939
0.0196875
0.00141345
0.00584069
0.0030163
0.00586377
0.00295151
0.00575583
0.00604812
0.00487802
0.00783321
0.00538021
0.004401
0.00181299
0.00546284
0.00583367
0.00120992
0.00551132
0.00581775
0.00777683
0.00587599
0.00637853
0.00517814
0.0058159
0.00303751
0.00131597
0.00167777
0.000560324
0.0020625
0.000986119
0.00539569
0.00581374
0.00115935
0.0058975
0.00155165
0.00578304
0.00619581
0.00586247
0.00582832
0.00337179
0.0001178
0.00541067
0.00591372
0.00591007
0.00583403
0.00583685
0.0058489
0.00590927
0.00166979
0.00590951
0.00480119
0.0058501
0.0012018
0.00538404
0.00122176
0.00570894
0.00583047
0.00590055
0.00193443
0.00534319
0.00578008
0.00583314
0.00590211
0.00584371
0.00112782
0.00262615
0.0121932
0.00535902
0.00516726
0.00583344
0.00583826
0.000275401
0.0013805
0.00226283
0.000210676
0.00574436
0.00400253
0.00624538
0.00582888
0.00553617
0.00586924
0.00586396
0.00589726
0.00613566
0.00585663
0.00607523
0.0142063
0.00516224
0.00532507
0.00146254
0.00145164
0.00586351
0.00587057
0.0058793
0.00582026
0.0158911
0.000768759
0.00516433
0.00365316
0.00579945
0.00592502
0.00550799
0.00306771
0.00238242
0.00458887
0.00275749
0.00172279
0.00395572
0.00657421
0.00289547
0.0028451
0.00428029
0.00573154
0.00570659
0.00273456
0.00586888
0.0060719
0.00563326
0.00524362
0.00571553
0.00570287
0.00587157
0.00588286
0.0207665
0.00583039
0.00581709
0.00511816
0.0058308
0.00571584
0.00561595
0.00584913
0.00588928
0.00400545
0.00583056
0.0057317
0.00599551
0.00499374
0.00589203
0.00582219
0.00583412
0.00584352
0.00578196
0.00584571
0.0027454
0.00503375
0.00233802
0.00478238
0.00286752
0.000458433
0.00413963
0.0058264
0.00556524
0.00588745
0.00589973
0.00588879
0.00401122
0.00583149
0.00571218
0.0183002
0.00572983
0.00589234
0.00578911
0.00583553
0.00532912
0.00461173
0.00223834
0.00265131
0.00582164
0.00583596
0.00313746
0.00580403
0.00590673
0.00164618
0.00588778
0.00582149
0.0059014
0.00596827
0.00578695
0.0026644
0.00583129
0.00582978
0.00507224
0.00591026
0.00581268
0.00307691
0.00582455
0.00115943
0.00584421
0.0051516
0.000706842
0.00583237
0.00590798
0.00584705
0.00115227
0.00310539
0.00497956
0.00658763
0.00213802
0.00580954
0.00580428
0.00582115
0.00307539
0.00582445
0.00444717
0.0057996
0.00591376
0.00592965
0.0027282
0.00571072
0.00533423
0.00355962
0.00585308
0.00538364
0.00938364
0.00549241
0.00566793
0.00582769
9.64473e-05
0.00596436
0.00589093
0.00444505
0.00360436
0.00564663
0.00591013
0.00588778
0.00442082
0.00523217
0.00573812
0.00212226
0.0201857
0.00627321
0.00120455
0.00571259
0.00580743
0.00584059
0.00606105
0.00572089
0.00153069
0.00589437
0.00583795
0.00583849
0.00575416
0.00161747
0.00588507
0.00580133
0.00590606
0.00589217
0.00582931
0.00586847
0.00492599
0.00578935
0.00591307
0.0058408
0.0058929
0.00491571
0.0053063
0.00583288
0.00590781
0.00609514
0.00412652
0.00207571
0.00468615
0.00445927
0.00201577
0.00524729
0.00933915
0.00585959
0.00308734
0.00579809
0.00548904
0.00475854
0.00232977
0.00581429
0.00589535
0.00577728
0.00540642
0.00165866
0.00172497
0.00306124
0.00580076
0.00589374
0.00601624
0.00213374
0.00560838
0.000316464
0.000293624
0.00573437
0.00582336
0.00102097
0.00589577
0.00198041
0.00581329
0.00583171
0.00590229
0.00586148
0.00263609
0.0062887
0.00589519
0.00207994
0.00406306
0.00894906
0.00510892
0.00582733
0.00576605
0.00414894
0.00234172
0.00582753
0.00133399
0.00584301
0.00471812
0.00597188
0.00590192
0.00289556
0.003326
0.00374544
0.00587822
0.00579545
0.00582932
0.00148357
0.00174838
0.00581495
0.00574973
0.00585878
0.00250042
0.00345102
0.00589885
0.0045955
0.00585066
0.00376514
0.0058137
0.00465713
0.00457367
0.00592949
0.0031497
0.00451409
0.00582749
0.00579956
0.0030344
0.00591388
0.00579913
0.00588262
0.00597232
0.00587425
0.00546927
0.0043219
0.00114999
0.00368493
0.00541716
0.00443982
0.00150223
0.00244896
0.00588867
0.00507245
0.00582858
0.00585386
0.00568676
0.0002028
0.00610218
0.00581365
0.00723096
0.00522468
0.00313914
0.00583509
0.00120362
0.00505148
0.00470805
0.00107054
0.00561799
0.00529104
0.00582211
0.00274465
0.00589908
0.0147948
0.00371455
0.0137508
0.0198417
0.000587519
0.00583544
0.00588958
0.00283105
0.00308527
0.0106305
0.00582278
0.00581435
0.00604672
0.00591427
0.00585613
0.00573166
0.00225349
0.00585119
0.00580773
0.0057811
0.00582367
0.00463031
0.00597504
0.00193972
0.00583106
0.00496338
0.00343072
0.00587288
0.00122792
0.00587091
0.00586367
0.00476886
0.00295059
0.00583789
0.00586445
0.000619548
0.0058549
0.00273828
0.00362559
0.00580893
0.00623787
0.00159997
0.0133629
0.00585471
0.00583057
0.00583345
0.00444766
0.00614332
0.00071524
0.00590125
0.00573766
0.0059133
0.00588
0.00453967
0.00186324
0.0101323
0.00585911
0.00200569
0.00589542
0.00590484
0.00183104
0.00589545
0.0057492
0.00570958
0.00533238
0.0058135
0.00285717
0.00598241
0.00586291
0.00582965
0.0064236
0.0051143
0.00583734
0.0192303
0.00651123
0.00582325
0.00774525
0.00397197
0.00251269
0.00583607
0.00569264
0.00582996
0.00350484
0.00314834
0.00582611
0.0052756
0.006077
0.00141407
0.000735024
0.005889
0.00615345
0.000425408
0.00591373
0.00543479
0.000419882
0.00606758
0.00580205
0.00024348
0.00545918
0.0041328
0.00476498
0.000722222
0.005819
0.00597003
0.000861862
0.0059002
0.00613845
0.00620902
0.0021935
0.00114222
0.005446
0.00590547
0.00582924
0.00584267
0.0059026
0.00589042
0.00463188
0.00482478
0.0201931
0.0027155
0.00396409
0.00165988
0.00632062
0.00229809
0.0059052
0.00584928
0.00581576
0.00589059
0.0058122
0.00581938
0.00582775
0.0058304
0.00580537
0.00580321
0.00147485
0.0059471
0.0058265
0.00224343
0.00584572
0.00587474
0.00513094
0.00197271
0.00583242
0.0040718
0.0058987
0.00486485
0.005902
0.0058426
0.00132007
0.00537617
0.00374507
0.00156873
0.00653313
0.00581426
0.00583895
0.000378477
0.00581994
0.00116398
0.0058433
0.00580253
0.0052622
0.00174551
0.00391844
0.00583772
0.0053879
0.00235063
0.00541485
0.00547767
0.00483899
0.00128694
0.00582176
0.00100482
0.00141501
0.00585835
0.00583885
0.00591031
0.00600993
0.00536665
0.0061227
0.001835
0.00233634
0.00530281
0.00512615
0.020061
0.00590562
0.00357007
0.00590476
0.00583037
0.00552839
0.00588821
0.00142855
0.00554495
0.00182978
0.00485924
0.00590362
0.00641595
0.000967458
0.00590633
0.00489902
0.0058814
0.00582102
0.0196128
0.00456296
0.00480495
0.00307864
0.00516297
0.00591419
0.00124397
0.00581572
0.00602846
0.00589806
0.00234789
0.00591324
0.0056572
0.00582492
0.00229636
0.00590936
0.00602016
0.00581449
0.00304795
0.00561986
0.00570504
0.00113226
0.00571817
0.0058009
0.00587713
0.00232635
0.0058292
0.00579781
0.00583338
0.00580762
0.00583039
0.00232354
0.00590244
0.00438121
0.00579794
0.00585058
0.00581907
0.00579274
0.0055924
0.00568774
0.00587253
0.00582628
0.0058747
0.00580914
0.00529923
0.00571068
0.0058458
0.00598688
0.011429
0.00589505
0.00141936
0.00582174
0.00590403
0.00468104
0.00580771
0.00488891
0.00102111
0.00214874
0.0060131
0.00591062
0.0025302
0.00236767
0.00307719
0.00578361
0.00590452
0.0014099
0.00579689
0.00585708
0.00576868
0.0058822
0.00175354
0.00566516
0.000930413
0.00564441
0.00579632
0.00590308
0.0058578
0.00545106
0.00582491
0.00181255
0.00531542
0.00590142
0.00350204
0.00584392
0.0058086
0.00582082
0.0053646
0.0030769
0.00584367
0.0055254
0.00540316
0.00581893
0.0211653
0.00591096
0.00589199
0.00266523
0.00588443
0.00384918
0.00589312
0.00146001
0.00590294
0.00342871
0.00580896
0.00128288
0.00586192
0.0058516
0.00588704
0.0035115
0.00581984
0.00262124
0.00588546
0.00584035
0.00581442
0.00658641
0.00038084
0.00149207
0.00589511
0.00567758
0.00138015
0.00447157
0.00249882
0.00876455
0.00521833
0.00225845
0.000642417
0.0196261
0.00582083
0.00581325
0.00457568
0.00583294
0.00604954
0.00255564
0.00292139
0.00598998
0.00603125
0.00560859
0.00590578
0.00223781
0.00581564
0.00470756
0.00583547
0.00129696
0.0057085
0.00589908
0.00347309
0.00570346
0.00590812
0.00583011
0.00562334
0.00580174
0.00508822
0.00584669
0.00310396
0.00412096
0.00383467
0.00355198
0.00578802
0.00604692
0.00364935
0.00580239
0.00128893
0.00589371
0.00349143
0.00580488
0.00534951
0.000400728
0.00576905
0.00581856
0.0010958
0.0017757
0.00580545
0.00523304
0.00656018
0.00659296
0.00603466
0.00473946
0.005801
0.00214478
0.00175611
0.00118918
0.00532461
0.00591264
0.00496845
0.00583843
0.00820765
0.00580136
0.00562371
0.00581838
0.0057866
0.00568057
0.00616881
0.000706137
0.0195882
0.00589527
0.00320554
0.00581141
0.00440342
0.00585003
0.00588865
0.00187018
0.0058765
0.00582553
0.00591147
0.00580604
0.00590488
0.0054211
0.00632901
0.00586821
0.00588113
0.00586294
0.00298333
0.00585647
0.00582896
0.00589799
0.00589225
0.00317702
0.00579542
0.00582807
0.00120307
0.000932228
0.00579546
0.00124157
0.00591456
0.00434816
0.00327548
0.00141801
0.00520699
0.00590292
0.0120792
0.00602985
0.0016339
0.00584784
0.00306755
0.00588327
0.00254654
0.0032619
0.00589002
0.00155041
0.00562103
0.00304294
0.00249044
0.00585374
0.00587899
0.00581446
0.00526926
0.00591449
0.00030985
0.0020999
0.00583322
0.00576092
0.00589239
0.00582019
0.00582958
0.00547946
0.00581313
0.00280056
0.00797946
0.00588629
0.00582078
0.00610889
0.00587992
0.00590087
0.00581191
0.00600076
0.00575455
0.000615042
0.00157015
0.00207854
0.0058155
0.00591223
0.00180936
0.00575709
0.00591037
0.00414077
0.0010171
0.00588454
0.00529792
0.0058403
0.00582855
0.00540778
0.0040414
0.00582064
0.00133684
0.00578888
0.00363413
0.00603708
0.00521119
0.00264836
0.00641781
0.00569588
0.0058287
0.00587703
0.00583271
0.00582778
0.00609152
0.00110876
0.00590857
0.00589442
0.0053827
0.00582855
0.00550212
0.00582505
0.00581017
0.00583218
0.00590387
0.00489294
0.00338176
0.00589239
0.00591377
0.00175597
0.00583067
0.00589023
0.00588468
0.00581705
0.00908084
0.0101981
0.00589631
0.00589259
0.0030704
0.003417
0.00583168
0.00579562
0.00579873
0.00582386
0.00425653
0.00584117
0.00581028
0.00608605
0.00590387
0.00138626
0.00244188
0.00619251
0.00375271
0.0190485
0.00566274
0.0015458
0.00319894
0.00467587
0.000917676
0.00115948
0.00645089
0.00606801
0.00366771
0.00226547
0.0058291
0.00112465
0.00583752
0.00116538
0.00580635
0.006032
0.00590184
0.00370603
0.00584631
0.00581317
0.00449582
0.00589923
0.00579672
0.0039759
0.00178305
0.00541434
0.00403781
0.00586877
0.0057955
0.00578393
0.00590941
0.00576372
0.00585146
0.0198901
0.00360296
0.00366609
0.00580898
0.00581182
0.00436908
0.00591054
0.00447395
0.00591027
0.00589091
0.00585035
0.00590899
0.00590333
0.00590985
0.0058876
0.00582524
0.00274734
0.00582937
0.00316003
0.00489069
0.0014371
0.00331852
0.00142507
0.00581064
0.00589275
0.00533979
0.0115696
0.00583884
0.00581317
0.00583324
0.00341906
0.00591027
0.00590779
0.00484694
0.00133456
0.00349232
0.00628478
0.0010968
0.000410216
0.0058453
0.00591314
0.0205137
0.00148279
0.00583482
0.00584557
0.00585687
0.000927737
0.00591015
0.00332897
0.000311256
0.00609883
0.00415165
0.00511058
0.00532159
0.000318456
0.005056
0.0194946
0.00590748
0.000910888
0.00584673
0.0198631
0.00582482
0.00584736
0.00584808
0.00582298
0.00555939
0.00583193
0.00339705
0.00241806
0.0182883
0.00588639
0.00531057
0.00461534
0.00532892
0.00439817
0.00489887
0.00193216
0.00192904
0.00579946
0.00584172
0.0051179
0.00315713
0.00235735
0.00203685
0.00589425
0.00313506
0.000805993
0.00582815
0.00585522
0.00134164
0.00148683
0.00395609
0.00610568
0.00649676
0.00458763
0.00589686
0.00504035
0.00581253
0.00316908
0.00642665
0.0037499
0.00579882
0.00591106
0.00636238
0.00582841
0.0012583
0.00574437
0.00448891
0.00587519
0.00601307
0.00606296
0.00327231
0.00312553
0.00597242
0.00581969
0.00661505
0.00135536
0.00250697
0.00380909
0.000845608
0.00152179
0.00038025
0.00577751
0.00148155
0.000524966
0.00584101
0.00561468
0.00339284
0.00312132
0.00580806
0.00583447
0.00144761
0.00207669
0.00582315
0.00465514
0.00584681
0.00345417
0.000373267
0.00586119
0.00490666
0.00142905
0.00583125
0.00590573
0.00583384
0.00579742
0.00580938
0.00636714
0.00198135
0.0058106
0.00590482
0.00198976
0.0021575
0.00580407
0.00196924
0.00582923
0.00579691
0.00589542
0.00583033
0.00588196
0.00642184
0.00587871
0.0019836
0.00135729
0.00282274
0.00307716
0.0028841
0.00524314
0.00590373
0.000627612
0.00585952
0.00584795
0.0053409
0.00506726
0.00042445
0.0111619
0.0128695
0.00584166
0.00590105
0.00116227
0.00380734
0.000629019
0.00622332
0.00585265
0.0056279
0.00540015
0.00583381
0.00590725
0.00659538
0.00543699
0.00588096
0.00486418
0.00582634
0.00335027
0.00582926
0.00556787
0.00583146
0.00514001
0.00590851
0.00301385
0.0060483
0.00568185
0.00581261
0.00150108
0.00162162
0.0058456
0.00582562
0.00427851
0.00315541
0.0025249
0.00234893
0.00537295
0.00575355
0.00552286
0.00585411
0.00591069
0.00444166
0.00584554
0.0058321
0.00585909
0.00585964
0.00581897
0.0057826
0.000855819
0.00590183
0.00585027
0.000970855
0.0012869
0.00591355
0.00298775
0.0193191
0.0060414
0.00583051
0.00546619
0.00588277
0.00136544
0.0202394
0.0058495
0.00549543
0.00352293
0.00587282
0.00640396
0.00163396
0.00208756
0.00583262
0.00515767
0.00127602
0.00561489
0.00580273
0.00282054
0.00126432
0.00578306
0.00583262
0.0058612
0.0057624
0.00607842
0.0128539
0.00360979
0.00517904
0.00366676
0.00642464
0.00333334
0.000666027
0.00582064
0.0040975
0.00363569
0.00524423
0.00583201
0.00367885
0.00586024
0.00584976
0.00157729
0.00449578
0.00340448
0.00377754
0.0058794
0.00578586
0.00121998
0.00468129
0.00161597
0.00474129
0.00587183
0.000805634
0.00532649
0.00384883
0.00655849
0.000472661
0.00522917
0.00121258
0.00602601
0.00394265
0.00530979
0.00297227
0.00589283
0.00113519
0.00610767
0.00581602
0.0059088
0.000757971
0.00058078
0.0054996
0.00387476
0.0183751
0.00570727
0.00579922
0.00626733
0.00469369
0.000689149
0.00591512
0.00583981
0.00591395
0.00589924
0.00408171
0.00570316
0.0012195
0.00590344
0.00588905
0.00411708
0.00583063
0.00591266
0.00391805
0.0055703
0.00589301
0.00587218
0.00584997
0.00386361
0.00333626
0.00528321
0.00294868
0.00589186
0.00582942
0.00591409
0.00590941
0.000437318
0.00580504
0.00614994
0.00581232
0.00589599
0.00367703
0.00590558
0.00570765
0.00584449
0.00582694
0.0058431
0.00585769
0.00598965
0.00585599
0.00363242
0.00604826
0.0122376
0.00309135
0.0123743
0.00588688
0.00195794
0.00584918
0.00377558
0.00583235
0.00582669
0.00479295
0.00394226
0.00591001
0.00241037
0.00392236
0.00560042
0.00510955
0.00560358
0.000953777
0.0201298
0.00589914
0.00582802
0.00591353
0.00350417
0.00582152
0.00582548
0.00587551
0.00806545
0.00293112
0.00172595
0.00589062
0.00586473
0.000808428
0.00527771
0.0167368
0.00778975
0.0143391
0.00583747
0.00119929
0.00572482
0.00454556
0.000669288
0.00586181
0.00590061
0.00560537
0.0158775
0.00362955
0.00617068
0.00582574
0.00572314
0.00609291
0.00248105
0.00547495
0.00543627
0.00344814
0.00572015
0.00488535
0.005189
0.00580937
0.00578515
0.00208193
0.00563773
0.00572545
0.00569074
0.00093049
0.00587898
0.00566251
0.00588563
0.00583809
0.00589002
0.00607467
0.0037985
0.00221874
0.00583849
0.00336829
0.00590731
0.00588232
0.00589823
0.00582879
0.0058302
0.00254187
0.0038873
0.00379224
0.00584059
0.00270947
0.00579849
0.00582989
0.00583759
0.00587476
0.00581642
0.0059045
0.00391897
0.00582858
0.0207787
0.0141313
0.00248484
0.00441968
0.00583087
0.00506461
0.020442
0.00591569
0.00112428
0.00659583
0.00787025
0.00582268
0.00143083
0.00389364
0.00582515
0.00560431
0.00584423
0.00116317
0.00582666
0.00582478
0.00582733
0.00283873
0.00590793
0.00589226
0.00316105
0.00541796
0.00583695
0.00587175
0.00717151
0.00583703
0.00558295
0.00574825
0.0047329
0.0024004
0.00521061
0.00170858
0.0059097
0.00585617
0.00588915
0.00590364
0.00563188
0.00290351
0.00569351
0.00583002
0.00312142
0.00584518
0.00590008
0.0058216
0.00312087
0.00607768
0.00161572
0.00596533
0.00588129
0.00101275
0.00416372
0.00263437
0.00221761
0.00198686
0.00479016
0.0172773
0.00560915
0.0193444
0.00585528
0.00396583
0.00218119
0.005533
0.00590643
0.00590896
0.000806016
0.0194089
0.0105931
0.00563711
0.00588894
0.000440099
0.00580671
0.0016372
0.00579772
0.00529159
0.00179456
0.00587455
0.00584238
0.0034518
0.0054008
0.0131937
0.00569246
0.00551931
0.00622386
0.00130233
0.00585839
0.00542516
0.00386021
0.00572668
0.00306967
0.0048648
0.00583114
0.0119217
0.00582006
0.00564457
0.00585986
0.000520761
0.00586724
0.00324505
0.00590038
0.00590038
0.00253178
0.0047817
0.00536826
0.0055829
0.00269472
0.00116757
0.00583671
0.00583068
0.00582659
0.00579528
0.00124402
0.00591295
0.00590545
0.00299544
0.00589608
0.00412255
0.00352238
0.00316922
0.00582499
0.00586926
0.00468035
0.000499322
0.00533317
0.00587323
0.00583242
0.00582899
0.00308582
0.00143514
0.00125958
0.00589649
0.00187552
0.00581434
0.00138369
0.00517059
0.00310574
0.00591177
0.00290303
0.00261419
0.00584459
0.00573086
0.00236491
0.00589166
0.00617858
0.00174084
0.0058042
0.000577141
0.00334919
0.00590513
0.00582393
0.0058241
0.00582869
0.00573744
0.00587693
0.00590799
0.00581627
0.00554424
0.0058605
0.00590317
0.00583131
0.00254136
0.00581655
0.00582593
0.0164463
0.0012529
0.00573644
0.00582665
0.00581937
0.00579891
0.00579402
0.00585946
0.0058807
0.00214638
0.00174887
0.00599464
0.00583296
0.0058311
0.00576497
0.0038096
0.00590601
0.00583323
0.00161515
0.00591461
0.00590232
0.000932158
0.00581
0.00621805
0.00510594
0.00582482
0.00498456
0.00393366
0.00589517
0.00588237
0.00557044
0.00590011
0.00269986
0.00574937
0.00584981
0.00582851
0.00590077
0.0190195
0.00582257
0.00583688
0.0154157
0.00244073
0.00541082
0.00579747
0.00357779
0.00580414
0.00539534
0.00582474
0.00588425
0.00583069
0.00481947
0.00511015
0.00522816
0.00549942
0.00370736
0.00591366
0.00310419
0.00543321
0.00124022
0.00590841
0.00549536
0.00242435
0.00528076
0.00307144
0.00582499
0.00581876
0.0058305
0.00495816
0.00339383
0.00616448
0.0125766
0.00585125
0.00585975
0.0212049
0.00583459
0.00133278
0.00567164
0.00491935
0.0187513
0.000779384
0.00502724
0.00579728
0.00151661
0.00481946
0.000471458
0.00437412
0.00234829
0.000725031
0.00591255
0.00583416
0.00588233
0.00583036
0.0186638
0.00359299
0.00486422
0.000664615
0.00579847
0.00583559
0.00474154
0.000474492
0.00583529
0.00560509
0.00582604
0.00585133
0.00500014
0.00241101
0.000710803
0.00586817
0.00247239
0.00588667
0.00586125
0.00272878
0.00566353
0.00548009
0.000725793
0.00582998
0.00231844
0.0058127
0.00587516
0.00583037
0.00583533
0.00519395
0.00546125
0.00484108
0.00600621
0.00580188
0.00588397
0.00585847
0.00590965
0.00613108
0.00524231
0.00145203
0.00122087
0.00372067
0.00304829
0.00478079
0.00373178
0.00123625
0.00526505
0.00593007
0.00519051
0.00406579
0.000971878
0.00555211
0.00432773
0.00587525
0.00580989
0.00229961
0.0058797
0.00170648
0.00590912
0.0058608
0.00304342
0.00528282
0.00588617
0.00588452
0.00310784
0.00174457
0.00123222
0.00516875
0.00194198
0.019522
0.00564628
0.00582738
0.0050943
0.00329763
0.00574374
0.0197432
0.00582432
0.00572378
0.00521271
0.00661252
0.00574889
0.00581565
0.000308532
0.00575769
0.00311622
0.0046863
0.00320278
0.00114101
0.002979
0.0130461
0.000692061
0.00584909
0.00586088
0.00583831
0.00586967
0.00441169
0.00424423
0.00458659
0.005779
0.00422944
0.00589925
0.00591184
0.00589579
0.00507037
0.00289138
0.005644
0.00420139
0.00603352
0.00362224
0.00591005
0.00590539
0.00377329
0.00548158
0.00591532
0.00124736
0.00554523
0.0057727
0.00589631
0.00575805
0.00233528
0.00362104
0.00583479
0.00589139
0.00183092
0.0137456
0.00123864
0.00582097
0.00590575
0.00338663
0.00580828
0.00423611
0.0030957
0.00497298
0.00507019
0.00267944
0.00580905
0.00338956
0.00581088
0.00357817
0.00584126
0.00580231
0.00504718
0.00185388
0.00590943
0.00589696
0.00583642
0.00657103
0.00369954
0.00579048
0.0058646
0.00566923
0.0049153
0.00544678
0.00590823
0.00585991
0.000591411
0.00581045
0.0062952
0.00239937
0.00561882
0.00585101
0.00120351
9.8625e-05
0.00497092
0.000736733
0.000839742
0.00208604
0.00384005
0.00585338
0.00429852
0.00582797
0.0187458
0.00581994
0.000380451
0.00583713
0.00578693
0.0185359
0.00249343
0.00583144
0.00393528
0.0148268
0.00162616
0.00590533
0.00224415
0.00451615
0.00483788
0.00379248
0.00465799
0.00586681
0.00582919
0.00394924
0.00157814
0.00373679
0.00504942
0.00574825
0.0189835
0.00380494
0.00569894
0.00572638
0.00582336
0.00548249
0.00591347
0.00581289
0.00589745
0.000559887
0.00148792
0.00586507
0.00090105
0.00439335
0.0058303
0.00589121
0.00568927
0.00590192
0.00162818
0.00582162
0.00125987
0.00560265
0.00582703
0.00506855
0.00503309
0.00345609
0.00585897
0.00583038
0.00137808
0.00580749
0.00581155
0.00247283
0.0031418
0.00636668
0.00108241
0.00590911
0.00300981
0.00569198
0.00118571
0.00589271
0.00583342
0.00354466
0.00460748
0.00590677
0.00312204
0.000533746
0.00519082
0.0202068
0.00459053
0.000443511
0.00564963
0.0057073
0.00588307
0.00583487
0.00586784
0.00430437
0.00193674
0.0184852
0.00622202
0.00127659
0.00193845
0.00591404
0.00589508
0.0058898
0.00396833
0.00616448
0.00590306
0.00244798
0.00468957
0.00591536
0.00588962
0.00295096
0.00161867
0.00508796
0.00583703
0.00579699
0.00109279
0.00214385
0.00502273
0.00576224
0.00585153
0.00331848
0.00564387
0.00327246
0.00580576
0.0058229
0.00590036
0.00579832
0.00401679
0.0022011
0.0203797
0.00589455
0.00580647
0.00446503
0.00591502
0.00585283
0.00591287
0.00459625
0.00290624
0.016088
0.0058401
0.00581675
0.00397081
0.000540028
0.00589243
0.00250789
0.00582888
0.00646717
0.00440979
0.0181012
0.00587506
0.00583875
0.00580961
0.00590188
0.00406855
0.00353982
0.00589086
0.00582723
0.00570583
0.00238212
0.00582592
0.0058345
0.00594646
0.00402046
0.00572656
0.00578264
0.00502347
0.00189081
0.00589693
0.0175436
0.00542551
0.00591384
0.00612005
0.00588307
0.00588572
0.00586645
0.00581434
0.00587823
0.00586086
0.00580938
0.00580462
0.00581414
0.00590975
0.00559733
0.00282777
0.00302897
0.0059078
0.00162145
0.0059033
0.00538434
0.00591313
0.00587128
0.0037044
0.00261381
0.0058545
0.00583865
0.00620011
0.00414339
0.0058836
0.000825773
0.0037823
0.00409709
0.000437519
0.0057983
0.00366632
0.00492065
0.00146074
0.0037523
0.00453976
0.00570866
0.00591351
0.00075653
0.0059054
0.00590929
0.00583305
0.00507448
0.00583051
0.00583055
0.00360985
0.00378839
0.00374885
0.0058913
0.00275772
0.00606097
0.00583647
0.0059001
0.00582715
0.00591255
0.0059041
0.00591284
0.00274667
0.00418766
0.00580761
0.00530251
0.0028895
0.00582417
0.00587844
0.00130636
0.00100936
0.00583676
0.00582725
0.00534466
0.00585347
0.00585664
0.00239204
0.00599746
0.00582463
0.00582373
0.00588268
0.0197448
0.00330115
0.00591237
0.00586874
0.00584379
0.00588175
0.00587497
0.00588506
0.00583523
0.0059683
0.0050264
0.00262342
0.00591479
0.0037558
0.000605618
0.00587218
0.00123438
0.00540471
0.00591073
0.00582844
0.00581567
0.00587815
0.00586598
0.000950997
0.00586355
0.00260352
0.00150949
0.00467157
0.00600418
0.00582566
0.00508979
0.00557837
0.00212702
0.00540809
0.00572673
0.00571506
0.00118705
0.00589814
0.00578953
0.00192735
0.000492083
0.00301866
0.00566185
0.00588022
0.00513846
0.00597425
0.0035043
0.0058445
0.00587661
0.00580984
0.000262582
0.0171248
0.00583493
0.00400954
0.00170501
0.000713827
0.00468676
0.00605992
0.00186089
0.00589
0.0058018
0.00566227
0.00570286
0.00112371
0.00580492
0.00531325
0.00585727
0.0012395
0.00618387
0.00262499
0.00474061
0.0183946
0.00165624
0.00333623
0.00585948
0.00462175
0.00586757
0.00511907
0.00582566
0.016631
0.00534473
0.0169565
0.00321011
0.0188276
0.0189575
0.00519008
0.00585362
0.0050593
0.00324809
0.00582574
0.00393285
0.00569212
0.00583824
0.00542605
0.00585077
0.00582978
0.00380768
0.00571173
0.00583072
0.0045259
0.00407363
0.00572881
0.00579973
0.00507347
0.000389782
0.00435024
0.00245336
0.000481802
0.0024205
0.00352819
0.0011679
0.00481538
0.00462749
0.000779082
0.000336365
0.0017489
0.00197807
0.000534526
0.00583515
0.00301041
0.00575551
0.00579422
0.00422161
0.00590016
0.00564691
0.00334691
0.0054113
0.00363744
0.00416808
0.00569886
0.0058662
0.00582284
0.0050525
0.00621991
0.00319864
0.00560152
0.00585379
0.00580774
0.0058268
0.00337196
0.0052709
0.0057159
0.0058301
0.00582244
0.00514968
0.00588971
0.00684058
0.00515995
0.00580644
0.0062407
0.006228
0.00582765
0.00293139
0.00584187
0.00439178
0.00170678
0.00571208
0.00583248
0.00585937
0.00508119
0.00583376
0.00319381
0.00468275
0.00292149
0.00570872
0.00493109
0.000759405
0.00195066
0.00164609
0.00658965
0.00587123
0.00471182
0.00395389
0.00584252
0.00584315
0.00554738
0.003847
0.00586926
0.00332632
0.0058718
0.00590125
0.00590731
0.00580783
0.00443699
0.00166966
0.00361912
0.00310186
0.00202871
0.00658963
0.00587421
0.00125134
0.00592363
0.00315857
0.00415977
0.00590746
0.00591107
0.0114197
0.00581849
0.00162399
0.00589426
0.00587624
0.00372538
0.00286808
0.00319182
0.00273631
0.00435656
0.00580418
0.00313361
0.00390242
0.000619806
0.0032347
0.00454278
0.00309125
0.00588307
0.000872528
0.00524975
0.00591379
0.000480927
0.00582614
0.00573765
0.00187185
0.00625331
0.00446732
0.000387196
0.0100588
0.0199141
0.00271472
0.015391
0.00119021
0.00570582
0.00582225
0.00494762
0.0058562
0.00405438
0.00494289
0.00825283
0.0058238
0.0058265
0.0057439
0.00214394
0.00579462
0.0058273
0.00587602
0.00408404
0.00585705
0.00591032
0.00236626
0.00581683
0.000809743
0.00408634
0.00479932
0.00221781
0.00455601
0.00246555
0.0012558
0.00502858
0.00196445
0.000868058
0.00588002
0.00316358
0.0034326
0.00583416
0.00628029
0.00535159
0.00452987
0.00582851
0.0059093
0.00580023
0.00575493
0.000644294
0.00590456
0.00586226
0.00121932
0.00588739
0.00573336
0.0179468
0.00274766
0.00765098
0.00582585
0.00582476
0.00506088
0.00586693
0.00212248
0.00588306
0.00286837
0.00221795
0.0050404
0.00147726
0.00293913
0.00582375
0.00591349
0.00120252
0.00259369
0.00114925
0.00117495
0.00225139
0.000544718
0.00581727
0.00339649
0.000748265
0.00528188
0.000367075
0.00466203
0.00595286
0.00168302
0.00125951
0.00330774
0.00591251
0.0012336
0.00760778
0.0027343
0.00581959
0.0175112
0.00588972
0.0053229
0.00582316
0.00490955
0.00587664
0.000696182
0.00547019
0.00588054
0.005813
0.00450011
0.00106589
0.00519053
0.0058995
0.00587123
0.00344891
0.00589028
0.00584578
0.00565881
0.00431043
0.00283808
0.00580911
0.00589051
0.00476551
0.00584318
0.00169693
0.00582344
0.00590927
0.00357734
0.00275229
0.00552234
0.00588777
0.00423522
0.00588034
0.00332986
0.00588604
0.00655927
0.00148946
0.0058935
0.0124088
0.00582587
0.000464866
0.00117616
0.00591086
0.0058247
0.00659357
0.00556963
0.00315019
0.00123024
0.00542058
0.0191947
0.00580686
0.00614201
0.0020466
0.00586844
0.0014878
0.00580013
0.000497916
0.00166238
0.00407211
0.00591136
0.00552008
0.00333894
0.00582561
0.00590006
0.00198335
0.00582689
0.00589619
0.00575279
0.00497788
0.00529584
0.00582056
0.00536541
0.00586677
0.00557242
0.00437958
0.00523768
0.0058931
0.00330415
0.00123309
0.00590597
0.00120915
0.00582738
0.00118086