/*--------------------------------*- C++ -*----------------------------------*\
| =========                 |                                                 |
| \\      /  F ield         | OpenFOAM: The Open Source CFD Toolbox           |
|  \\    /   O peration     | Version:  v2012                                 |
|   \\  /    A nd           | Website:  www.openfoam.com                      |
|    \\/     M anipulation  |                                                 |
\*---------------------------------------------------------------------------*/
FoamFile
{
    version     2.0;
    format      ascii;
    class       volScalarField;
    location    "300";
    object      omega_0;
}
// * * * * * * * * * * * * * * * * * * * * * * * * * * * * * * * * * * * * * //

dimensions      [0 0 -1 0 0 0 0];


internalField   nonuniform List<scalar> 
15335
(
2.84849
0.177566
0.213984
0.0242459
0.0278898
0.0245731
0.072537
0.0262982
0.0228022
0.0246308
0.0253821
0.0243932
0.0688972
0.0486725
0.0351318
0.0221735
0.158326
0.140708
0.0241746
0.0301451
0.0228164
4.66266
0.0322804
0.0228269
0.186118
3.01232
0.0897035
0.0234199
0.0373843
0.0489638
0.0231347
0.0811231
0.0261003
0.0289683
0.0757143
0.0967054
0.0246213
0.0295408
0.0477788
0.141452
0.0234058
2.34294
0.0227342
0.049537
0.353631
0.0233668
0.0309289
0.0250314
0.041569
0.0248613
0.0228422
0.0231323
0.0249542
0.0281784
8.79205
0.339253
0.120247
0.0316058
0.0305693
18.8643
0.171027
0.0223584
0.0249581
0.0256881
0.0277546
2.65567
0.35576
0.0244513
0.0370236
0.0226191
0.0265605
0.032077
0.0248737
0.359723
0.0254915
1.69445
0.169588
0.0267571
0.0240039
0.0915354
2.97464
0.0352376
0.0361891
0.0793888
0.0325561
10.1849
0.0257471
0.0873424
0.0245671
0.0273084
5.35415
0.0724144
0.361272
2.10735
0.0297406
0.0793061
0.0226998
2.66431
0.0231245
2.68117
0.022714
0.0268609
0.150636
0.0221826
0.0244535
0.0226872
14.8391
0.02499
0.0266646
0.0540461
0.0283813
0.0441912
0.0249427
0.0266938
0.0259512
0.0233378
0.055722
0.0245299
2.29883
6.5206
0.0266668
0.0753312
2.31907
0.0241752
0.0746411
0.023383
0.0242888
4.7441
0.0776516
0.0266164
0.0233884
0.0754965
0.0248315
2.83267
0.023142
0.35074
0.0247101
0.0226341
0.0517396
0.0282036
0.0252962
2.2295
0.0240935
2.9976
2.47349
0.025662
1.82837
0.0317035
0.024892
0.0574437
0.0240014
3.57473
0.0221634
0.028845
2.27931
0.024539
0.0813946
0.0249013
0.0232218
0.0320987
0.023973
0.0279074
0.0248695
0.0455054
0.0289448
0.0242061
0.0232168
3.83835
0.0230658
0.02431
0.026531
0.0243306
0.0253841
0.0245689
0.0298174
0.0284757
2.99251
0.0230803
0.0780858
2.64614
0.0253284
0.0257927
0.025747
0.0282829
0.0282649
0.12919
0.081314
0.025689
0.0249112
12.3909
0.0243358
2.64261
0.0421163
0.0233941
0.0248772
2.40534
0.025322
0.0224029
0.0602741
0.174903
0.0238992
0.0302137
0.0233163
0.0691185
2.67093
0.0271822
0.751572
0.0242508
0.0813632
2.81913
0.161898
0.0301
0.0234157
0.029223
0.170812
0.0292659
0.0261113
0.0463068
0.0257265
0.036438
0.0289837
0.0495923
2.36381
0.0780904
0.0268698
9.27844
0.0673084
0.0251714
0.0690822
0.156479
0.0250439
0.128852
2.58093
0.0325968
0.0249686
0.0262475
0.0240965
1.00932
6.43873
0.0256942
0.0574372
0.024715
0.0594151
0.0265229
2.83581
0.0293946
0.312988
0.0291576
2.16032
2.1427
0.0286122
0.0229152
0.164191
0.0270412
0.0229083
4.45665
0.0253326
0.0263831
2.3758
0.022895
2.75936
1.88486
5.57778
0.180264
2.79349
7.47669
2.27102
0.0229954
0.172715
0.0252811
0.0991743
0.022139
2.96846
0.0231681
0.025911
2.93571
23.3912
0.0282172
0.024849
2.69802
0.0234183
0.0243233
0.0257082
0.0248666
0.0992213
0.0248687
0.0338203
0.02425
0.163024
0.029174
0.16107
0.026859
0.0231961
0.0243621
4.82539
0.0294569
0.0263462
0.0232276
0.0252289
0.0257425
0.033385
0.0550278
1.05543
0.026039
1.9846
0.0234292
0.0234313
0.0827783
5.71365
0.0680594
22.7954
0.0266214
0.0408662
2.95974
0.0233538
0.0268846
0.0230579
0.0230614
0.025295
0.0261429
0.0246449
0.0252573
1.19102
2.33253
0.0295956
3.06437
0.130688
0.023072
0.0230228
0.0230431
0.0233693
1.16106
1.42077
0.030219
0.0468366
0.0226729
0.0249829
0.0282988
0.0525617
2.30808
0.0344851
0.05156
0.0868978
0.0346669
0.0284638
2.60096
0.0576722
2.15837
0.0266992
0.0268948
0.0646524
0.0230676
0.0249969
2.97287
0.772551
0.0268136
0.0260365
0.0230098
0.0245239
0.720744
0.0245329
0.0233643
0.0297145
0.0245371
0.233435
0.0263442
0.0257666
0.0253807
0.041944
0.0244113
0.0257901
0.023933
0.03192
0.0245178
0.0230769
0.0233569
0.0224082
0.0221354
0.0245986
0.064597
2.17399
0.0775425
0.0343043
0.0615765
11.5328
0.0366018
0.0234207
2.5358
0.0240104
0.0243736
0.0254131
0.0419024
0.0231423
0.0268563
1.1007
0.0265501
0.0247608
0.0221813
0.0242718
2.52637
0.0354262
0.112425
0.067651
0.0229189
0.024353
0.0556708
0.0229219
0.0251601
0.1094
0.0247446
0.0229073
0.0246732
0.0251349
0.0262895
0.0548495
0.0233255
0.0244019
0.0292717
0.0244558
0.0248942
0.0570902
0.0238738
0.171928
0.0245918
0.030965
0.224356
0.0241739
0.0244262
0.0233725
0.171817
2.75681
0.0321452
0.0266052
0.10574
0.022283
0.0229156
2.93938
0.0571139
0.0238672
0.0370203
0.0227232
0.0246349
0.0239505
3.40954
0.0268523
2.3466
0.0381661
0.0246542
0.0291758
0.330079
0.0274027
2.95323
0.0241343
18.7074
0.0241581
0.0248229
0.0370731
2.67309
0.0261069
0.0248906
0.0248909
0.0310177
0.0287114
0.0266547
0.0656645
0.347616
0.0285694
0.165151
0.0268351
0.0261386
0.0239871
2.91933
0.0267878
1.67008
0.0244621
0.0237842
0.0243281
0.0265224
5.87581
0.0247213
0.0258875
0.0250209
0.025155
0.0241141
0.0244371
2.17918
0.02611
0.0246469
0.023307
0.0247664
0.0257978
0.0246284
0.0242901
0.0227154
2.89993
3.06269
5.02353
0.0347497
0.0368845
0.0781813
0.0286683
3.98381
0.0244497
0.0551555
0.022646
0.0284231
0.0341073
0.0691936
0.023897
0.025113
0.0262004
0.0285344
1.78308
0.0915377
0.0289349
0.0227488
0.0246838
0.0236564
0.0859563
2.41906
15.617
20.1982
0.0266854
0.0230671
0.63612
0.024098
1.99951
0.0259221
0.0231847
0.0244848
0.0256544
0.0592718
3.05849
0.0240443
0.0772055
0.0365036
3.14747
0.0318959
0.0228646
0.0264349
0.0394813
0.0599389
0.0243663
5.98248
0.0245722
2.31426
2.80677
0.0252225
0.0610954
0.038955
0.0454679
0.0242609
0.0226524
0.0231127
5.94229
5.03764
0.0239043
0.0264094
0.0246936
3.6828
0.0379025
0.0244797
0.0355798
0.0244254
0.538686
0.0260665
0.0350566
0.0302214
2.96262
3.29688
2.51928
0.0242502
0.0231414
0.0568936
0.0249388
0.0231321
0.0242836
0.0251258
0.024567
2.55184
2.26977
6.48366
0.0462942
0.0284754
0.0370818
3.84088
4.3582
2.63117
0.0314989
0.0232091
0.0233959
0.0268649
0.684649
0.0258208
0.0238949
3.57179
0.0302859
5.70063
0.0237683
0.162533
0.0288107
0.0345544
7.4581
2.4384
0.0297844
0.0233827
0.0488349
0.024812
2.15878
0.0459072
2.32618
0.349756
0.791043
0.0233999
0.0253747
0.062647
0.054882
3.5077
0.0260301
0.0229852
0.0242308
0.0246856
0.0244471
0.0266985
0.0754465
0.023363
0.0228849
0.0221402
0.0244737
0.0328347
0.025264
0.0952417
0.0233837
0.028764
0.049284
2.62907
0.1591
0.0245527
0.0232238
0.0340088
0.0597567
0.0242988
0.024472
0.280989
0.0246649
0.0650454
0.0473116
0.0227895
0.0264557
6.10948
1.79047
0.024634
0.0232386
0.0237397
2.96235
0.0240713
0.633841
0.0246729
0.0266478
0.0249405
0.0239437
0.0361466
0.0839391
1.05747
0.0232014
2.31658
0.0253242
0.0248721
0.0356718
0.0241229
0.0254387
0.0268576
0.0295423
0.0238925
0.0538683
0.0240396
0.0245639
0.0242641
0.0281662
0.0317627
0.0237969
0.358374
0.02677
0.0228887
3.03634
3.52244
0.0647017
0.0237553
0.0269629
0.0242754
0.0484439
0.0534566
0.0241327
0.0300239
0.0244689
6.14328
0.338226
0.024736
0.0261063
15.2741
0.0246923
2.89887
0.441081
0.0253898
0.0227268
17.4088
0.0278607
0.0369722
0.0340954
0.126887
0.0240665
0.0252046
0.0694807
0.0241552
0.0259809
3.06927
0.0844082
0.177368
0.0287243
0.0243657
0.0228951
0.0239553
0.0246951
0.0248273
0.0353531
0.0335451
0.329509
3.67295
0.0367882
2.03376
3.01698
0.0793729
0.0242724
0.0233227
0.0233496
0.0253803
0.0228583
0.0258691
0.0242623
0.0249158
0.0251148
0.022898
5.64067
3.13442
0.0242615
0.0816562
0.0246149
2.61778
0.0310473
0.0785514
0.0241046
0.0411105
0.0252276
0.033206
0.0251848
0.0223345
5.89835
0.0273383
0.0454039
2.03927
0.0271906
2.97871
0.0239615
0.62847
0.0228739
6.82751
0.024616
0.0228874
0.0300839
0.0898581
0.0430145
0.0243573
0.0283054
0.0598672
0.0282995
0.0285055
0.0334183
0.1513
0.0230408
0.102412
0.134576
0.0245145
0.0232765
0.0249899
3.11792
0.028759
0.0240876
0.101746
0.0663199
0.0297908
1.25978
0.32895
0.0244102
0.0474037
0.0248704
2.63949
0.0279017
0.0244432
0.137117
0.0280555
0.102012
0.0332399
0.024335
0.0281341
0.0389605
0.024932
0.032524
0.0254884
0.0247912
0.336899
0.0358896
0.034154
0.0571101
0.0308578
0.0248689
0.158511
0.0233362
0.0252305
0.024673
0.0619684
0.0249676
0.0258426
0.0245559
0.0664025
0.0244849
0.0252531
0.0233221
0.048761
2.42714
0.0268898
0.177593
0.0238322
0.024012
0.0230564
1.329
0.0231542
0.0230607
0.0233706
0.0228932
0.0258857
0.0631267
0.0241317
0.0377646
0.0230625
0.0244323
0.0240416
0.0221568
2.89166
0.0263719
0.0225437
0.0241448
0.0244306
0.0229615
0.0297936
0.026847
0.0243639
0.0250018
1.83269
0.0242635
5.90897
0.0233994
0.0242264
0.0218239
0.0229496
0.0232717
0.482187
2.34828
2.82152
0.0245215
0.0522931
0.0766771
0.0479899
0.0262957
0.0242233
0.135083
0.0246047
0.0254407
0.0262012
0.0238181
0.0317207
0.0265072
0.0444506
0.0273307
0.0226083
0.0248148
0.0245045
0.0279282
0.0241433
0.102701
0.986831
0.024845
0.0490642
0.0245799
0.0225895
0.0222767
0.0275376
3.60618
0.0233381
2.54461
2.1045
0.0240307
0.694494
0.0245109
0.0244626
0.0671929
0.0254558
0.0439415
0.0240485
5.66204
0.0241788
0.0383202
0.0226022
1.42693
0.0256019
0.0255846
0.0238828
0.0480092
0.0234191
0.0657899
0.0238899
0.0239411
0.0233082
0.0285627
0.0990975
5.27997
0.0240509
2.46805
5.93828
0.036854
0.0309862
0.322205
2.97785
0.0646689
1.57098
0.357259
0.0230496
0.0232944
0.0357597
0.0244237
0.0244675
0.0562494
0.0478621
2.71325
0.0242867
2.41071
0.0246648
0.0816021
2.70352
0.0345543
0.0232586
0.150264
0.0268862
0.0250858
3.04164
0.026902
0.0251351
0.024027
2.48347
0.0225972
1.99754
0.0245138
0.0563774
0.0402036
0.0439624
3.50443
0.0260275
3.00463
0.0469265
0.0226085
0.151201
0.0251142
0.0476095
0.0225925
0.0294293
0.874569
2.56062
0.0225915
0.18286
5.6462
0.0226049
1.14971
0.0283938
0.027126
2.88344
3.1276
0.0232065
0.0402963
0.106828
0.167276
0.0296019
0.0247524
0.0292818
0.0237266
0.947995
0.0232192
0.0263121
0.022605
0.0260308
0.027071
0.0279649
0.478557
0.708729
0.0248135
0.0543698
0.0249003
2.24447
0.0255867
0.0253777
0.099247
0.0243807
0.0236464
0.0249705
0.0222022
0.0244492
0.0286203
0.0252399
0.0227133
0.0252459
0.0244561
4.26225
0.0242612
0.0241619
0.0242941
0.0253628
3.37234
0.0228593
0.0240333
0.164639
1.29349
0.0228527
0.157367
0.0249285
0.898488
0.0512324
5.49615
0.0294169
0.0246945
1.54127
0.024564
0.114573
0.0244287
0.0518332
0.0239788
0.0600323
0.0534108
0.0243033
1.05064
0.0259549
5.95319
0.0713452
0.0236929
0.0254539
0.0228711
0.0294307
0.0249405
0.71668
2.37851
0.0223816
0.0254332
0.0253693
0.0240675
0.0244957
0.0285118
0.0232808
0.0630499
1.52102
0.0244146
0.0237967
0.0271425
0.0229216
0.0252568
0.0232671
3.15982
0.0262977
1.33021
5.49753
0.0769889
0.0246253
0.0247556
1.93291
0.026428
0.0249542
2.22827
7.25865
0.0254547
0.0298389
0.02434
0.0258733
0.029298
0.0414975
0.0237883
2.06844
2.82696
0.0470022
0.0243819
2.10758
6.78736
0.0283559
0.0269814
0.0244875
0.0245451
0.0226072
0.0244206
0.0244776
0.181365
0.0249584
0.0246838
0.0289217
0.0240445
2.38265
0.0241555
0.0236419
0.0226201
0.0251945
0.0328814
0.0508804
0.0243258
0.0248336
0.10691
0.0228846
0.0247998
0.0239736
0.0259642
0.999847
1.13661
0.0238708
0.0246679
4.68461
0.0504949
0.023424
0.0222156
0.0226024
0.0241532
0.0361464
0.0243266
0.0236607
0.0240375
0.0250723
0.967919
0.0555944
0.0245715
0.0453082
0.660204
0.0271688
0.123745
0.0544761
1.72286
0.153774
0.17189
0.0259875
2.81394
0.774191
0.0812008
2.6857
0.179606
0.0258712
0.171573
0.0261391
2.80166
2.98707
2.06579
2.39424
0.0225884
0.961749
0.0248327
0.0226676
0.0423192
5.38332
0.0286471
0.0413578
0.0245303
0.0226407
0.0263054
0.0248295
0.0263899
0.0226406
0.33543
0.0476461
0.034861
0.0239147
0.0232538
0.0365124
0.0239923
0.0367392
0.0248525
0.0243371
0.0226523
0.0249254
0.0250739
0.0246798
0.0240879
0.0225966
0.0649243
0.0240905
0.0554201
1.81639
1.55624
0.0320007
0.133333
0.0232398
3.0032
0.0276959
1.13189
0.0231962
0.0226031
0.0244324
0.0311066
0.0245046
0.0248637
2.59341
0.143733
3.01944
3.01086
0.182406
0.663769
0.0244954
0.0249598
0.453991
1.68063
0.0243392
0.02446
0.0236121
0.326116
0.0249464
2.62797
17.2967
3.13884
2.89979
0.0311226
0.0296509
18.1058
1.96142
0.732117
0.0244805
7.95613
0.0244736
0.329652
0.022611
0.0243764
0.0244366
0.0228482
3.00622
0.0236528
0.0511853
0.0748353
1.33849
0.0244482
0.0297049
0.0353938
2.39088
2.5135
0.0328906
0.095614
2.33175
0.0226132
0.0226221
0.0310908
0.0273409
0.077008
0.0843675
0.0248147
0.0483573
1.45528
0.0231656
0.0236216
1.29143
5.39466
0.0329971
0.0243435
0.0269465
2.28202
0.0248417
0.0322871
0.0228445
0.0523648
0.0262935
3.28674
2.04752
0.0246797
0.0286707
0.0243753
0.128149
0.0266123
0.0365956
0.0253295
0.0243826
2.97621
0.04329
0.0469239
0.0254699
0.026012
0.0274441
1.41163
0.0710379
0.0444879
0.0794587
1.89004
0.554366
0.0263618
0.112801
6.38792
0.0226348
0.0251342
0.0503158
2.56892
0.0231855
0.0236698
1.28487
0.0824205
0.0241087
0.0350955
0.0245078
0.0500485
0.682608
0.0226669
2.27221
0.510917
0.0240065
0.0247455
0.0236824
0.0229946
0.0232124
0.02731
5.37656
0.0232265
0.0251936
0.0738824
1.79489
0.0221886
0.0434276
0.0232957
0.0229944
0.0239578
0.0240365
0.0242704
0.0282087
0.025449
5.0502
4.6143
0.0501246
3.14041
0.623958
0.02924
0.0241749
0.381297
0.0226776
0.0233309
0.0286979
1.97895
0.460156
2.33802
1.1223
3.02928
0.0241336
6.61446
0.0343361
1.15963
2.98621
0.0242574
0.0251278
0.0290792
0.0237269
0.024927
0.0285392
2.97724
0.0242647
0.033203
0.0229086
3.15716
0.0240846
2.81884
0.0242632
0.0219007
2.75808
0.0584604
0.0256415
0.0270117
0.0234141
0.125562
0.115672
0.0233005
0.024272
0.0237352
0.0469939
0.0740539
0.0774092
2.29421
0.0265337
0.0281899
0.0246735
0.0246113
0.0342835
0.0244893
0.023699
0.0235592
0.0246846
0.0241024
0.0247182
1.15678
0.0248201
0.0241211
1.5967
0.0913265
0.0249544
0.0591097
0.594101
0.0256926
0.0256549
2.86709
0.0254703
1.74222
0.700399
0.0243366
0.0283722
3.11968
0.0242401
0.0281063
0.10006
0.0706906
0.0240222
2.11964
6.8923
0.0270581
0.0261589
0.0630909
0.0907374
0.0221346
0.0240315
0.0244341
0.0264733
2.92826
1.42154
1.51918
2.29714
2.8624
0.0282826
0.0273843
0.400029
0.022269
0.0330737
0.0459691
0.0302113
0.0229256
0.0463243
0.0234732
0.0247614
1.84456
1.80432
0.0500189
1.11769
0.0254166
0.0263102
0.161791
1.84356
0.0794703
2.43977
0.0254881
0.170852
2.26734
0.0424235
0.0272734
0.282257
0.0303033
0.131131
0.0245638
0.0427512
0.0297044
0.0580871
0.0246649
0.0744775
0.027089
0.0239899
0.0248322
1.29515
0.998379
0.0283654
0.0436006
0.839799
2.91651
0.022661
0.028759
0.0329386
0.160517
0.0248354
0.0233614
0.024962
0.0252668
1.66073
0.026907
0.161818
0.0242091
0.0249471
2.08752
0.0244527
0.0246982
0.0430835
0.0278574
0.0246651
0.0244687
0.0257963
0.0433216
0.0339573
0.0299168
0.0452553
0.0251844
0.0245099
0.0247979
0.0245653
0.545714
0.026134
2.86693
0.0260949
0.024262
0.0465037
0.024743
0.0268718
0.0257971
0.0244013
0.0246245
0.0246735
2.73088
0.0242696
0.0350851
0.0246904
2.89588
1.73027
2.29412
0.0247805
2.51377
0.0247601
0.035867
0.0245063
0.0242733
1.7797
0.0427098
0.0247756
0.0537096
3.60986
0.0271959
2.43899
0.0268665
1.33345
0.633932
0.0246974
0.0244648
0.02471
0.0484656
0.0238128
0.0236594
0.0242812
1.22503
0.179747
0.107989
0.0253874
0.0244581
0.948761
2.74193
1.44074
0.901834
1.10132
0.0238257
1.65487
0.0254738
0.0360958
1.06701
0.0231387
0.0247073
0.026739
0.627308
0.169844
2.92937
0.0240403
0.0265388
0.025162
0.0747336
2.73109
0.0288203
0.0501361
0.0256176
0.0329129
0.0292795
0.0232001
2.864
2.5034
0.026478
0.0267441
0.0269961
0.162236
2.61521
0.0271965
0.0239358
0.0245485
0.0239713
0.0245003
2.95939
0.0828561
0.0239142
0.044283
0.02455
0.0241248
0.0250998
0.0241506
0.024553
4.46167
0.0427779
0.0422092
0.0239285
0.0659583
0.0229682
0.0239814
0.023739
0.0236502
0.0228556
0.0248513
2.89072
0.0236555
0.696125
1.39392
0.0726108
0.0372928
0.0245877
1.8484
0.957399
0.024864
6.65035
0.0264867
0.262725
0.023822
0.133536
0.0433387
0.0240287
0.025941
0.0257503
0.172995
0.0243695
0.0243592
0.0239295
0.0560999
0.0249526
0.0241173
0.0555769
0.028919
0.0232849
0.0245449
0.284508
0.0243858
2.49701
0.026574
0.0328149
0.0755196
2.35721
1.50852
0.0249669
0.024653
0.0246674
0.0250033
2.57667
3.38417
0.0269712
0.0236837
0.960398
0.0258347
0.0252544
0.0228595
0.0368576
0.0250439
0.115843
2.69874
0.025494
0.166358
1.70014
0.0535953
0.0723784
0.0848181
1.774
0.324745
0.0267341
0.579986
0.0257496
0.0406756
1.32117
0.0281145
0.0246798
0.0249563
1.41147
0.808426
1.12625
0.0264969
0.0243102
0.192497
0.0261294
5.76141
0.0229558
2.87075
0.104289
0.024037
0.0239691
2.0125
0.0285015
0.32179
0.0266576
0.0282118
0.0267962
0.148549
0.0244323
0.0288906
2.68982
4.86462
1.8201
2.15192
0.023997
0.317219
0.0241021
0.0273391
0.0256133
0.414255
0.0227195
0.0414673
0.0244934
0.0248313
0.0578291
3.26211
2.5012
0.0270493
0.065756
6.70675
0.0238868
0.0245499
0.024343
0.0250252
0.154048
0.0249815
0.0245313
2.02097
0.0246478
2.7037
3.05261
0.0550767
0.0230956
0.022504
0.0348313
0.197313
0.0289895
0.0236579
0.0236404
0.0230745
0.0481486
6.58851
0.154685
0.0244073
0.03627
0.0239392
0.137861
2.38185
0.0564531
0.0246754
0.0471117
0.0336625
0.0238292
0.0263937
0.0767071
0.024771
3.16135
0.107221
0.0232988
0.686092
0.0517946
0.0248347
0.0241656
0.0234312
0.0245538
0.025576
0.0229142
0.0246552
0.023998
0.0280353
0.0245373
0.0250761
0.0243458
1.69502
0.0260597
0.0233367
0.326235
0.156769
2.64039
0.0233238
0.0240836
0.0249051
0.023213
0.023121
0.0247079
0.0805485
0.0951719
0.0253543
0.0243369
0.0244491
0.0264624
0.0445035
0.0251577
0.0233095
0.116185
0.0248344
0.024298
0.153316
3.11016
2.94257
0.031283
0.0243713
0.0311616
2.80969
0.0239522
0.0246984
0.027861
0.0245616
3.47373
0.0255733
0.0245608
0.023308
0.0242885
0.73339
0.0240127
0.0232049
0.866362
0.0480331
2.62981
0.0230193
3.84066
0.023287
0.028447
0.0242601
2.68682
0.0234457
0.0298801
0.0297035
0.0303649
0.0283439
0.0459054
0.0249452
3.14933
0.0288519
0.157862
0.0248262
0.0283969
2.45816
0.0291453
0.0503957
0.0239246
0.0239214
0.025664
0.0324344
0.0360265
2.95037
2.84629
0.0240249
0.0230525
0.650237
0.0244136
0.14511
2.62443
1.90514
0.315854
1.23517
2.13012
0.0230151
0.670441
0.0336106
0.842508
0.0322509
0.0774782
1.38689
0.0249871
0.0231735
0.0238982
0.0244019
0.317515
1.69331
0.033194
0.177313
0.022172
0.0237113
0.0271237
0.275597
0.0241865
0.027607
0.0239029
0.024349
0.0320805
3.92951
8.81765
0.0242987
0.0728186
0.0239312
0.0246347
0.0507416
0.027189
0.0285079
1.47253
0.0224522
1.68619
0.0237921
0.023395
0.0259567
0.0232404
2.81043
2.4617
0.0333987
0.025153
0.0227762
0.0253136
0.0225142
0.0249918
0.0274223
0.030079
0.131245
0.160838
0.0458472
0.0463153
0.0339473
2.09753
0.127865
0.0300591
0.0249329
0.0306468
0.0410006
1.28248
0.0279794
0.0291463
0.0234
0.0261025
0.0793712
0.0240636
0.110292
0.0247044
0.0225509
0.0403496
2.36507
0.0247134
0.0253437
3.53476
0.0926671
0.159725
0.030755
0.0930934
0.301493
0.0270913
0.0243529
2.65731
0.0526211
0.0237269
0.295322
0.0223259
2.70647
0.0299547
0.0285699
0.0255477
0.023011
0.650115
0.026329
0.0561775
2.64532
0.0471563
1.7861
0.059006
1.34612
13.4816
0.0244917
0.0244408
0.0243985
3.0863
2.83929
3.15303
3.0071
2.54574
3.31538
0.0244173
0.024879
0.0239018
3.96593
5.37652
0.0273369
2.12075
0.0239334
3.66238
0.0246497
0.0251685
2.90712
0.0267727
0.0247903
0.156665
0.0280521
0.0263986
0.0252362
0.0265151
0.0618279
1.7596
0.024424
0.0238477
0.102235
0.874374
1.41615
0.0242789
0.0251598
0.0510289
0.0234312
0.0385666
1.88469
0.0321706
0.0287142
0.0335929
0.023151
2.89769
0.023441
0.0475433
0.0246236
0.0261719
2.00109
0.100081
0.024549
0.0239722
0.0244052
0.0275588
0.046139
0.0221208
0.0242807
0.0264438
0.0328111
0.0287417
0.0249274
0.0256699
0.183897
0.0231661
2.34283
0.0753915
0.0269306
0.0235783
0.0443387
0.061451
0.0323253
12.5905
1.0866
0.0882364
3.065
0.0246459
1.56674
0.0245678
0.33704
0.0237698
0.449246
0.0236415
2.75783
0.73204
0.059703
0.0242524
3.37005
1.55791
5.19587
0.0246823
0.0656994
0.0361899
2.41373
0.0447987
3.42154
0.0245077
0.0245468
0.0338758
0.119188
2.12539
0.0317575
0.0265824
0.591964
0.0446847
0.026725
0.0267376
0.0240254
2.42993
0.0248899
0.0238124
0.024801
0.449943
0.129073
0.0230483
1.54961
2.77927
0.0236713
0.0237475
0.0266813
0.0242931
2.00694
0.0242837
0.155152
2.13053
0.0240428
0.0290936
1.93108
0.0498263
0.0245277
0.0242403
6.53639
0.0233793
0.0237657
0.0590595
3.16542
0.0258465
1.85627
0.0248976
3.28403
0.0269915
0.164323
0.0237978
0.0243916
3.1031
0.0350047
0.0244862
3.70868
0.184831
2.46031
0.574297
1.5571
0.283082
0.0266763
0.0268521
0.0238106
0.0241889
0.0234591
1.52199
1.92861
0.591015
0.0245765
0.151977
0.095533
0.0249174
0.024391
0.0241992
0.0424147
2.39546
0.0252114
2.19736
0.031461
0.024744
0.0236997
0.0458632
2.11767
0.0304747
0.0259025
5.11873
0.618408
0.0854732
0.0318707
0.0264835
0.0243046
6.6025
0.0246447
1.79352
0.0234264
0.0241643
2.66855
0.023086
0.0418328
0.0712189
0.369879
0.023902
0.0234396
2.3044
0.0249151
0.0242688
0.0246205
0.0353414
0.0267592
1.29185
0.0245636
0.0237325
0.0399859
0.874785
0.0246291
2.20059
0.0245636
0.0266682
0.0346454
1.48847
0.0243539
0.0239021
0.026081
0.0242999
0.0411692
0.036451
0.0237258
0.0244674
2.74026
2.045
0.0238946
0.023792
0.0220146
3.30836
0.0262247
0.026204
2.14861
0.0977691
0.0243904
0.632307
0.0287841
0.0249838
0.0272699
0.0247447
0.0236082
0.0242289
0.0239352
0.0231296
0.0245366
0.0237785
0.0261036
0.0235536
0.0247048
0.020837
0.0613241
0.0516109
0.0245345
2.23956
0.0246553
0.0291448
0.0249153
0.0245137
0.046129
0.0684634
0.024312
0.0232092
0.0262157
0.0401064
0.0246558
0.520127
2.23315
3.15825
0.791874
0.0230835
3.52911
2.11605
0.13182
0.0452004
1.91779
0.0265135
0.0249887
0.149211
0.0249024
0.0251116
0.0243479
0.0314628
0.0243337
0.0236124
2.19264
0.0447863
0.0432252
0.023747
0.0508654
0.0255193
0.0244156
0.0243815
0.0234497
0.0248504
0.024625
0.0247212
0.0494115
3.1147
0.0233686
2.23632
3.92237
0.0245128
0.0242041
0.147913
1.45085
0.0242875
0.0244798
2.42228
0.0244287
0.0244227
0.0756363
0.0231295
0.0245365
0.0244374
0.0247669
1.09549
3.02812
0.0249998
0.0242202
0.0244199
0.023938
0.0225732
0.0240541
0.0243829
0.0250026
2.41576
1.75081
0.0247662
0.0447104
0.488642
0.0255798
0.158639
0.0290206
0.0247741
0.0239458
0.0237619
0.0232904
0.025583
0.297116
0.0244959
0.0686944
5.51523
1.7536
2.98294
0.0243572
0.0289437
0.0278022
0.0862847
0.0290423
0.0259618
0.0267852
0.1674
0.0247343
0.0262727
0.0958258
0.770653
0.0466319
0.0271843
0.0241965
2.48409
2.90444
3.51629
0.0245184
0.0240305
0.0234339
21.6054
1.53771
0.0224748
0.0363652
0.109662
0.837731
0.0348015
0.0256866
0.0884581
0.0237288
0.0232587
0.0246313
0.0269049
1.96493
0.0234243
0.0289071
0.0240202
0.131187
5.1234
0.0682897
2.38745
0.580268
2.00766
1.84599
0.0254907
0.035289
0.0244999
3.07419
0.0243451
0.392759
0.0293517
0.622654
0.054327
0.582764
0.715123
0.0305219
0.024002
2.097
2.24632
0.0242484
2.26923
0.0270042
0.0244081
0.0287989
2.74163
0.0239718
0.0221137
0.024525
0.024518
3.0446
0.0410395
0.0243531
0.0261876
0.030027
0.190609
0.0320692
0.0739327
1.07907
0.0749492
0.0445867
0.170613
2.08271
0.0337844
1.59191
0.37311
1.91068
0.0930795
0.310323
0.0239183
0.0477548
0.0238564
2.575
2.65069
0.0246328
0.0270764
0.051606
2.74274
0.047146
1.78936
0.0255258
0.02262
0.0238936
2.97259
0.0267587
0.0445851
2.39782
0.0230611
0.0231237
0.0259774
3.63842
2.63451
0.0243605
0.023624
0.0240006
2.18106
0.0236264
4.63529
1.95503
0.0230964
0.0262223
0.0285482
0.0230843
0.0482408
0.0245527
0.264723
0.10962
0.0247128
0.0235398
0.0228087
2.26872
0.0259273
0.054668
3.11334
1.99116
0.0261363
2.87886
0.995866
1.65586
0.113514
0.0265134
0.0244752
2.11863
0.0425427
0.0245148
0.0215189
2.3987
0.0440721
0.0245612
0.0508777
0.0226687
0.024485
0.0251332
0.023112
2.61317
0.0632853
0.0448754
0.0565317
0.0906842
0.0275491
0.0255396
1.20511
2.70164
7.57204
3.97657
0.0251262
0.0248496
1.29718
0.0228872
8.89116
0.0247157
0.0233886
0.0451325
0.0618228
0.0436968
0.0650096
5.31353
0.0227774
0.0443469
0.0433007
0.624956
5.11799
2.08293
1.59079
0.0240593
1.53781
0.0300531
0.0249153
0.218488
0.0230553
0.0266602
1.93555
0.0286339
0.0324878
0.381047
3.67048
0.573381
0.0605173
2.12392
0.168003
0.025449
0.0239181
2.43916
0.0257362
1.87682
2.16183
4.22837
0.0242603
0.0244829
0.0227983
0.070422
0.0221819
0.0244057
0.0232231
2.3079
0.0256537
0.0245386
1.49868
0.0237764
12.7532
0.0410868
0.0287385
1.41312
4.21885
0.0732324
0.155737
0.0291527
0.0944314
1.6235
0.024255
2.24225
0.051758
0.0245151
2.99244
0.0293238
2.78304
0.0239552
0.0246522
0.0231685
0.024159
0.878451
0.0243968
0.0242552
0.16141
0.0242729
0.0239398
0.586723
1.53103
3.76377
0.0245037
0.0242237
2.83372
0.0229633
0.0824944
0.0242487
1.77523
0.0736797
2.46179
0.113987
0.0474425
0.023991
0.0239224
0.165064
0.054923
1.08907
0.0782973
0.0810192
0.202911
0.0240628
2.14281
0.161368
2.48144
0.467623
0.0341076
2.71667
0.111046
0.887818
0.0525199
0.0248368
1.13844
4.11224
0.0512628
0.0260388
1.24656
0.0236985
2.62058
0.0239308
2.28777
0.0230291
1.06176
0.0285831
0.023558
0.0235038
2.57469
6.93881
1.91501
0.0242637
0.0242474
0.0499485
0.0243668
0.0246123
0.0272219
2.68354
0.0497749
0.0231393
0.0244406
2.2933
0.0258184
0.109964
0.0244376
0.0248246
2.73462
1.6518
2.4806
0.023653
2.3439
0.0240246
0.0489331
0.024344
0.027062
0.129175
0.0242281
2.79102
0.0257874
0.626901
0.169668
0.024577
0.0243334
0.0285354
0.027855
2.38806
1.56139
0.0289313
0.250357
0.0231474
2.8472
1.31312
0.0245627
0.129
0.0227592
0.525938
0.11249
2.80965
0.0248498
2.45054
0.0276661
0.0242359
0.0247591
0.0783364
0.0246367
0.0244556
2.57775
0.0296613
3.73215
2.58876
0.0287083
0.0234944
0.02783
2.64643
2.50585
0.0247204
0.0527136
0.159144
0.0248027
0.162923
0.0245562
0.0770761
0.0268424
0.0256071
0.0431407
0.497371
0.0339693
0.0247315
0.828528
0.0938819
0.0252763
0.0246778
0.025159
0.0239337
2.75838
0.024623
0.0269498
3.25353
0.0265734
1.36305
0.0235374
0.35052
0.0250544
1.32005
0.0423069
0.0287548
0.104452
0.0221447
0.0221268
1.85895
0.0254119
1.11036
0.0231568
0.0635977
0.0462867
0.0244066
0.0980902
0.0330041
5.89166
0.0285648
2.37808
0.127041
0.0236295
0.0245694
2.13253
0.0879391
0.0221767
0.0245823
0.0324405
0.0253376
2.90627
0.0243336
0.470798
0.0244875
1.6985
0.191529
0.060414
0.0476924
0.0248782
2.75665
0.0237501
0.716359
0.0610261
2.00831
0.0634465
2.73167
0.0243797
0.0245401
0.107192
0.551923
0.0242744
2.74628
0.0235705
0.173549
0.0517413
2.73255
0.0247765
0.0335046
0.0596019
0.0294673
0.0483352
0.0238067
0.0247695
0.0621854
0.0732669
0.0862221
0.024804
3.26874
2.25509
3.27891
0.0252561
2.78635
0.18726
0.166575
0.0236537
0.02474
0.0248409
0.0283264
2.59681
0.0271348
2.77513
0.024664
2.42891
0.110684
0.0247802
0.104264
0.0248835
2.70049
0.726115
11.9705
0.0340494
0.0251884
0.0285002
0.164934
0.0454287
0.0228783
1.7492
3.45651
0.0249902
3.15975
0.180151
0.204344
1.08727
0.0247025
0.946909
3.07047
0.0253979
0.0453647
0.0347769
2.91527
5.1436
3.89111
2.57156
0.028254
0.0393698
3.01914
0.0245459
0.0253501
0.0330967
3.43219
0.0252462
3.70335
0.0249748
1.88837
0.0239779
0.0967968
0.025936
0.0237793
0.0246853
0.0259685
2.84662
0.0294957
2.71632
0.167633
0.0248222
0.0248315
0.101242
0.163282
0.0246499
2.73368
0.0415839
0.257269
0.0916455
0.0292518
2.60801
0.0257447
0.03161
0.0246347
0.0560904
0.0473659
0.0247047
0.055784
0.0261392
0.158439
0.0251883
0.109992
0.119793
0.0288098
0.174606
0.352475
0.0256809
0.0332482
0.0255237
3.17161
0.0252657
2.13764
0.0247063
0.0327005
0.025199
3.73684
0.0234165
0.0427445
0.0237649
0.0226329
2.24769
0.0255343
0.239136
2.5841
0.133153
2.64949
0.0246536
0.0231221
0.0254045
2.06602
0.0242768
0.0249721
0.0257446
0.0262057
0.023893
2.85655
0.0697818
0.0240365
2.68654
0.0254799
0.0277935
2.65426
0.0386088
1.48217
0.0245399
0.0290197
0.048728
0.0261703
2.10627
2.98288
4.86581
0.0243931
1.90596
0.0539054
2.56011
0.0254039
0.0696092
0.0547559
0.024766
0.0231482
0.0247385
0.592414
0.0328007
0.0694024
2.65586
2.86509
0.0506191
0.0515208
0.0496151
0.0835964
0.023511
1.77331
0.201355
0.058999
1.12058
0.0242319
0.0278932
0.0240721
0.1471
0.0293272
0.0278971
0.0355129
0.0252941
0.0705243
0.0275775
0.168877
0.0245353
0.0296396
0.024791
2.96833
0.0277624
0.0239752
2.32523
0.0736008
0.0261632
0.0240028
0.0248363
0.0243625
0.0247579
0.110681
3.14826
0.0247539
0.0372603
0.0456691
0.0247728
0.0248791
3.44758
0.0613379
0.0486097
3.02599
2.67912
0.10619
0.0243934
2.72076
0.0337227
0.0602398
0.15685
0.032556
0.170689
2.58718
0.0258806
4.6057
0.0740397
0.0694559
0.0727532
0.0520296
0.299265
0.0748835
0.44547
8.2201
1.42401
0.390967
0.657595
0.0278372
1.16885
1.43626
0.0268508
0.0529503
0.0276822
0.0244519
0.0241616
0.0248227
2.77034
3.10015
0.0252297
2.60949
3.89109
0.0280012
2.97418
0.664441
2.84179
3.03943
0.0350921
0.025106
0.023914
2.92503
0.154309
0.0240379
2.86744
3.10123
0.0441424
3.29634
0.0683421
0.0242782
3.08513
0.0248611
3.56661
0.0249058
2.65305
2.08566
0.0343565
2.40946
0.023652
0.0755122
0.0256976
0.0353289
0.159948
0.0247892
0.0248489
0.188582
2.58522
0.215765
0.0235617
0.0279602
0.0360447
0.0499003
0.0251577
0.184795
2.23927
0.0269269
0.0256536
0.0460185
1.72428
0.024525
0.025238
0.0245357
0.0277154
2.93453
0.0323103
0.059184
0.162615
0.025428
0.024525
2.64972
2.18367
0.0248252
4.01233
0.398002
0.0366593
0.226845
0.895287
1.56037
1.83987
0.0319765
2.83532
6.19317
0.169369
0.0267857
2.62704
0.0244109
0.0245001
0.176776
0.0329546
0.0456484
0.0981878
0.0258445
0.0238391
0.0247622
0.0247772
0.0246155
0.0422465
0.181478
0.02384
0.023132
0.0375509
0.163346
0.0237453
0.0247984
0.0279163
2.73083
0.043755
0.0238654
2.33217
1.61917
0.0325602
1.90156
0.0230423
0.147156
0.0224209
0.440483
0.0989415
0.032324
1.51476
0.0244284
0.0278619
0.0384359
0.355554
0.0324347
0.0320946
0.0521637
0.0283572
0.0230693
0.025584
0.0245258
0.0246857
0.0243709
0.04432
0.0266755
0.0263692