/*--------------------------------*- C++ -*----------------------------------*\
| =========                 |                                                 |
| \\      /  F ield         | OpenFOAM: The Open Source CFD Toolbox           |
|  \\    /   O peration     | Version:  v2012                                 |
|   \\  /    A nd           | Website:  www.openfoam.com                      |
|    \\/     M anipulation  |                                                 |
\*---------------------------------------------------------------------------*/
FoamFile
{
    version     2.0;
    format      ascii;
    class       volScalarField;
    location    "300";
    object      omega;
}
// * * * * * * * * * * * * * * * * * * * * * * * * * * * * * * * * * * * * * //

dimensions      [0 0 -1 0 0 0 0];


internalField   nonuniform List<scalar> 
15335
(
2.8485
0.17755
0.213992
0.0242459
0.0278898
0.0245731
0.072537
0.0262982
0.0228022
0.0246308
0.0253821
0.0243932
0.0688974
0.0486725
0.0351318
0.0221735
0.158328
0.140717
0.0241746
0.0301451
0.0228164
4.66267
0.0322803
0.0228269
0.186125
3.01233
0.089703
0.0234199
0.0373843
0.0489505
0.0231347
0.081124
0.0261003
0.0289683
0.0757154
0.0967033
0.0246213
0.0295408
0.0477788
0.141459
0.0234058
2.34286
0.0227342
0.0495371
0.353624
0.0233668
0.0309289
0.0250314
0.041569
0.0248613
0.0228422
0.0231323
0.0249542
0.0281784
8.7921
0.339245
0.120247
0.0316058
0.0305694
18.8643
0.17102
0.0223584
0.0249581
0.0256881
0.0277545
2.65565
0.355754
0.0244513
0.0370236
0.0226191
0.0265605
0.032077
0.0248737
0.359721
0.0254915
1.69436
0.169575
0.0267571
0.0240039
0.0915331
2.97466
0.0352376
0.0361891
0.0793886
0.0325561
10.1849
0.0257471
0.0873421
0.0245671
0.0273084
5.3541
0.0724153
0.361274
2.10714
0.0297406
0.079306
0.0226998
2.66429
0.0231245
2.68116
0.022714
0.0268609
0.15064
0.0221826
0.0244535
0.0226872
14.839
0.02499
0.0266646
0.054046
0.0283813
0.0441913
0.0249459
0.0266938
0.0259512
0.0233378
0.0557221
0.0245299
2.2984
6.52059
0.0266668
0.0753314
2.31907
0.0241752
0.0746416
0.023383
0.0242888
4.74412
0.0776523
0.0266164
0.0233884
0.0754968
0.0248315
2.83268
0.023142
0.350754
0.0247101
0.0226341
0.0517396
0.0282036
0.0252962
2.22954
0.0240935
2.99761
2.47348
0.025662
1.82831
0.0317033
0.024892
0.0574451
0.0240014
3.57478
0.0221634
0.028845
2.27932
0.024539
0.0813943
0.0249013
0.0232218
0.0320988
0.023973
0.0279075
0.0248695
0.0455054
0.0289445
0.0242061
0.0232168
3.83838
0.0230658
0.02431
0.026531
0.0243306
0.0253841
0.0245689
0.0298174
0.0284757
2.99254
0.0230803
0.0780855
2.64612
0.0253284
0.025792
0.025747
0.0282829
0.0282649
0.129189
0.0813138
0.0256889
0.0249112
12.3909
0.0243358
2.64259
0.0421163
0.0233941
0.0248772
2.40544
0.025322
0.0224029
0.060274
0.174923
0.0238991
0.0302137
0.0233163
0.0691196
2.67092
0.0271822
0.751675
0.0242508
0.081364
2.81914
0.161876
0.0300999
0.0234157
0.029223
0.170802
0.0292659
0.0261113
0.0463068
0.0257265
0.0364365
0.0289837
0.0495925
2.36382
0.0780902
0.0268698
9.27842
0.0673084
0.0251714
0.0690824
0.156479
0.0250439
0.128858
2.58093
0.0325968
0.0249686
0.0262475
0.0240965
1.00934
6.43878
0.0256942
0.0574381
0.024715
0.0594152
0.0265229
2.83581
0.0293946
0.313008
0.0291576
2.16033
2.14257
0.0286122
0.0229152
0.164166
0.0270412
0.0229083
4.45666
0.0253326
0.0263831
2.37581
0.022895
2.7593
1.8848
5.57781
0.180309
2.79347
7.47669
2.27103
0.0229954
0.172715
0.0252811
0.0991741
0.022139
2.96849
0.0231681
0.025911
2.93571
23.3912
0.0282172
0.024849
2.69801
0.0234183
0.0243233
0.0257082
0.0248666
0.0992206
0.0248687
0.0338203
0.02425
0.16305
0.029174
0.161047
0.026859
0.0231961
0.0243621
4.82546
0.0294569
0.0263462
0.0232276
0.0252289
0.0257425
0.0333782
0.0550278
1.05543
0.0260396
1.98459
0.0234292
0.0234313
0.0827634
5.71366
0.0680594
22.7953
0.0266214
0.0408664
2.95976
0.0233538
0.0268845
0.0230579
0.0230614
0.025295
0.0261429
0.0246449
0.0252573
1.19102
2.33253
0.0295956
3.06438
0.130692
0.023072
0.0230228
0.0230431
0.0233693
1.16106
1.42064
0.0302189
0.0468366
0.0226729
0.0249829
0.0282988
0.0525617
2.30802
0.0344851
0.05156
0.0868967
0.0346669
0.0284638
2.60091
0.0576721
2.15838
0.0266992
0.0268948
0.0646518
0.0230676
0.0249969
2.9729
0.772538
0.0268136
0.0260365
0.0230098
0.0245239
0.720755
0.0245329
0.0233643
0.0297145
0.0245371
0.233481
0.0263442
0.0257666
0.0253807
0.041944
0.0244113
0.0257901
0.023933
0.03192
0.0245178
0.0230769
0.0233569
0.0224082
0.0221354
0.0245986
0.0645962
2.174
0.077543
0.0343039
0.0615764
11.5328
0.0366018
0.0234207
2.53579
0.0240104
0.0243736
0.0254131
0.0419025
0.0231423
0.0268563
1.10073
0.0265501
0.0247608
0.0221813
0.0242718
2.52636
0.0354262
0.112473
0.0676514
0.0229189
0.024353
0.055671
0.0229219
0.0251601
0.109401
0.0247446
0.0229073
0.0246732
0.0251349
0.0262895
0.0548494
0.0233255
0.0244019
0.0292717
0.0244558
0.0248942
0.0570903
0.0238738
0.171952
0.0245918
0.030965
0.2243
0.0241739
0.0244262
0.0233725
0.171846
2.75675
0.0321452
0.0266052
0.10579
0.022283
0.0229156
2.93939
0.057114
0.0238672
0.0370203
0.0227232
0.0246349
0.0239505
3.40953
0.0268523
2.34661
0.0381661
0.0246542
0.0291758
0.330106
0.0274028
2.95324
0.0241343
18.7075
0.0241581
0.0248229
0.0370731
2.67303
0.0261069
0.0248906
0.0248909
0.0310177
0.0287111
0.0266547
0.0656646
0.347621
0.0285694
0.165139
0.0268351
0.0261386
0.0239871
2.91935
0.0267878
1.67015
0.0244621
0.0237842
0.0243281
0.0265224
5.87581
0.0247213
0.0258875
0.0250209
0.025155
0.0241141
0.0244371
2.17919
0.02611
0.0246469
0.023307
0.0247664
0.0257995
0.0246316
0.0242901
0.0227154
2.89995
3.0627
5.02348
0.0347497
0.0368845
0.0781813
0.0286681
3.98381
0.0244497
0.0551556
0.022646
0.0284231
0.0341073
0.0691935
0.023897
0.025113
0.0262004
0.0285345
1.78314
0.0915354
0.0289346
0.0227488
0.0246838
0.0236564
0.0859552
2.41906
15.617
20.1981
0.0266854
0.0230671
0.636202
0.024098
1.99954
0.0259221
0.0231847
0.0244848
0.0256544
0.0592719
3.05852
0.0240443
0.0772051
0.0365036
3.14746
0.0318962
0.0228646
0.0264349
0.0394821
0.0599386
0.0243663
5.98252
0.0245722
2.31426
2.80677
0.0252225
0.0610955
0.038955
0.0454679
0.0242609
0.0226524
0.0231127
5.94236
5.03767
0.0239043
0.0264094
0.0246936
3.6828
0.0379025
0.0244797
0.0355798
0.0244254
0.538744
0.0260665
0.0350566
0.0302214
2.96264
3.2969
2.51928
0.0242502
0.0231414
0.0568937
0.0249388
0.0231321
0.0242836
0.0251258
0.024567
2.55182
2.26977
6.48364
0.0462942
0.0284755
0.0370818
3.84085
4.35821
2.63115
0.0314989
0.0232091
0.0233959
0.0268649
0.682442
0.0258208
0.0238949
3.57181
0.0302859
5.7006
0.0237683
0.162508
0.0288107
0.0345544
7.45819
2.4384
0.0297844
0.0233827
0.0488349
0.024812
2.15882
0.0459072
2.32621
0.349759
0.791193
0.0233999
0.0253747
0.0626469
0.0548821
3.50769
0.0260301
0.0229852
0.0242308
0.0246856
0.0244471
0.0266985
0.0754467
0.023363
0.0228849
0.0221402
0.0244736
0.0328347
0.025264
0.0952411
0.0233837
0.028764
0.049284
2.62905
0.159129
0.0245527
0.0232238
0.0340088
0.0597569
0.0242988
0.024472
0.280997
0.0246649
0.0650456
0.0473116
0.0227895
0.0264557
6.10943
1.79045
0.024634
0.0232386
0.0237397
2.96236
0.0240713
0.633808
0.0246729
0.0266478
0.0249405
0.0239437
0.0361466
0.083938
1.05747
0.0232014
2.31599
0.0253242
0.0248721
0.0356733
0.0241229
0.0254387
0.0268576
0.0295423
0.0238925
0.0538684
0.0240396
0.0245639
0.0242641
0.0281662
0.0317629
0.0237969
0.358377
0.02677
0.0228887
3.03635
3.5224
0.0647016
0.0237553
0.0269629
0.0242754
0.0484438
0.0534566
0.0241327
0.0300239
0.0244689
6.14334
0.338169
0.024736
0.0261063
15.274
0.0246923
2.89888
0.441057
0.0253898
0.0227268
17.4087
0.0278607
0.0369722
0.0340954
0.126907
0.0240665
0.0252046
0.0694633
0.0241552
0.0259809
3.06931
0.0844088
0.177378
0.0287243
0.0243657
0.0228951
0.0239553
0.0246951
0.0248273
0.0353531
0.0335451
0.329507
3.67299
0.0367882
2.03362
3.01701
0.0793726
0.0242724
0.0233227
0.0233496
0.0253803
0.0228583
0.0258691
0.0242623
0.0249158
0.0251148
0.022898
5.64072
3.13445
0.0242615
0.0816553
0.0246149
2.61776
0.0310473
0.0785509
0.0241046
0.0411105
0.0252276
0.033206
0.0251848
0.0223345
5.89835
0.0273386
0.0454039
2.03911
0.0271906
2.97873
0.0239615
0.628607
0.0228739
6.82759
0.024616
0.0228874
0.030084
0.0898587
0.0430145
0.0243573
0.0283054
0.0598672
0.0282995
0.0285055
0.0334183
0.151305
0.0230408
0.102414
0.134579
0.0245145
0.0232765
0.0249899
3.11796
0.0287591
0.0240876
0.101742
0.0663199
0.0297908
1.2598
0.328946
0.0244102
0.0474033
0.0248704
2.63947
0.0279017
0.0244432
0.137131
0.0280555
0.102008
0.0332399
0.024335
0.0281341
0.0389492
0.024932
0.032524
0.0254884
0.0247912
0.336891
0.0358896
0.0341534
0.0571102
0.0308578
0.0248689
0.158497
0.0233362
0.0252305
0.024673
0.061968
0.0249676
0.0258427
0.0245559
0.0664024
0.0244849
0.0252531
0.0233221
0.0487609
2.42713
0.0268898
0.177604
0.0238322
0.024012
0.0230564
1.32901
0.0231542
0.0230607
0.0233706
0.0228932
0.0258857
0.0631268
0.0241317
0.0377646
0.0230625
0.0244323
0.0240416
0.0221568
2.89168
0.0263719
0.0225437
0.0241448
0.0244306
0.0229615
0.0297936
0.026847
0.0243639
0.0250018
1.83267
0.0242635
5.90904
0.0233994
0.0242264
0.0218239
0.0229496
0.0232713
0.482294
2.34803
2.82152
0.0245215
0.0522931
0.0766768
0.0479899
0.0262957
0.0242233
0.135085
0.0246047
0.0254407
0.0262012
0.0238181
0.0317208
0.0265072
0.0444378
0.0273307
0.0226083
0.0248148
0.0245045
0.0279283
0.0241433
0.102699
0.986793
0.024845
0.0490643
0.0245799
0.0225895
0.0222767
0.0275375
3.60621
0.0233381
2.5446
2.10455
0.0240307
0.694502
0.0245109
0.0244626
0.0671928
0.0254558
0.0439415
0.0240485
5.66209
0.0241788
0.0383202
0.0226022
1.42702
0.0256019
0.0255846
0.0238828
0.0480092
0.0234191
0.0657897
0.0238899
0.0239411
0.0233082
0.0285627
0.0990918
5.27996
0.0240509
2.46804
5.93833
0.036854
0.0309877
0.322226
2.97786
0.0646689
1.56936
0.357265
0.0230496
0.0232944
0.0357597
0.0244237
0.0244675
0.0562494
0.0478621
2.71323
0.0242867
2.41071
0.0246648
0.081601
2.70351
0.0345543
0.0232586
0.150251
0.0268862
0.0250858
3.04158
0.026902
0.0251351
0.024027
2.48346
0.0225972
1.99753
0.0245138
0.0563775
0.0402034
0.0439625
3.50443
0.0260275
3.00466
0.0469265
0.0226085
0.151189
0.0251142
0.0476095
0.0225925
0.0294293
0.8743
2.5606
0.0225915
0.182847
5.64621
0.0226049
1.14974
0.0283938
0.027126
2.88346
3.12763
0.0232065
0.0403004
0.106825
0.167255
0.0296019
0.0247524
0.0292818
0.0237266
0.948045
0.0232192
0.0263121
0.022605
0.0260308
0.027071
0.0279649
0.478504
0.708734
0.0248135
0.0543699
0.0249003
2.24448
0.0255867
0.0253777
0.0992466
0.0243807
0.0236464
0.0249705
0.0222022
0.0244492
0.0286203
0.0252399
0.0227133
0.0252459
0.0244561
4.2622
0.0242612
0.0241619
0.0242941
0.0253628
3.37236
0.0228593
0.0240333
0.164654
1.29329
0.0228527
0.157346
0.0249285
0.898479
0.0512325
5.49614
0.0294171
0.0246945
1.54129
0.024564
0.11458
0.0244287
0.0518332
0.0239788
0.0600321
0.0534108
0.0243033
1.05062
0.0259548
5.95325
0.0713428
0.0236929
0.0254539
0.0228711
0.0294301
0.0249405
0.716697
2.37843
0.0223816
0.0254332
0.0253693
0.0240675
0.0244957
0.0285118
0.0232808
0.0630496
1.52107
0.0244146
0.0237967
0.0271425
0.0229216
0.0252568
0.0232671
3.15985
0.0262977
1.32982
5.49759
0.076989
0.0246253
0.0247556
1.93294
0.026428
0.0249542
2.22828
7.2586
0.0254547
0.0298389
0.02434
0.0258733
0.0292965
0.0414975
0.0237883
2.06837
2.82697
0.0470023
0.0243819
2.10758
6.78741
0.0283559
0.0269814
0.0244875
0.0245451
0.0226072
0.0244206
0.0244776
0.181352
0.0249584
0.0246838
0.0289217
0.0240445
2.38265
0.0241555
0.0236419
0.0226201
0.0251945
0.0328814
0.0508805
0.0243258
0.0248336
0.106906
0.0228846
0.0247998
0.0239736
0.0259642
0.999884
1.13658
0.0238708
0.0246679
4.68457
0.050495
0.023424
0.0222156
0.0226024
0.0241532
0.0361464
0.0243266
0.0236607
0.0240375
0.0250723
0.967917
0.0555944
0.0245715
0.0453083
0.660198
0.0271688
0.123743
0.0544762
1.72285
0.153782
0.171908
0.0259875
2.81394
0.774344
0.0812022
2.68569
0.17958
0.0258712
0.171586
0.0261391
2.80166
2.98709
2.06579
2.3943
0.0225884
0.961706
0.0248327
0.0226676
0.0423192
5.38334
0.0286471
0.0413577
0.0245303
0.0226407
0.0263054
0.0248295
0.0263899
0.0226406
0.335425
0.0476461
0.034861
0.0239145
0.0232538
0.0365125
0.0239923
0.0367392
0.0248525
0.0243371
0.0226523
0.0249254
0.0250739
0.0246798
0.0240879
0.0225966
0.0649244
0.0240905
0.05542
1.81639
1.55632
0.0320007
0.133333
0.0232398
3.00323
0.027696
1.13187
0.0231962
0.0226031
0.0244324
0.0311065
0.0245046
0.0248637
2.59343
0.143708
3.01937
3.01088
0.182416
0.663805
0.0244954
0.0249598
0.453985
1.68063
0.0243392
0.02446
0.0236121
0.32615
0.0249464
2.62794
17.2965
3.13887
2.8998
0.0311226
0.0296509
18.1059
1.96141
0.732127
0.0244805
7.95619
0.0244736
0.329646
0.022611
0.0243764
0.0244366
0.0228482
3.00624
0.0236528
0.0511867
0.0748351
1.33845
0.0244482
0.0297049
0.0353938
2.39088
2.51351
0.0328906
0.095615
2.33194
0.0226132
0.0226221
0.0310908
0.0273409
0.0770077
0.0843675
0.0248147
0.0483573
1.45538
0.0231656
0.0236216
1.29143
5.39465
0.0329971
0.0243435
0.0269465
2.28203
0.0248417
0.0322872
0.0228445
0.0523649
0.0262935
3.28676
2.04751
0.0246797
0.0286707
0.0243753
0.128152
0.0266123
0.0365956
0.0253295
0.0243826
2.97623
0.04329
0.0469239
0.0254699
0.026012
0.0274441
1.41162
0.0710365
0.044488
0.0794565
1.88988
0.554385
0.0263618
0.112803
6.38785
0.0226348
0.0251345
0.0503159
2.56883
0.0231855
0.0236698
1.28485
0.0824199
0.0241087
0.0350955
0.0245078
0.0500486
0.682419
0.0226669
2.27222
0.51107
0.0240065
0.0247455
0.0236824
0.0229946
0.0232124
0.02731
5.37651
0.0232265
0.0251936
0.0738823
1.79487
0.0221886
0.0434255
0.0232957
0.0229944
0.0239578
0.0240365
0.0242704
0.0282087
0.025449
5.05016
4.61424
0.0501246
3.14041
0.624089
0.02924
0.0241749
0.381291
0.0226776
0.0233309
0.0286979
1.97897
0.46016
2.33805
1.12229
3.02929
0.0241336
6.61447
0.034336
1.15973
2.98624
0.0242574
0.0251279
0.0290792
0.0237269
0.024927
0.0285392
2.97726
0.0242647
0.033203
0.0229086
3.15717
0.0240846
2.81885
0.0242632
0.0219015
2.75807
0.0584602
0.0256415
0.0270117
0.0234141
0.125557
0.115669
0.0233005
0.024272
0.0237345
0.0469939
0.074055
0.077409
2.29422
0.0265337
0.0281899
0.0246735
0.0246113
0.0342835
0.0244893
0.023699
0.0235592
0.0246846
0.0241024
0.0247182
1.15685
0.0248201
0.0241211
1.59681
0.0913204
0.0249544
0.0591098
0.594099
0.0256926
0.0256549
2.86709
0.0254703
1.74228
0.700408
0.0243366
0.0283721
3.1197
0.0242401
0.0281063
0.100058
0.0706906
0.0240222
2.11964
6.89233
0.0270581
0.0261589
0.0630909
0.0907296
0.0221346
0.0240315
0.0244341
0.0264733
2.92827
1.42155
1.51919
2.29715
2.86241
0.0282826
0.0273843
0.400019
0.022269
0.0330737
0.0459691
0.0302113
0.0229256
0.0463243
0.0234732
0.0247614
1.84461
1.80432
0.0500191
1.11768
0.0254166
0.0263102
0.161781
1.84355
0.0794498
2.43977
0.0254881
0.170865
2.26735
0.0424235
0.0272734
0.282269
0.0303033
0.131129
0.0245638
0.0427512
0.0297044
0.058087
0.0246649
0.0744533
0.027089
0.0239899
0.0248322
1.29522
0.99855
0.0283654
0.0436007
0.839803
2.91653
0.022661
0.028759
0.0329386
0.160511
0.0248354
0.0233614
0.024962
0.0252668
1.66077
0.026907
0.161809
0.0242091
0.0249471
2.08753
0.0244527
0.0246982
0.0430835
0.0278574
0.0246651
0.0244687
0.0257963
0.0433217
0.033958
0.0299168
0.0452552
0.0251844
0.0245099
0.0247979
0.0245653
0.545728
0.026134
2.86695
0.0260949
0.024262
0.0465037
0.024743
0.0268718
0.0257971
0.0244013
0.0246245
0.0246735
2.73087
0.0242696
0.0350851
0.0246904
2.89585
1.73027
2.29414
0.0247805
2.51375
0.0247601
0.035867
0.0245063
0.0242733
1.77972
0.0427099
0.0247756
0.0537094
3.60982
0.0271959
2.43898
0.0268665
1.33363
0.633924
0.0246974
0.0244648
0.02471
0.0484656
0.0238128
0.0236594
0.0242812
1.22498
0.17969
0.107989
0.0253874
0.0244581
0.948838
2.74192
1.4407
0.901911
1.10131
0.0238257
1.65493
0.0254738
0.0360958
1.06684
0.0231387
0.0247073
0.0267391
0.627301
0.169797
2.92939
0.0240403
0.0265387
0.025162
0.0747353
2.73108
0.0288203
0.0501361
0.0256176
0.0329129
0.0292795
0.0232001
2.864
2.5034
0.0264781
0.0267441
0.0269961
0.162227
2.61519
0.0271965
0.0239358
0.0245485
0.0239713
0.0245003
2.95941
0.0828554
0.0239142
0.044283
0.02455
0.0241248
0.0250998
0.0241506
0.024553
4.46164
0.0427779
0.0422092
0.0239285
0.0659586
0.0229682
0.0239814
0.023739
0.0236502
0.0228556
0.0248513
2.89073
0.0236555
0.696133
1.39393
0.0726112
0.0372928
0.0245877
1.8484
0.957417
0.024864
6.65034
0.0264867
0.262699
0.023822
0.13356
0.0433387
0.0240287
0.025941
0.0257503
0.172973
0.0243695
0.0243592
0.0239295
0.0561
0.0249526
0.0241173
0.055577
0.028919
0.0232849
0.0245449
0.284492
0.0243858
2.497
0.026574
0.032816
0.0755199
2.35721
1.50849
0.0249669
0.024653
0.0246674
0.0250033
2.57666
3.38418
0.0269712
0.0236837
0.960182
0.0258347
0.0252544
0.0228595
0.036858
0.0250439
0.11584
2.69872
0.025494
0.166379
1.70016
0.0535951
0.0723781
0.0848167
1.77402
0.32475
0.0267341
0.579994
0.0257496
0.0406756
1.32107
0.0281145
0.0246798
0.0249563
1.40835
0.80843
1.12623
0.0264969
0.0243102
0.192479
0.0261294
5.76141
0.0229558
2.87075
0.104285
0.024037
0.0239691
2.0125
0.0285015
0.321792
0.0266576
0.0282118
0.0267962
0.148575
0.0244323
0.0288906
2.68982
4.86467
1.82009
2.15193
0.023997
0.317219
0.0241021
0.0273391
0.0256133
0.414256
0.0227195
0.0414673
0.0244934
0.0248313
0.0578289
3.26209
2.50119
0.0270493
0.0657562
6.7068
0.0238868
0.0245499
0.024343
0.0250252
0.154044
0.0249815
0.0245313
2.02097
0.0246478
2.70371
3.05262
0.0550766
0.0230956
0.022504
0.0348313
0.197365
0.0289895
0.0236579
0.0236404
0.0230745
0.0481486
6.58845
0.154717
0.0244073
0.036278
0.0239392
0.137871
2.38185
0.0564532
0.0246754
0.0471117
0.0336693
0.0238292
0.0263937
0.0767067
0.024771
3.16138
0.107219
0.0232988
0.68611
0.0517943
0.0248347
0.0241656
0.0234312
0.0245538
0.025576
0.0229142
0.0246552
0.023998
0.0280353
0.0245373
0.0250761
0.0243458
1.69499
0.0260597
0.0233367
0.326239
0.156746
2.64036
0.0233238
0.0240836
0.0249052
0.0232131
0.023121
0.0247079
0.0805485
0.0951715
0.0253543
0.0243369
0.0244491
0.0264624
0.0445034
0.0251577
0.0233095
0.116181
0.0248344
0.024298
0.153303
3.1102
2.9426
0.031283
0.0243713
0.0311616
2.8097
0.0239522
0.0246984
0.027861
0.0245616
3.47373
0.0255733
0.0245608
0.023308
0.0242885
0.733398
0.0240127
0.0232049
0.86636
0.0480577
2.62979
0.0230193
3.84062
0.023287
0.028447
0.0242601
2.68679
0.0234457
0.0298801
0.0297035
0.0303649
0.0283439
0.0459054
0.0249452
3.14933
0.0288519
0.157872
0.0248262
0.0283969
2.45811
0.0291453
0.0503957
0.0239246
0.0239214
0.025664
0.0324344
0.0360265
2.9504
2.84624
0.0240249
0.0230525
0.650238
0.0244136
0.145106
2.62441
1.90513
0.315856
1.23499
2.13012
0.0230151
0.670653
0.0336106
0.842629
0.0322509
0.0774784
1.38666
0.0249871
0.0231735
0.0238982
0.0244019
0.317518
1.69331
0.033194
0.177363
0.022172
0.0237113
0.0271247
0.275579
0.0241865
0.027607
0.0239029
0.024349
0.0320805
3.92953
8.81765
0.0242987
0.0728193
0.0239312
0.0246347
0.0507415
0.027189
0.0285079
1.47276
0.0224522
1.68619
0.0237921
0.023395
0.0259567
0.0232404
2.81043
2.46169
0.0333987
0.025153
0.0227762
0.0253136
0.0225142
0.0249918
0.0274223
0.030079
0.131243
0.160855
0.0458472
0.0463153
0.0339473
2.09754
0.127863
0.0300591
0.0249329
0.0306468
0.0410007
1.28258
0.0279794
0.0291477
0.0234
0.0261025
0.0793711
0.0240636
0.11029
0.0247044
0.0225509
0.0403496
2.36508
0.0247134
0.0253437
3.53479
0.0926667
0.159743
0.030755
0.0930951
0.301493
0.0270913
0.0243529
2.65731
0.0526212
0.0237271
0.29532
0.0223259
2.70645
0.0299547
0.0285699
0.0255477
0.023011
0.649778
0.026329
0.0561776
2.64533
0.0471563
1.78615
0.0590063
1.34613
13.4816
0.0244917
0.0244408
0.0243985
3.08633
2.8393
3.15304
3.00711
2.54572
3.31537
0.0244173
0.024879
0.0239018
3.96596
5.37646
0.0273369
2.12075
0.0239334
3.66234
0.0246497
0.0251685
2.90713
0.0267715
0.0247903
0.156682
0.0280521
0.0263986
0.0252362
0.0265151
0.0618279
1.7596
0.024424
0.0238477
0.102235
0.874372
1.41611
0.0242789
0.0251598
0.0510289
0.0234312
0.0385666
1.88469
0.0321706
0.0287142
0.0335993
0.023151
2.89767
0.0234411
0.0475434
0.0246236
0.0261719
2.0011
0.100083
0.024549
0.0239722
0.0244052
0.0275588
0.046139
0.0221208
0.0242807
0.0264429
0.0328111
0.0287417
0.0249274
0.02567
0.183877
0.0231661
2.34289
0.0753915
0.0269306
0.0235783
0.0443521
0.0614312
0.0323253
12.5904
1.08665
0.0882347
3.06502
0.0246459
1.56674
0.0245678
0.337039
0.0237698
0.44916
0.0236415
2.75782
0.732044
0.0597029
0.0242524
3.37005
1.5579
5.19592
0.0246823
0.0656994
0.0361898
2.41373
0.0447987
3.42158
0.0245077
0.0245468
0.0338758
0.119183
2.1254
0.0317576
0.0265824
0.591965
0.0446847
0.026725
0.0267376
0.0240254
2.42992
0.0248899
0.0238124
0.024801
0.449938
0.129072
0.0230483
1.54969
2.77928
0.0236713
0.0237475
0.0266813
0.0242931
2.00621
0.0242837
0.155154
2.13059
0.0240428
0.0290936
1.93108
0.0498264
0.0245277
0.0242403
6.53639
0.0233793
0.0237657
0.0590595
3.16543
0.0258465
1.85576
0.0248976
3.28403
0.0269915
0.164351
0.0237978
0.0243916
3.10312
0.0350047
0.0244862
3.7087
0.184821
2.4603
0.574297
1.5571
0.283004
0.0266763
0.0268521
0.0238106
0.0241889
0.0234591
1.52199
1.92865
0.591017
0.0245765
0.151999
0.0955331
0.0249174
0.024391
0.0241992
0.0424147
2.39552
0.0252114
2.19739
0.031461
0.024744
0.0236997
0.0458632
2.117
0.0304747
0.0259025
5.11878
0.618434
0.085474
0.0318708
0.0264835
0.0243046
6.60258
0.0246446
1.79352
0.0234264
0.0241643
2.66853
0.023086
0.0418328
0.071219
0.369877
0.023902
0.0234396
2.3044
0.0249151
0.0242688
0.0246205
0.0353413
0.0267573
1.29187
0.0245636
0.0237325
0.0399859
0.874792
0.0246291
2.20062
0.0245636
0.0266682
0.0346454
1.48845
0.0243539
0.0239021
0.026081
0.0242999
0.0411693
0.036451
0.0237258
0.0244674
2.74025
2.04504
0.0238946
0.023792
0.0220166
3.30836
0.0262247
0.026204
2.14861
0.0977707
0.0243904
0.632302
0.0287841
0.0249838
0.0272699
0.0247447
0.0236082
0.0242289
0.0239352
0.0231296
0.0245366
0.0237785
0.0261036
0.0235536
0.0247048
0.0208383
0.061322
0.0516109
0.0245345
2.23913
0.0246553
0.0291448
0.0249153
0.0245137
0.0461291
0.0684637
0.024312
0.0232092
0.0262157
0.0401062
0.0246558
0.520291
2.23316
3.15826
0.791927
0.0230835
3.5291
2.11605
0.131817
0.0452004
1.91778
0.0265135
0.0249887
0.149204
0.0249024
0.0251116
0.0243479
0.0314628
0.0243337
0.0236124
2.19265
0.0447863
0.0432253
0.023747
0.0508653
0.0255193
0.0244156
0.0243815
0.0234497
0.0248504
0.024625
0.0247212
0.0494115
3.11471
0.0233686
2.23633
3.92238
0.0245128
0.0242041
0.147929
1.45018
0.0242875
0.0244798
2.42228
0.0244287
0.0244227
0.0756365
0.0231295
0.0245365
0.0244374
0.0247669
1.09551
3.02812
0.0249998
0.0242202
0.0244199
0.023938
0.0225732
0.0240541
0.0243829
0.0250026
2.41575
1.75078
0.0247662
0.0447099
0.488613
0.0255798
0.158656
0.0290206
0.0247741
0.0239458
0.0237619
0.0232904
0.025583
0.297121
0.0244959
0.0686947
5.51521
1.75363
2.98297
0.0243572
0.0289437
0.0278022
0.0862843
0.0290423
0.0259618
0.0267852
0.167414
0.0247343
0.0262727
0.095827
0.770638
0.0466319
0.0271843
0.0241965
2.48409
2.90446
3.5163
0.0245184
0.0240305
0.0234339
21.6053
1.53768
0.0224748
0.0363652
0.109658
0.837789
0.0348016
0.0256866
0.0884575
0.0237288
0.0232587
0.0246312
0.0269049
1.9653
0.0234243
0.0289071
0.0240202
0.131189
5.12343
0.06829
2.38745
0.580275
2.00773
1.84599
0.0254907
0.035289
0.0244999
3.07421
0.0243451
0.392758
0.0293517
0.622647
0.054327
0.582773
0.715123
0.0305218
0.024002
2.097
2.24634
0.0242484
2.26924
0.0270042
0.0244081
0.0287989
2.74161
0.0239718
0.0221119
0.0245251
0.024518
3.04463
0.0410397
0.024353
0.0261876
0.0300273
0.19058
0.0320692
0.0739323
1.07902
0.074949
0.0445868
0.170598
2.08271
0.0337844
1.59088
0.372989
1.91074
0.0930803
0.310792
0.0239183
0.0477548
0.0238564
2.57498
2.65069
0.0246328
0.0270764
0.0516059
2.74273
0.047146
1.78937
0.0255256
0.02262
0.0238952
2.97259
0.0267587
0.0445851
2.39782
0.0230611
0.0231237
0.0259774
3.63842
2.63449
0.0243604
0.023624
0.0240006
2.18108
0.0236264
4.63531
1.95502
0.0230964
0.0262223
0.0285482
0.0230843
0.0482408
0.0245527
0.264792
0.109622
0.0247128
0.0235398
0.0228087
2.26873
0.0259273
0.0546678
3.11333
1.99116
0.0261363
2.87886
0.995915
1.65584
0.113514
0.0265134
0.0244752
2.11863
0.0425428
0.0245148
0.0215212
2.3987
0.0440722
0.0245612
0.0508839
0.0226687
0.024485
0.0251332
0.023112
2.61317
0.063277
0.0448754
0.0565317
0.0906862
0.0275491
0.0255396
1.20514
2.70162
7.57209
3.97661
0.0251262
0.0248496
1.29718
0.0228872
8.89114
0.0247157
0.0233886
0.0451321
0.061823
0.0436968
0.06501
5.31361
0.0227774
0.0443469
0.0433007
0.625006
5.11796
2.08294
1.59082
0.0240593
1.53821
0.030053
0.0249153
0.218478
0.0230553
0.0266602
1.9356
0.0286339
0.0324878
0.381058
3.67048
0.573385
0.0605173
2.12392
0.168001
0.0254489
0.0239181
2.43915
0.0257362
1.87681
2.16183
4.22838
0.0242603
0.0244829
0.0227973
0.0704213
0.0221819
0.0244057
0.0232231
2.30791
0.0256537
0.0245386
1.49872
0.0237764
12.7532
0.0410868
0.0287385
1.41318
4.21891
0.0732333
0.155752
0.0291527
0.0944286
1.62301
0.024255
2.24227
0.0517594
0.0245151
2.99247
0.0293238
2.78305
0.0239552
0.0246522
0.0231685
0.0241601
0.878508
0.0243968
0.0242552
0.161387
0.0242729
0.0239396
0.586728
1.53108
3.76378
0.0245037
0.0242237
2.83373
0.0229633
0.0824947
0.0242487
1.77521
0.07368
2.46179
0.113987
0.0474425
0.023991
0.0239231
0.165059
0.054923
1.08912
0.0782948
0.0810183
0.202895
0.0240628
2.14283
0.161354
2.48144
0.467632
0.0341076
2.71666
0.111047
0.887833
0.0525199
0.0248368
1.13839
4.11225
0.0512628
0.0260388
1.24659
0.0236985
2.62058
0.0239308
2.28777
0.0230291
1.0617
0.0285831
0.023558
0.0235038
2.57469
6.9388
1.915
0.0242637
0.0242474
0.0499486
0.0243668
0.0246123
0.0272219
2.68355
0.0497749
0.0231393
0.0244406
2.2933
0.0258184
0.109969
0.0244376
0.0248246
2.7346
1.6518
2.48059
0.023653
2.3439
0.0240246
0.0489332
0.024344
0.027062
0.129173
0.0242281
2.791
0.0257874
0.626926
0.169655
0.024577
0.0243334
0.0285354
0.027855
2.38806
1.56137
0.0289313
0.25036
0.0231474
2.84721
1.31318
0.0245627
0.129
0.0227592
0.5259
0.112492
2.80966
0.0248498
2.45054
0.0276661
0.0242359
0.0247591
0.0783361
0.0246367
0.0244556
2.57774
0.0296613
3.73217
2.58874
0.0287083
0.0234944
0.02783
2.64644
2.50584
0.0247204
0.0527137
0.159128
0.0248027
0.162927
0.0245562
0.0770847
0.0268424
0.0256071
0.0431403
0.497172
0.0339693
0.0247315
0.828316
0.0938798
0.0252763
0.0246778
0.025159
0.0239337
2.75838
0.024623
0.0269498
3.25355
0.0265734
1.36306
0.0235374
0.350569
0.0250544
1.32
0.042307
0.0287548
0.104448
0.0221447
0.0221268
1.85905
0.0254119
1.11055
0.0231568
0.0635923
0.0462867
0.0244066
0.0980909
0.0330041
5.89172
0.0285648
2.37808
0.12704
0.0236295
0.0245694
2.13255
0.0879375
0.0221767
0.0245823
0.0324405
0.0253376
2.90629
0.0243336
0.470942
0.0244875
1.6985
0.191573
0.0604143
0.0476925
0.0248782
2.75666
0.0237501
0.716394
0.0610367
2.00836
0.0634469
2.73168
0.0243797
0.0245401
0.107189
0.551783
0.0242744
2.74628
0.0235705
0.173526
0.0517414
2.73254
0.0247765
0.0335046
0.0596021
0.0294673
0.0483352
0.0238067
0.0247695
0.0621828
0.0732666
0.0862218
0.024804
3.26878
2.2551
3.27894
0.0252561
2.78635
0.187246
0.16659
0.0236537
0.02474
0.0248409
0.0283264
2.59681
0.0271361
2.77512
0.024664
2.42888
0.110681
0.0247802
0.104261
0.0248835
2.70047
0.726127
11.9704
0.0340494
0.0251884
0.0285002
0.164936
0.0454291
0.0228783
1.75104
3.45653
0.0249902
3.15974
0.180123
0.204314
1.087
0.0247025
0.946801
3.07049
0.0253979
0.0453647
0.0347769
2.91528
5.14362
3.89114
2.57154
0.028254
0.0393698
3.01915
0.0245459
0.0253501
0.0330967
3.43216
0.0252462
3.70334
0.0249748
1.88836
0.0239779
0.0967981
0.025936
0.0237793
0.0246853
0.0259685
2.84663
0.0294957
2.71633
0.167635
0.0248222
0.0248315
0.101243
0.163311
0.0246499
2.73363
0.0415839
0.257273
0.091644
0.0292518
2.60799
0.0257447
0.03161
0.0246347
0.0560905
0.047366
0.0247047
0.0557841
0.0261392
0.158405
0.0251883
0.109994
0.119798
0.0288098
0.174606
0.352525
0.0256809
0.033248
0.0255237
3.1716
0.0252657
2.13765
0.0247063
0.0327005
0.025199
3.73689
0.0234165
0.0427445
0.0237649
0.0226329
2.24769
0.0255343
0.239089
2.5841
0.133153
2.64949
0.0246536
0.0231221
0.0254045
2.06602
0.0242768
0.0249721
0.0257446
0.0262057
0.023893
2.85656
0.069782
0.0240365
2.68654
0.0254799
0.0277935
2.65424
0.0386088
1.48236
0.0245399
0.0290197
0.0487281
0.0261703
2.10633
2.98289
4.86587
0.0243931
1.90596
0.0539053
2.56009
0.0254039
0.0696093
0.054756
0.024766
0.0231482
0.0247385
0.592607
0.0328007
0.0694023
2.65583
2.8651
0.0506191
0.0515209
0.0496152
0.0835954
0.023511
1.77333
0.2014
0.0589989
1.12063
0.0242319
0.0278932
0.0240721
0.1471
0.0293272
0.0278971
0.0355129
0.0252941
0.0705238
0.0275775
0.168876
0.0245353
0.0296396
0.024791
2.96834
0.0277624
0.0239752
2.32524
0.0736007
0.0261632
0.0240028
0.0248363
0.0243625
0.0247579
0.11071
3.14828
0.0247539
0.0372603
0.0456691
0.0247728
0.0248791
3.44761
0.0613341
0.0486098
3.02602
2.6791
0.106189
0.0243934
2.72074
0.0337227
0.0602397
0.156884
0.032556
0.170701
2.58716
0.0258806
4.60575
0.0740403
0.0694559
0.0727528
0.0520297
0.299185
0.0748833
0.44546
8.22006
1.42433
0.390844
0.657264
0.0278372
1.16778
1.43632
0.0268508
0.0529505
0.0276822
0.0244519
0.0241616
0.0248227
2.77033
3.10018
0.0252297
2.60947
3.89109
0.0280012
2.97419
0.664549
2.84179
3.03945
0.0350921
0.025106
0.023914
2.92504
0.154331
0.0240379
2.86745
3.10124
0.0441425
3.29632
0.068342
0.0242782
3.08513
0.0248611
3.56658
0.0249058
2.65306
2.08567
0.0343565
2.40945
0.023652
0.0755119
0.0256976
0.0353289
0.159943
0.0247892
0.0248489
0.188603
2.58521
0.215658
0.0235617
0.0279602
0.0360447
0.0499002
0.0251577
0.184786
2.23923
0.0269269
0.0256536
0.0460184
1.72438
0.024525
0.0252379
0.0245357
0.0277154
2.93454
0.0323103
0.059184
0.16262
0.025428
0.024525
2.64969
2.18368
0.0248252
4.01238
0.397924
0.0366593
0.226801
0.897579
1.55914
1.83986
0.0319765
2.83533
6.19319
0.169376
0.0267857
2.62704
0.0244109
0.0245001
0.17674
0.0329546
0.0456485
0.0981876
0.0258445
0.0238391
0.0247622
0.0247772
0.0246155
0.0422465
0.181453
0.02384
0.023132
0.0375509
0.163325
0.0237453
0.0247984
0.0279163
2.73084
0.043755
0.0238654
2.33218
1.61914
0.0325602
1.90156
0.0230423
0.147167
0.0224209
0.440405
0.0989408
0.032324
1.51483
0.0244284
0.0278619
0.0384359
0.355521
0.0324347
0.0320946
0.0521638
0.0283572
0.0230693
0.025584
0.0245258
0.0246857
0.0243709
0.04432
0.0266755
0.0263692
0.151733
0.479876