/*--------------------------------*- C++ -*----------------------------------*\
| =========                 |                                                 |
| \\      /  F ield         | OpenFOAM: The Open Source CFD Toolbox           |
|  \\    /   O peration     | Version:  v2012                                 |
|   \\  /    A nd           | Website:  www.openfoam.com                      |
|    \\/     M anipulation  |                                                 |
\*---------------------------------------------------------------------------*/
FoamFile
{
    version     2.0;
    format      ascii;
    class       volScalarField;
    location    "300";
    object      p;
}
// * * * * * * * * * * * * * * * * * * * * * * * * * * * * * * * * * * * * * //

dimensions      [0 2 -2 0 0 0 0];


internalField   nonuniform List<scalar> 
15335
(
-0.0290653
-0.0251479
-0.00688302
0.00165153
-0.0143703
0.00267958
-0.0331054
0.00160209
0.00047618
0.000444956
-0.00867643
0.00191387
0.00955021
-0.0123526
-0.02212
1.9943e-05
-0.026723
-0.0378094
0.00122311
-0.019053
0.000475762
-0.0267209
-0.0192746
0.00046012
-0.00550151
-0.0234775
-0.0340966
0.00135814
-0.0230959
0.00193473
0.000845227
-0.0319729
0.000461298
0.00583314
-0.0312896
-0.0291269
0.000615297
0.00583786
-0.0129447
-0.0365307
0.00148668
-0.0295751
0.000450064
0.00801248
-1.49999e-05
0.00132558
-0.016267
6.28608e-05
-0.0243453
0.00182489
0.000473966
0.0007854
-0.00205101
0.00455773
-0.081046
0.000339567
-0.00912272
0.00155756
0.00603209
-0.042512
-0.025487
2.62018e-05
-0.00191003
0.00422331
-0.0140379
-0.0356699
-0.000175469
-0.0010475
-0.00968208
0.000339138
0.00180314
-0.0190409
-0.00280109
-3.01013e-05
0.00194053
0.0140592
-0.026473
0.000260603
0.00108246
-0.0287909
-0.0249972
-0.0208699
-0.0210939
-0.0238067
-0.00486534
-0.0762317
0.00425801
-0.0335213
0.0024399
0.00448684
-0.0241034
0.0100049
7.03401e-05
-0.0306961
-0.0186924
-0.0240665
0.000408206
-0.0363865
0.000822402
-0.0354334
0.000414265
0.00503244
-0.0255448
1.18296e-05
0.000518188
0.000381993
-0.0799746
0.00389776
0.00256715
-0.0147757
0.000487198
0.00710791
0.0016781
0.00119844
0.00149522
0.00122949
-0.0291412
0.000993564
-0.0261691
-0.0308849
0.0048267
-0.0334589
-0.0831071
0.00118165
-0.0308477
0.00119369
0.00078652
-0.0283295
-0.0310793
0.00248637
0.00112446
-0.0339604
0.000819251
-0.0283295
0.000648912
0.00033573
0.00340056
0.00034781
-0.0149917
0.00558937
-0.00762424
-0.0076769
0.0017042
-0.0227351
-0.0848586
-0.00822054
0.00817847
0.00188212
-0.00642981
0.00885726
0.000497604
-0.0292578
1.86191e-05
-0.0178825
-0.0654798
0.00317036
-0.0234065
0.00379746
0.000998814
-0.00423633
0.0022028
0.00334059
-0.00257958
0.00655685
0.0017783
0.00168614
0.000937676
-0.0332288
0.00051523
0.00188297
-0.0130825
0.00231518
-0.0083962
0.00321121
0.00431908
-0.00504328
-0.0236598
0.000531544
-0.0245037
-0.0387894
-0.00791675
0.00104107
0.00148873
-0.0144626
-0.014304
-0.0409608
-0.0236527
0.000768237
0.00235557
-0.0797981
0.000104655
-0.0401749
-0.0244324
0.0014533
-0.0057612
-0.0258826
-0.00810254
1.79437e-05
-0.0153376
-0.0414773
2.49662e-05
0.00445565
0.00110005
0.00936276
-0.0360688
0.00242556
-0.000792136
0.000972824
-0.0324737
-0.0315337
-0.0270994
0.00469946
0.00147231
0.00338578
-0.0273102
0.00349016
0.00173992
-0.0240651
0.00126155
0.000227666
-0.00502072
0.00765972
-0.0584025
-0.0242488
0.00185414
-0.0720977
-0.0234177
0.00135412
-0.0324652
-0.0252941
0.0017354
-0.0410468
-0.066553
-0.0207377
-0.00388735
-0.00754983
0.00273727
0.0127667
-0.0302111
0.00152335
0.00854407
-0.0021023
0.00664295
-0.0134414
-0.0298299
-0.0148525
-0.000703275
0.00376737
-0.0574706
-0.0300344
-0.0176416
0.000463542
-0.0363274
0.00191338
0.000562392
-0.0292193
0.0017442
0.000888473
-0.059542
0.000567966
-0.0232047
-0.0347074
-0.0303808
-0.0414827
-0.0837628
-0.0519696
-0.0663335
0.000706223
-0.0277002
-0.00853315
-0.0327037
2.3154e-05
-0.0259353
0.000632929
-0.00377545
-0.0682854
-0.0873724
0.00360414
-0.00552223
-0.0346526
0.00139926
0.000424294
-0.00216283
-0.00624925
-0.0334318
-0.00614668
-0.00479394
0.00171127
-0.04087
-0.0182047
-0.0359333
-0.011932
0.000921771
0.00234674
-0.0382475
-0.0183426
-0.0130704
0.000957825
-0.00827351
-0.00192576
0.00113042
-0.0212236
0.00769757
0.00105353
-0.0384627
0.00141041
0.00138904
0.00233393
-0.0532951
-0.0228025
-0.0816956
-0.0146431
0.005041
-0.025427
0.00128602
0.00182022
0.0004063
0.00045825
-0.00837823
0.00151467
-0.00155825
0.00171302
0.0146775
-0.0627557
-0.0184545
-0.082038
-0.0357614
0.000461938
0.000345872
0.000320076
0.0014046
0.014919
-0.0346987
0.00477867
-0.0225393
0.000379589
0.00318128
-0.0172836
-0.0124792
-0.0312084
-0.00853473
-0.0277958
-0.0319356
-0.00902448
0.000199435
-0.0299737
-0.015674
-0.0575338
-0.013431
-0.015432
0.00953969
0.000408001
0.00155531
-0.00568608
0.00652567
-0.0141897
0.00198905
0.000347501
0.00180986
0.00627457
0.00190018
0.00141457
-0.0172782
0.00208916
9.41718e-05
0.00172467
-0.00836087
-0.00869256
-0.0246698
0.000919257
0.0019962
0.00064672
-0.0202946
0.00169087
0.000773631
0.00124217
-1.40998e-05
1.37607e-05
-0.000179972
0.00962533
-0.0598776
-0.0307091
0.00234637
0.00686053
-0.0739674
-0.00915075
0.00146651
-0.0495894
0.00266789
0.00227013
-0.0105415
0.00596816
0.000811016
-0.0152398
0.0131677
0.00305984
-0.00451609
1.56115e-05
0.00175281
-0.0483095
-0.0223778
-0.000241449
-0.00141932
0.000534047
0.000352521
-0.0287786
0.000673087
-0.00806452
-0.00775732
-0.00428527
0.000511863
-0.00347541
0.0018351
-0.013038
-0.0216011
0.0012032
0.00100863
-0.0150547
0.00303302
0.0016915
-0.0249751
0.00206073
-0.0300527
-3.24794e-05
-0.00439817
0.0116644
0.00121426
0.0030012
0.00116324
-0.0301764
-0.0233286
0.00165431
3.09794e-05
0.00045292
1.9442e-05
0.000644548
-0.0284505
-0.0246882
0.00208142
-0.0231428
0.000421803
0.00118286
0.00122243
-0.067292
-0.0145339
-0.0649015
-0.0202284
-0.000982268
-0.0181739
-3.59913e-05
0.00251047
-0.0271846
0.00137556
-0.0278279
0.00120903
0.00377416
-0.0217786
-0.030073
0.0016096
-0.00646533
0.00384973
-0.0161159
0.00165519
-0.011584
-0.0250547
-0.000342557
0.00214559
-0.0260866
-0.0144916
-0.0126651
0.00221455
-0.0283182
-0.0149414
-0.0510254
0.00037048
0.00223514
0.000341441
-0.00702547
-0.027758
-0.00403756
0.00394916
-0.000494626
0.00113474
0.001699
0.00176678
-0.0584381
0.0022215
0.0010144
0.00106544
0.00369345
0.000427078
0.000192772
0.000702122
7.56123e-06
-0.028282
-0.0345618
-0.0233987
-0.02133
-0.0228524
-0.0311792
0.0017455
-0.0298328
-0.000982983
-0.0289243
0.000359719
-0.0169707
-0.0212148
-0.0254714
0.00183187
0.00167937
0.00254741
0.00512745
-0.0515265
-0.033138
7.77643e-05
0.000464636
-0.00391107
0.000377237
-0.0293029
-0.057647
-0.040625
-0.0773151
-0.0143576
0.00075104
-0.00143127
0.00175051
-0.0508764
0.00203627
0.00089682
0.00333955
-0.00838003
-0.0299312
-0.0225775
0.00170625
-0.0320298
-0.00800198
-0.00355853
0.00190673
0.000434505
-0.00679699
0.00502217
-0.0246813
0.00119429
-0.0439641
1.67559e-06
-0.0596374
-0.0318466
-0.00834877
-0.0271327
-0.0208749
-0.0229937
0.00203394
0.000382066
0.000778003
-0.0351297
-0.0454268
0.00182124
0.00273723
-0.0015194
-0.0551438
-0.019305
0.000352134
-0.0223378
-0.000631794
0.00564114
-0.00734723
-0.0207051
-0.0158082
-0.0267298
-0.0455852
-0.0664143
0.00102892
0.00109162
-0.0291343
-0.00341465
0.00107235
0.00201129
0.00173814
-0.00239088
-0.0458671
-0.0591337
-0.0624708
-0.0238746
0.00503128
-0.0228949
-0.083195
-0.0285764
-0.0393112
-0.0201136
0.000968042
0.00114954
0.00327652
-0.0226581
0.00213842
0.00183176
-0.0635441
0.00416369
-0.0528115
0.00219591
-0.0369454
-0.014646
-0.0211538
-0.0329462
-0.0547105
0.00468594
0.00142486
-0.0140725
0.00354526
0.0184933
-0.0232326
0.0173832
-5.7619e-05
-0.038396
0.00133443
-0.00754126
0.000144028
-0.028729
-0.023508
-0.0133206
0.000686573
0.000577986
0.00144648
-0.000916553
-0.0092706
-0.0336318
0.00110926
0.00057927
2.97494e-05
0.000796976
-0.00740252
0.00359686
-0.0343919
0.00134819
-0.0148405
-0.0272959
-0.0387747
-0.0407105
-0.00217746
0.000733615
-0.0213338
-0.0270954
0.000502935
0.00186484
-0.00973375
-0.0011687
-0.00127693
-0.0224528
0.000442879
0.0013714
-0.0233205
0.0187952
-0.00134989
0.00101992
0.00214768
-0.0349204
0.000166619
-0.0361179
-0.00343477
-0.00947099
-0.00330099
0.00253386
-0.0215347
-0.0321309
0.00654746
0.00073436
-0.0266868
-0.00991295
-0.0061745
0.000119693
0.00288901
0.00170488
-0.0143495
-0.0185362
0.00184317
-0.028508
0.000835073
0.0023713
0.000900574
0.00135638
0.00181089
0.0022384
4.42422e-05
0.000382025
0.000488388
-0.00148937
-0.0206415
-0.0160483
0.00218794
-0.00590267
0.000877987
0.00850944
-0.0116367
0.00138367
-0.00504595
0.000753271
-0.0325704
0.00990503
-0.00428338
0.00178263
-0.0790435
0.0012912
-0.0290042
-0.0354138
0.00175748
0.000420627
-0.0430885
0.00343931
-0.00728749
-0.0204616
0.00258536
0.00159744
0.002571
0.00206961
0.00295188
0.00161356
-0.0239827
0.00970154
-0.0282925
-0.0172956
0.00287912
0.000455919
0.002311
-0.00381814
0.00375275
0.000219875
-0.0208165
-0.000358387
-0.041661
-0.0102785
-0.0336281
-0.0224458
-0.0253925
0.00307054
0.00102497
0.00138673
-0.0103287
0.000519394
0.00172936
0.00101571
0.00213958
0.00215796
0.000649051
-0.0436798
-0.0224813
0.00108135
-0.0253192
-4.4836e-05
-0.04017
-0.0196911
-0.0322694
0.00170629
-0.0244268
-0.00466395
0.00367511
-0.00451102
2.33082e-05
-0.0550301
0.00104962
-0.0239667
-0.0332788
0.00051646
-0.0266334
0.0022351
-0.0374679
0.000501478
-0.0350791
0.000264434
0.000640399
-0.0187646
0.0109165
-0.0252448
0.000255553
0.00319926
-0.0291643
0.00357568
-0.0172184
0.00409373
-0.0258859
0.000714669
0.00208503
-0.0342009
-0.00157831
0.00102694
-0.00736698
-0.0214737
0.00469333
0.000173361
-0.0284607
-0.0216484
0.000482576
0.0132178
-0.000236117
0.00327978
0.00830148
-0.0059385
-0.0398768
0.00537378
0.000200716
-0.0393494
-0.00641066
-0.0288638
-0.0209593
0.00284941
0.00115433
0.000960759
-0.0063824
-0.00792677
-0.0109192
0.00159264
-4.70753e-06
-0.0223914
0.00236701
-0.000485933
-0.00498743
-0.000903242
-0.0242865
0.00135341
0.00176271
-0.00361569
-0.025523
-0.00370935
0.00115158
0.00395632
-0.0209413
0.00202549
0.0018039
0.00133353
-0.0174139
-0.0563041
-0.0147445
-0.0278309
4.18477e-05
0.000283643
0.000335158
0.0075409
0.000858155
0.000972826
0.00127764
0.000601726
-0.0035154
-0.028497
0.00279746
-0.0213257
0.000966533
-0.000687459
0.00164484
1.61074e-05
-0.0298039
0.00387424
1.01143e-05
0.0013445
0.00171857
0.000684563
-0.0187117
-0.0114032
-5.7092e-05
0.00180121
0.0200057
0.00271648
-0.0355601
0.0014493
0.00299786
2.15433e-05
0.000682833
0.000252186
-0.00112956
-0.0296131
-0.0315266
0.00210278
-0.0164195
-0.0140395
-0.0265405
-0.00732305
0.00297329
-0.0331723
0.000702608
0.00334728
0.00392902
0.00140501
0.000118915
0.00387821
0.000981173
-0.0136385
0.00031682
-0.00549922
-0.00139906
0.00314307
0.00136397
-0.035537
0.0052794
0.00374669
-0.0267971
-0.000140009
0.000248327
2.63163e-05
-0.0140187
-0.0335884
0.0011242
-0.0459031
-6.66355e-05
0.00167242
0.00412494
0.00242843
0.000203535
-0.0115078
-0.0107269
-0.0254915
0.00271723
-0.041306
0.00290972
-0.0200262
0.000255046
-0.0524667
-0.00263568
0.00191308
0.000980977
-0.0270057
0.00152664
-0.0124615
0.00101014
0.00228724
0.00130301
0.000461401
0.00224908
-0.0592728
0.00270133
-0.0521084
-0.0398373
-0.0211486
0.00227686
-0.000310364
-0.026163
-0.0292949
-0.0229814
0.000295588
0.0007393
0.0012832
-0.0223189
0.000624541
0.00086369
-0.0283883
-0.0168848
-0.0347592
0.00079146
-0.0570703
0.0033572
-0.0289406
-0.0342763
-0.02144
0.00100711
-0.0280666
-0.0152157
0.000743523
-0.0534371
-0.0114032
-0.00822698
0.00184875
-0.0514982
0.000281461
-0.0376878
-0.000738154
-0.0292243
0.00764786
0.00670707
-0.0275463
0.00399728
-0.0257312
-0.0227565
0.000293895
-0.0284664
0.00145732
-0.0075281
0.000263256
-0.0183968
-0.0325884
-0.0449746
0.000213992
-0.0244439
-0.0264564
0.000273111
0.0117109
0.000923798
-1.89478e-05
-0.0300421
-0.0791619
0.00119954
0.00262515
-0.0272989
-0.0239866
0.000622892
0.00175857
-0.0167965
0.00214284
0.0068265
0.00121971
0.00163372
0.000219933
0.00382866
-0.00629151
0.00187005
0.00978357
0.00345212
-0.00493836
-0.0278694
0.00163163
-0.0600433
0.0016136
-0.00768389
-0.0350675
0.00173874
0.00197901
-0.00231797
2.65535e-05
0.001781
0.00569036
0.000271378
0.000131802
0.00184293
0.00166813
-0.0207347
0.00108087
0.00128614
0.00274264
-0.0102081
-0.042185
0.000641428
0.00178015
-0.0309528
-0.0334368
0.000624536
-0.0352934
-0.00300986
0.00968276
-0.0279299
-0.0620829
0.00100291
-0.00373859
0.0135079
0.0013121
-0.0387029
-0.000557768
-0.0156843
0.00260561
-0.0217545
-6.92869e-05
0.0022193
-0.0179305
0.000226547
-0.0814739
0.00860997
0.000290876
-0.00461934
0.000519841
0.000937681
-0.00428375
-0.0227964
-0.0248496
1.86676e-06
0.001637
-0.0102436
0.0015913
0.00184891
-0.00646855
0.00125139
0.00892091
0.0140024
0.0022561
0.00204627
0.00262553
0.000114398
-0.00957206
0.00123639
-0.0219156
0.00390851
-0.0278116
-0.0398008
-0.025983
0.000804395
0.00157808
-0.0513361
-0.000410186
-0.000578934
-0.0591403
-0.079254
-0.010659
-0.00556986
0.000872428
-0.001411
0.000899193
-0.0246918
0.00205427
-0.0279911
-0.0318606
-0.0262652
0.00076974
-0.0548734
-0.0790153
0.0017069
-0.0154793
0.00188751
0.00227707
0.000182622
0.00243178
0.000588454
-0.0251502
-0.00685751
-0.00387884
0.00587323
0.00173854
-0.0608125
0.0013347
0.00183163
0.000187392
-0.00851852
0.00608593
-0.00739281
0.0022662
-0.00071534
-0.0276852
0.000436656
-0.0045042
0.00258817
-0.00143848
0.00511259
0.0115929
0.00177357
0.00350609
-0.0526738
-0.0270715
0.00143607
2.02108e-05
0.000302256
0.00135861
-0.00667281
0.000898364
0.00184419
0.000289244
-0.0010259
-0.0138279
-0.0226374
0.000290658
0.00692893
0.00298422
-0.00170248
-0.00989841
-0.0277433
0.00920462
-0.000615669
-0.0305135
0.000405968
-0.0313066
0.00709124
0.00930816
-0.0354618
-0.0244157
-0.00744507
-0.0308369
-0.0106306
-0.0313314
-0.0236648
-0.0543969
6.82347e-05
0.000226464
0.0094469
-0.00529698
0.000388092
-0.0235435
-0.0292648
0.00575885
0.00788325
-0.00191644
0.000366274
-0.01094
0.00208262
-0.000655722
0.000153971
0.000218487
0.00289222
-0.0185984
2.715e-05
0.00120634
-0.00597507
0.00148193
-0.0228992
-0.00595474
0.00232173
0.000156972
-0.00666691
-0.000883017
-0.00236481
0.00281428
0.000194064
-0.0106584
0.00155946
-0.0241379
-0.0132127
-0.0520941
0.000913536
-0.0337381
0.00119055
-0.0260395
0.00112898
0.0106854
0.000860493
0.000239047
0.000626106
0.000640927
0.00248579
-0.00608153
-0.0804708
-0.0348194
-0.0526871
-0.0219064
-0.0253672
-0.045906
-0.00060955
-0.00658399
-0.000116958
-0.0535546
0.000468812
-0.000569811
0.00172512
-0.00306056
-0.000827301
-0.0294663
-0.0301698
-0.0216395
-0.0420376
0.00508697
-0.0184865
-0.0257196
-0.0367104
0.00465704
0.00187053
-0.0376437
-0.000712052
-3.56357e-05
0.000204436
-0.000159839
-0.000601904
0.000443919
-0.0261969
0.00198782
0.00666027
-0.0132625
0.0131556
4.56495e-05
-0.0174485
-0.022378
-0.0591764
-0.0669455
-0.0207779
0.00184288
-0.0261059
0.000311795
0.000164405
0.00537786
0.00287688
-0.028206
-0.0222402
-0.00485657
-0.027069
-0.047579
0.00088503
0.00175582
-0.0145155
-0.0765344
-0.0196966
0.00043423
0.000156347
-0.0597177
0.00364269
0.00295549
0.000504445
-0.0282778
0.000257025
-0.031778
0.0102268
-0.00197647
0.00188449
0.0011285
-0.016096
-0.0137595
-0.0228681
0.0014825
0.00106326
-0.0241137
-0.0134201
-0.0260063
0.00360011
-0.00760461
0.000470033
-0.0524275
0.00799261
-0.0254228
0.00210428
-0.0290273
-0.0466221
-0.0108254
-0.0105128
-0.0895185
0.000172787
0.000279813
0.00675366
-0.0298641
0.0011017
0.00202532
-0.0194854
-0.0231287
0.00167967
0.000497342
-0.000770791
0.00320276
-0.0332578
0.000142355
-0.061689
0.0116989
0.00192828
-0.00459466
0.00204475
0.00085694
0.00114361
0.00172438
-0.0230236
0.00115925
-0.00917128
-0.0249717
-0.0477266
2.31084e-05
0.000120348
0.00114993
0.000862099
0.00172014
0.00180779
0.00168159
0.00121333
-0.00487649
-0.071741
-0.0780694
-0.0272505
-0.0632306
0.00888241
0.00330597
0.00288448
-0.0161043
0.000145705
0.00105222
-0.0164029
-0.00511038
-0.0467558
0.0113099
0.0106467
-0.0221983
0.00282727
-0.0513482
-0.0147976
-0.0494514
-0.026043
0.000996798
0.000262615
-0.018054
0.00213203
-0.00645778
0.000238351
-0.0266757
0.00173671
-0.0206113
0.000495559
-0.0455531
0.00160482
-0.0322052
0.000863984
8.75543e-05
-0.0341226
-0.0243644
0.00169878
-0.00151678
0.000106128
-0.0395555
-0.0355065
0.00101649
0.00115594
0.000292406
-0.0263501
0.00975454
-0.0258119
-0.0644777
-0.0111294
-0.0171516
-0.000974479
0.00314461
-0.00740172
-0.000687077
0.00208545
0.00022228
-0.00170084
0.00153935
0.000690998
-0.0469574
-0.00548649
0.00177548
-0.0383653
0.00050976
-0.00605026
-0.00532911
0.00206268
0.00190261
0.00356333
-0.0301662
-0.0102623
-0.0523684
0.00355675
0.000155067
-0.017108
-0.0456692
0.00196396
0.0012433
-0.036661
-0.0246832
0.00192111
-0.0557628
-0.0306099
0.00479381
-0.00860196
-0.00529761
0.000634124
1.52977e-05
0.00187845
-0.0007794
-0.0130868
-0.0250904
0.0154019
0.00851783
-0.062781
-0.0629005
0.00105392
0.00235241
-0.0183247
2.59727e-05
-0.0148406
-0.0264011
-0.018925
0.000481648
-0.0259543
0.000229254
0.00215341
-0.051963
-0.0155821
0.00873615
0.0118329
-0.00258995
-0.0138119
-0.0246352
-0.0190982
-5.87906e-06
-0.0674107
-0.00253115
-0.00141892
-0.063535
-0.0252294
0.000494489
-0.00784765
-0.0191279
-0.0350585
0.00113706
-0.0238203
-0.0176273
-0.0116106
-0.00363172
0.000441732
0.00295504
0.00172694
0.00190432
-0.0521018
-0.0285647
-0.00552847
-0.0255448
0.00494235
-0.0281338
0.000364049
0.00166387
-0.00851026
0.0125001
-0.00359715
0.00120742
-0.0065431
-0.00961255
0.000476504
-0.0118404
-0.0287771
0.00280173
0.00377661
-0.0526007
0.0011724
-0.00246449
-0.0236432
-0.00593669
-0.00365014
-0.00101738
-0.0123196
-0.0255413
0.000147027
-0.0187661
-0.0168919
0.000943427
0.00199028
-0.000301728
0.00310176
-0.0459057
-0.00879366
-0.028113
-0.0126257
0.00278685
-0.0222377
-0.00449358
-0.0140997
-0.00707184
0.00232086
0.000450907
-0.00152304
-0.0342522
0.00100552
-0.0152038
0.00123069
0.0016577
-0.0162651
0.0129889
-0.00424471
-0.0230461
0.00221865
-0.0191029
0.00315433
0.00108541
-0.00659903
-0.0252682
0.00209857
-0.0228735
-0.0212043
0.00493606
-0.0542732
0.00346472
-0.0388197
0.00220868
-0.00388465
0.00178116
-0.00211552
0.00840941
0.00206183
0.00199619
0.00144295
0.0101429
0.000665303
-0.0386207
-0.00988777
0.00161432
-0.0517895
-0.0348044
0.014126
0.00671048
0.00543216
0.00033217
-0.0528761
0.00134761
0.00476433
-0.0337571
0.000600806
-0.00410049
0.0028806
0.00213789
-0.000201439
-0.0254966
0.00171408
0.00438551
0.00151005
0.00950608
-0.0342411
-0.00404537
-0.000740622
0.00136338
0.00580646
-0.0135523
0.00111506
-0.030358
-0.0810448
0.00273619
-0.0137746
-0.0133221
-0.0321061
-0.0393408
-0.00875504
0.00245849
0.00330487
0.00251854
0.000756156
-0.0466494
-0.0231709
0.00228126
-0.0142387
0.000423592
0.00134623
0.000551761
0.00132222
0.00246194
-0.0227706
-0.00555033
-0.00635052
0.00230913
-0.00963378
0.00079476
0.00197269
0.00215506
0.00164265
0.000492258
0.00309098
-0.0481884
0.0019949
0.00400298
0.0119546
-0.0274787
0.00514872
0.00278751
-0.017671
0.00614645
-0.00388003
-0.0605414
-0.000117029
-0.00010605
0.00208021
0.00189146
-0.0252044
0.00173932
0.000200883
-0.00247129
-0.0247244
0.00129625
0.00148517
0.00203503
-0.0286078
0.000634659
0.00287744
0.00756915
-0.0176479
0.00105304
-0.00212278
0.000564179
0.000234623
-0.0503718
-0.0116949
0.0034102
-0.0262356
-0.0656151
-0.0457902
-0.00706094
-0.00147146
-0.00368236
0.000754482
-0.0447304
-0.0538145
-0.00551966
0.00204534
0.0112633
-0.0125098
-0.00953124
0.00046527
0.000257748
0.0016688
-0.0210458
-0.0359355
-0.0109671
-0.0393231
-0.00498107
-0.0269851
-0.0214044
-0.0307682
-0.0017309
0.000156413
0.00282728
0.0016029
-0.0121813
-0.024661
0.0120751
-0.0170337
-0.00298692
-0.00692567
-0.0232621
0.00458237
0.0095829
0.00268364
0.00210742
-0.0455877
-0.0111589
-0.0262994
0.00077895
-0.0299395
-0.0278575
0.00268848
0.00228519
-0.0516596
-0.0163651
0.000238878
0.00502004
-0.0159687
0.00189492
-0.0398123
-0.000831208
-0.0178787
-0.0678008
-0.0688254
-0.0325318
-0.0593469
0.00196769
0.000214965
0.00152528
-0.00921784
-0.00291423
-0.013977
0.00013595
-0.0225924
0.000484697
-0.00539146
-0.0246321
-0.0208399
-0.049825
0.0035643
0.00933266
-0.0441155
0.00226974
0.00220098
0.00121866
0.00137053
-0.0450715
-0.00442788
0.000366365
-0.0562986
-0.00325972
-0.057653
-0.0475004
0.00414385
0.000788754
7.37004e-06
-0.0207992
-0.0412362
0.00476925
0.00167734
0.00196665
0.000714516
-0.0268258
-0.0220106
-0.0398964
0.00173771
0.00123233
0.00177846
-0.0420959
-0.0651866
-0.0250418
-0.0017824
-0.0219307
0.000580265
0.00232035
0.00475096
-0.0278162
-0.00463039
-0.0217082
-0.0195371
0.00135608
-0.0493302
0.00598595
-0.00578106
0.00133695
0.00150042
0.0027068
0.00202615
0.000119249
-0.00210758
0.00171729
-0.0166919
0.0017099
-0.000642791
0.000675241
-0.0311372
-0.0123263
0.00126686
0.000182567
-0.0277776
-0.0402625
0.00123726
0.00168353
0.00134404
3.07784e-05
0.000602118
-0.00375038
-0.0209292
-0.0314158
0.00218646
0.000566587
0.00102775
-0.0141746
0.00465296
-0.0081328
0.00114028
-0.0360335
-0.000481415
0.00295032
-0.0461525
-0.0762135
-0.0260082
-0.000611919
0.00155927
-0.00831014
-0.0537877
0.0017681
-0.00380065
-0.0167729
0.00343412
-0.0591674
0.00174676
0.00292249
0.00118365
0.00283629
0.00433612
0.00173893
0.000884345
0.00568352
0.00734057
-0.0413657
0.000896249
-0.0207144
0.00133504
0.00372442
0.00121899
-0.0376843
0.00148564
-0.0151937
-0.0176708
-0.002521
-0.0168902
-0.0260505
-0.00667818
-0.0648
-0.00361371
-0.0298539
-0.00568803
-0.0174153
-0.0298164
-0.0131077
-0.0277699
0.00200503
0.00182883
0.00373121
-0.0202845
-0.0148442
-0.0265206
-3.63888e-05
0.00236543
0.000481301
0.00419534
0.000414178
-0.0290824
-0.0415995
-0.0272244
-7.23082e-05
-0.0305982
-0.0559099
0.000878814
0.0126968
-0.0203801
-0.0504628
-0.0101857
-0.0261724
-0.0306248
-0.00694056
0.000845774
0.00237489
0.00226199
0.000282077
-0.0817989
-0.0207013
-0.0399158
5.27751e-06
0.00210568
0.00206934
0.012253
0.00115122
-0.0135516
0.00205385
3.62579e-05
-0.0203863
-0.0504393
-0.0493101
0.00118531
-0.0311449
0.00243095
0.0031016
-0.0222156
-0.0136698
-0.017543
-0.0247857
9.9709e-05
-0.0170042
0.00187489
0.000925743
-0.0122561
0.000102926
-0.032127
-0.0537202
-0.0209171
0.00176706
0.000482577
-0.000231104
7.01821e-05
-0.00731967
0.00221136
0.00535894
-0.0259677
-0.0415063
0.00459283
-0.0146558
-0.0205448
-0.0568998
-0.0198755
-0.0187789
0.00227792
-0.00221883
0.00708177
-0.045972
-0.0164843
0.000464966
0.000253433
-0.0107037
-0.0257277
0.00274027
-0.0267361
-0.00323085
7.21398e-05
-0.0221738
-0.0651494
-0.00407549
-0.00236303
-0.0370904
-0.0358055
-0.0316099
-0.0195259
-0.0225739
0.000369063
0.00481857
0.00115172
-0.0412348
-0.0281927
1.81244e-05
-0.000363673
2.28336e-06
-0.0371652
-0.018359
4.97127e-05
0.00208555
0.000715493
-0.0300014
0.00317414
-0.0269588
-0.0481305
-0.0266155
-0.0477278
0.00719428
0.0115434
-0.0791754
0.00230684
-0.000867953
0.000102136
-0.0232904
-0.0412477
-0.0287681
-0.0298577
-0.0453695
-0.0239077
0.00155407
-0.00625045
0.00199476
-0.0236483
-0.0569935
-0.00509481
-0.0576495
0.000440554
-0.0231439
-0.00158062
-0.00861009
-0.0503365
0.000336669
-0.00255011
-0.0413432
-0.0170744
-0.0113668
-0.00401999
-0.0143905
-0.0228143
-0.0157628
0.000457349
0.00203321
-0.026534
0.00540625
-0.0332589
0.00178377
-0.00885379
-0.0268545
0.00159068
-0.00588114
-0.0810516
0.00590865
0.00176557
0.000816567
0.00102381
-0.0694892
0.00011242
0.00780751
0.000746255
-0.0111041
-0.0124695
-0.037648
0.00096496
0.00199583
0.000245043
0.000247092
-0.022764
1.46326e-06
0.00124825
0.0003583
-0.0201177
-0.00318612
-0.00658143
-0.00694168
-0.0452763
0.00103967
0.00575155
-0.0296992
0.00428144
0.000241912
0.00126822
0.00221795
-0.0203406
-0.0810306
-0.0482195
-0.029283
-0.0395291
-0.00114306
-0.0820717
0.00315668
0.00034086
0.00204707
-0.0347218
0.00195542
-0.0344596
0.00389694
-0.0292367
0.000873904
-0.0270862
0.0136989
-0.0425692
-0.00323808
-0.0257538
0.00726006
-0.0546776
-0.023534
-0.0201054
-0.0016406
0.00253403
-0.0151769
-0.034995
-0.0567457
-0.000865018
-0.0134818
0.00269001
-0.0220791
0.00414321
-0.0129741
0.0017209
-0.0575516
-0.00600973
0.00187315
-0.00497081
-0.0177637
-0.0198651
0.000428176
-0.0467015
-0.0444574
0.00202787
0.00145859
0.00494314
0.00279859
-0.0280885
0.00180513
-0.0293577
0.00298328
0.00170799
-0.0143015
-0.0315163
-0.0267088
-0.00165318
0.000949386
-0.0256881
0.00149602
0.0018844
-0.0284002
-0.0579465
0.000421079
-0.0294493
0.000708735
-0.0560813
-0.00927909
-0.0393005
0.00148658
0.000507704
-0.0447767
-0.022105
0.00335915
-0.0307342
-0.0375851
-0.0527246
0.00107011
-0.0818615
-0.0324081
0.00414876
-0.00515351
0.00206616
0.00114013
0.000213374
-0.0818194
-0.0505399
0.00184446
0.000115752
-0.0404629
-0.0216336
-0.00238068
0.00161828
0.0027687
-0.0240084
0.00103182
-0.00922385
-0.0434366
-0.008914
-0.000363536
0.00139552
-0.0211192
-0.0240813
-0.0188093
-0.012678
-0.0660124
0.0102414
-0.010112
0.00173059
-0.0140899
0.000483535
-0.077659
0.000193938
-0.0823315
0.00158758
0.00136448
-0.0379967
0.00100881
-0.00497737
-0.0309746
-0.000275228
0.002039
0.00161236
-0.0597537
-0.00378581
0.000904533
0.00271531
0.00702961
0.00013542
0.011994
0.00142019
0.00019293
-0.0243332
-0.0505616
-0.00298719
-0.0420618
0.00293229
0.000321337
-0.00804485
0.013429
0.00165454
0.00229763
-0.00602789
0.00288742
-0.0247011
-0.0188614
0.00154382
0.00195089
-0.0355646
-0.0489612
0.00207294
0.00221782
9.18193e-05
-0.0275156
0.0045247
0.000441011
-0.0561382
-0.0371931
0.00283061
0.00140778
0.00359739
-0.00634232
0.0022595
0.00286735
0.00127132
0.00180137
0.00178595
0.000307742
-0.00180004
0.000210388
-0.00380396
0.00168368
0.00298147
-0.000156392
0.00991337
-0.0280596
0.00343191
-0.02831
-0.00288458
0.00181036
-0.00636225
-0.00167701
-0.00530598
-0.0304988
0.000468164
9.54703e-05
0.00155702
0.00780015
-0.00350864
0.0134103
-0.0577646
-0.0310093
-0.0449776
0.00098726
-0.0258311
-0.0548074
-0.0247983
-0.026122
-0.0313428
0.00485386
-0.00689155
-0.0320852
-0.00613681
-0.00830126
0.00057101
0.00346463
0.000769543
0.00190702
-0.0576133
-0.0241828
-0.00701523
0.00141829
-0.0262682
0.00185176
0.000260759
0.00184546
0.00152712
-0.00573507
-0.00206225
-0.00231009
-0.0224657
-0.0319129
0.00147401
-0.0658731
-0.0292841
0.00357265
0.0014144
-0.0312077
-0.0300213
0.00059876
0.00210281
-0.0572517
-0.000722865
-0.000719815
-0.0300642
-2.55134e-05
0.00385834
0.00230448
-0.00389367
0.0125045
-0.0600841
-0.00424792
0.00198589
-0.000282431
0.00251368
2.04692e-06
0.00276391
0.000355449
0.00162804
-0.0561662
-0.0341321
-0.00256666
0.00824225
-0.0328921
-0.0113283
-0.0386663
-0.0179138
0.00227331
0.0020384
0.00198484
0.000289722
-0.00440746
0.0129447
-0.00151804
-0.0320603
-0.0814154
0.00199271
-0.0265367
0.00137397
-0.0167793
-0.0166618
-0.0090108
-0.00455915
0.0033201
-0.00232346
-0.0314428
-0.0045492
-0.0123568
-0.0355294
-0.0493214
-0.0255136
-0.00473638
0.00136776
-0.0504725
-0.0283342
-0.0296973
-0.000490904
0.00270057
0.00159279
-0.0756717
0.0150565
0.000103334
-0.0224522
-0.02206
-0.0511828
0.00128656
0.0016602
0.0105822
0.00158277
0.00129176
0.000172182
-0.0133205
-0.0250253
0.0015873
-0.0116219
0.00248382
-0.0173442
-0.0595914
-0.0267737
-0.0560445
0.00143242
-0.041296
-0.0828392
0.00224406
0.00524935
-0.00156676
-0.0135736
0.00132388
0.000673708
0.00459298
0.00260024
-0.0259968
0.00145244
0.00332256
0.00551062
0.00244883
-0.0516337
-0.0502314
0.00115309
-0.0567874
-0.0156357
0.000105557
0.00392172
-0.0349981
0.00200548
1.58327e-05
0.000138838
0.00192757
-0.0801684
0.00736453
8.60907e-05
-0.0119863
0.0024023
-0.0342227
-0.0180199
-0.0236841
-0.0282945
-0.0251086
-0.0259522
-0.0287348
-0.0516423
-0.0214133
-0.0267118
-0.0315324
-0.047873
0.00319104
-0.022372
0.00221632
-0.0261436
8.18184e-05
-0.0435914
-0.0597518
-0.00264662
0.00466965
0.00523849
-0.0353775
-0.0044943
-0.0813273
0.000162725
6.23133e-05
7.68604e-05
-0.0274485
0.00190231
-0.0253128
-0.0603411
0.000548144
0.000984147
-0.0108269
-0.0264993
-0.0405776
5.54178e-05
0.00193073
0.00176923
-0.014026
0.00106138
-0.0585262
-0.0332747
0.000943999
0.00119839
0.00166314
0.00073985
-0.0155429
2.6293e-05
0.000172192
-0.0344428
9.78337e-05
0.00171511
0.000242404
-0.0620946
-0.0119709
0.00466572
-0.0257676
-0.0546292
0.00343019
-0.0311433
-0.0491529
-0.0485533
-0.0183965
0.000128308
-0.00111881
-0.0539525
0.00730772
-0.000286683
-1.31832e-05
-0.0593563
-0.0225422
-0.00229717
0.00771322
5.67437e-05
0.000649147
-0.00825964
0.000957894
-0.0586039
0.00522759
-0.026073
-0.0253489
0.000778444
7.37549e-05
-0.00817782
-0.0115798
-0.0364626
-0.0759614
-0.0807823
-0.00857917
-0.00591557
0.0113461
0.000519501
-0.0721473
-0.00430616
0.00089855
0.00818119
0.00223019
-0.0247317
-0.0313451
-0.0746339
0.000469756
-0.0248166
-0.0233088
0.0121187
-0.0480623
-0.0526918
-0.0037249
0.00275815
-0.0254132
0.00559703
-0.00631109
-0.044841
0.000706225
-0.0144625
-0.047363
0.00178514
-0.00899901
-0.0480413
-0.0273801
0.0020577
-0.0125625
0.00857054
-0.0230846
0.000128013
0.00195343
-0.0530856
-0.0121647
-0.0296018
-0.0246724
-0.0237504
0.00128389
0.00226713
1.48731e-05
-0.0292825
7.65141e-06
0.0014139
0.000146701
-0.0557687
-0.00378915
0.00326971
-0.00579989
0.00199779
-0.0808049
-0.00175809
0.00177743
-0.00175436
-0.076812
-0.0094625
-0.0322992
-0.0121724
-0.0281961
-0.029627
0.00213097
-0.0502449
0.00680607
0.00115418
-0.0242789
0.00485656
-0.0425981
0.00200655
0.00294934
0.0011361
0.00012453
-0.049662
0.00253693
0.00140805
-0.0373535
0.00231848
9.66797e-05
0.00168876
-0.000442799
-0.0583292
0.000761776
0.00122169
-0.0321253
0.000331586
-0.0200481
0.00231753
-0.0294717
-0.0330747
-0.0520729
-0.033503
-0.0255851
0.00182271
2.9012e-05
-0.0339403
-0.0270471
-0.00857237
0.00553376
-0.028529
-0.044699
0.00161493
-0.0574071
-0.0437694
-0.051622
-0.0476255
-0.0216495
-0.0348756
-0.0313658
-0.0104596
-0.0251005
-0.00535708
-0.0321755
-0.0207947
-0.0270388
-0.0116429
0.0113804
0.00135356
-0.0418235
0.0019521
-0.0673899
0.000187353
-0.0439945
-0.0176206
0.00128714
0.000149529
-0.060702
-0.0590659
-0.0259031
0.00290233
0.0018657
-0.027114