/*--------------------------------*- C++ -*----------------------------------*\
| =========                 |                                                 |
| \\      /  F ield         | OpenFOAM: The Open Source CFD Toolbox           |
|  \\    /   O peration     | Version:  v2012                                 |
|   \\  /    A nd           | Website:  www.openfoam.com                      |
|    \\/     M anipulation  |                                                 |
\*---------------------------------------------------------------------------*/
FoamFile
{
    version     2.0;
    format      ascii;
    class       surfaceScalarField;
    location    "300";
    object      phi;
}
// * * * * * * * * * * * * * * * * * * * * * * * * * * * * * * * * * * * * * //

dimensions      [0 3 -1 0 0 0 0];
oriented        oriented;


internalField   nonuniform List<scalar> 
22766
(
0.0421771
-0.00487993
-0.0372972
0.0792775
0.00453977
-0.0838173
0.215325
-0.067599
-0.147726
0.693323
-0.342521
-0.350803
0.0430953
0.101743
-0.144838
0.506896
-0.442241
-0.0646551
-0.0443079
-0.0650477
0.109356
-0.647023
0.545937
0.101086
-0.525812
0.638991
-0.11318
0.413299
-0.244569
-0.16873
-0.0282731
0.206991
-0.178718
-0.0779809
0.577442
-0.499461
0.0558377
-0.284323
0.228485
-0.203532
0.0359634
0.167568
0.150204
-0.137798
-0.0124057
0.117812
0.464642
-0.582454
-0.0636295
0.0997243
-0.0360949
0.128805
-0.0196806
-0.109125
0.0423246
0.400524
-0.442849
-0.00497796
-0.130783
0.135761
0.124916
-0.650728
-0.0359414
0.063781
-0.0278396
-0.0877594
-0.0537444
0.141504
-0.493812
0.618728
0.0994434
0.115882
0.0296434
-0.0416886
0.0120452
-0.0606371
-0.0299403
0.0905774
-0.592801
0.447427
0.145374
0.134613
-0.148329
0.0137154
-0.123152
-0.374993
0.498145
0.608659
-0.461279
-0.147381
-0.0253346
0.110423
-0.0850888
0.465688
0.150841
-0.61653
-0.148371
0.388712
-0.24034
-0.117027
0.0916926
-0.0471856
-0.0501691
0.0973547
0.186182
0.227117
0.007762
0.31007
-0.317832
-0.191057
-0.0124746
0.0249246
0.103881
0.587959
-0.494705
-0.093255
-0.0417316
-0.0282756
0.0700071
0.714908
-0.600634
-0.114274
-0.29133
0.0684461
0.222884
0.133352
-0.499292
0.36594
0.619529
-0.496123
-0.123406
0.178467
-0.0351991
-0.143268
-0.118488
-0.456741
0.575229
-0.134071
0.143541
-0.00947066
0.479113
-0.643735
0.164622
-0.558461
0.0646496
-0.653873
0.51864
0.135233
0.284569
-0.288503
0.00393421
-0.175097
-0.272902
0.447999
0.00659304
0.00723277
-0.0138258
-0.330454
0.463806
0.217977
-0.101761
-0.116215
-0.409537
-0.100334
0.509871
0.333238
-0.325476
-0.0247836
0.0247836
-0.0160017
0.0952792
0.105158
0.473211
-0.578369
0.285415
-0.000846011
-0.369397
0.411122
-0.0417242
-0.128986
0.172081
-0.0489487
0.0484754
0.000473313
-0.123395
-0.375897
0.405132
-0.150937
-0.254195
0.204394
-0.223091
0.0186972
-0.515927
0.699256
-0.183329
0.429651
0.0317806
-0.461432
0.0612083
-0.148968
0.305315
-0.121417
-0.183897
-0.515137
0.391741
-0.099451
-0.228346
0.327797
-0.212037
0.0113611
0.200676
-0.0926564
0.0290269
0.56096
-0.0952718
0.474646
0.132298
-0.606944
0.0562659
-0.103452
-0.0526128
0.0405644
0.0120484
0.02355
-0.135396
0.111846
-0.0938782
0.117428
0.11649
-0.0896144
-0.0268752
0.205624
-0.00293299
-0.202691
-0.0318227
0.0384157
-0.0619979
-0.307399
0.0338109
-0.094448
0.430167
0.0767297
-0.478338
0.303241
0.0343287
-0.0295097
-0.00481901
0.274268
-0.21843
-0.143211
-0.371926
0.0735538
-0.052445
-0.0211087
-0.137177
0.1322
0.0888528
0.0276368
-0.529913
0.652556
-0.122643
-0.0423243
-0.00662446
0.14812
0.460539
0.0444873
-0.0389579
-0.00552944
-0.65929
0.129377
-0.214769
0.343178
-0.128409
-0.0736352
0.0968226
-0.0231874
0.624048
-0.506236
0.593843
0.00360072
-0.597444
0.518092
0.134463
0.0106352
-0.00692475
-0.00371049
0.3231
0.0985114
-0.421611
0.597408
-0.300956
-0.296452
-0.105977
-0.0861811
0.192158
0.589368
-0.589368
0.0628133
-0.296233
0.23342
-0.482125
0.358973
-0.563911
0.0105872
0.553324
-0.133193
-0.430718
-0.426559
0.586874
-0.160315
-0.0118268
0.121581
-0.109754
0.620255
-0.145609
0.0656114
-0.075651
0.0100396
0.0351228
-0.029814
-0.00530873
-0.377612
0.162843
0.1053
0.00449232
-0.109793
0.00469298
-0.00201523
-0.00267775
0.359053
-0.316728
-0.0874244
-0.0296028
0.599849
-0.188428
-0.411421
0.0960913
0.351694
-0.447785
0.0264086
-0.0623501
-0.127207
0.0397825
0.219343
0.378065
-0.62439
0.493936
0.130454
0.10278
0.00252085
0.019265
0.383834
-0.403099
0.0410803
0.00109675
0.0789032
-0.512317
0.433414
0.399324
-0.542535
0.0442928
0.336653
-0.380946
-0.63401
0.118083
0.0654927
-0.17147
0.133408
-0.281779
-0.195821
0.247556
-0.051735
-0.00014015
0.116242
-0.116102
-0.729945
0.548809
0.181135
0.0386285
-0.00898514
0.00135938
0.0033336
0.0914463
-0.251172
0.159725
-0.0525744
-0.159463
0.189067
0.301598
-0.490665
0.326704
-0.112913
-0.213791
0.055162
-0.286132
0.23097
0.099182
0.494661
-0.100514
0.0901558
0.0103584
0.539659
-0.10535
-0.434309
0.130279
0.035974
-0.166253
0.00114405
-0.0622136
0.0610696
-0.38549
-0.0288417
0.414332
0.123427
-0.100828
-0.0225985
0.451407
-0.128307
0.619854
-0.495878
-0.123976
-0.0303227
0.235946
-0.437597
0.55064
-0.113044
0.127856
-0.503086
0.37523
0.124424
0.18089
-0.126965
0.33293
-0.205965
-0.296367
0.485434
0.268246
0.425077
0.449331
-0.598947
0.149616
-0.0741056
-0.669153
0.281505
0.387649
0.448509
-0.52649
0.0278122
-0.188109
0.160297
-0.270892
-0.142394
0.413286
0.132098
-0.201078
0.0689807
0.0244771
-0.409967
-0.252626
0.331994
-0.0793677
0.0469141
-0.207613
0.160699
-0.0228463
-0.0297665
-0.40808
-0.261073
-0.104796
0.100289
0.00450658
-0.0353625
0.0464611
-0.0110986
-0.231352
0.0355304
0.74744
-0.419521
-0.327919
-0.299855
0.625374
-0.325519
0.249284
-0.147542
0.088746
0.160538
0.126981
-0.0715146
-0.0554664
0.0338123
0.402953
0.344487
0.0501625
-0.552379
0.502217
-0.00031672
0.010952
0.650203
-0.220341
-0.429862
0.0131129
-0.116646
-0.0174248
0.171088
0.416871
0.116714
-0.255931
0.139217
0.0658726
-0.000261174
-0.0992539
0.558525
-0.453367
-0.0706697
-0.080815
0.151485
-0.059489
-0.0272122
0.0867012
-0.120522
0.573534
-0.453011
-0.359121
0.106495
0.626078
-0.486513
-0.139565
-0.223105
0.278267
0.00216305
-0.544915
0.184764
0.360151
-0.198239
0.164593
0.033646
-0.129345
-0.338404
0.467748
0.0907024
0.019721
0.0276905
0.0133898
0.0284504
0.0712739
-0.461075
0.274574
0.186502
0.245766
0.428072
-0.673838
0.504697
-0.376841
0.0909479
-0.0624975
0.403262
-0.233058
-0.170203
-0.391756
-0.255267
-0.137042
0.100491
0.036551
0.5693
-0.0233631
0.332577
-0.652392
0.319815
0.224711
-0.177797
-0.228517
0.00796171
0.0537454
-0.0617072
-0.0159428
-0.491703
0.191847
-0.0366475
0.0238464
0.0128011
0.148051
-0.0994218
-0.0486297
-0.316543
0.272109
0.0444336
0.078996
-0.123304
-0.0896369
0.419038
0.0974775
-0.516516
0.0628014
0.0641796
-0.00191122
0.046145
-0.0442338
0.0168878
-0.127098
0.11021
0.295134
-0.0683433
-0.22679
-0.018449
0.204983
-0.186534
-0.401841
-0.0649347
0.466775
-0.134109
0.250368
-0.0332913
0.00012219
0.0331691
0.0671476
0.228108
-0.295255
-0.217686
0.358325
-0.218257
-0.055566
0.273823
-0.0210386
-0.179955
0.200993
0.0463385
-0.018648
-0.186226
0.0424686
0.143757
0.0675106
-0.45645
0.388939
0.158457
0.244805
-0.115502
0.0436644
0.0718375
0.035945
0.0376088
-0.0244716
0.154751
0.450961
-0.58702
0.136059
-0.00438079
0.0647218
-0.060341
0.661131
-0.309736
-0.351395
0.170709
0.36884
-0.53955
0.0118212
0.0519598
0.23202
-0.331471
0.532436
-0.513171
-0.0476334
0.0555951
0.515302
-0.344592
0.0703401
-0.0185831
-0.051757
0.00322795
-0.0548259
0.051598
-0.0309849
-0.00230643
-0.0861455
0.0266564
0.0037335
-0.00237412
0.0293804
-0.0316975
0.00231715
-0.0461631
0.0473071
0.578488
-0.486946
-0.0915417
0.029996
0.0609519
-0.0805795
0.231087
-0.150507
-0.148435
0.1133
0.035135
-0.126833
0.59517
-0.468337
-0.0393663
-0.00485418
0.0442205
0.503874
-0.424971
0.239311
0.014408
-0.253719
-0.0410292
0.0391179
0.0293163
-0.00623156
-0.0230848
0.478967
-0.0461823
-0.432785
0.269077
-0.152363
-0.00713297
-0.0370137
0.0441467
-0.636122
0.198404
0.437718
0.10516
-0.410252
0.305092
0.264311
-0.268349
0.00403743
-0.299181
0.273238
0.0259424
-0.0819376
-0.0664977
-0.235871
-0.0633093
0.182551
-0.185484
0.401808
0.164308
-0.566116
0.0693188
-0.096531
-0.106943
0.142917
-0.0826098
0.078229
-0.0200484
0.191089
-0.17104
0.618788
-0.169456
-0.440465
0.169574
-0.0288142
0.0338604
-0.0050462
0.153802
-0.0196275
-0.134174
-0.196034
0.174995
-0.146543
-0.452404
-0.242254
0.161674
0.00243635
0.261875
0.0211265
-0.454992
0.433866
-0.17777
0.0381457
0.139625
-0.374474
0.287029
0.087445
0.42408
-0.122488
0.103945
0.0185425
-0.386797
-0.249326
-0.394397
0.434016
-0.495645
0.0616285
-0.000468036
0.0298484
0.129659
0.0183929
0.0116059
0.0177104
0.0407427
0.154443
-0.195186
-0.432445
0.27718
0.155265
-0.0459919
0.00662558
0.159911
0.459618
0.364764
-0.669657
0.285948
0.383709
-0.665505
0.27922
0.386285
0.202814
0.591815
-0.112702
0.253442
-0.390478
0.137036
0.4907
-0.611439
0.120739
0.158169
-0.286822
0.128653
-0.0610402
-0.0119961
0.0730363
0.139034
0.0147683
-0.00331664
0.00130141
0.0819509
-0.0570264
-0.405783
-0.259721
0.669912
-0.292018
-0.377894
-0.639867
0.196448
0.443419
-0.115454
-0.462885
0.578339
-0.0949406
0.253109
-0.0582731
0.0615011
-0.211006
-0.25007
-0.12284
0.136713
-0.0138729
-0.11295
0.631043
-0.348098
0.637182
-0.289085
-0.171115
0.146643
0.188805
-0.152842
0.0525167
-0.0165717
-0.215811
0.0025763
0.213235
0.00438258
0.117411
-0.121794
-0.0185975
-0.113194
0.131792
-0.0241234
-0.191687
0.0412506
0.548118
-0.0639689
0.0222373
-0.156851
-0.063521
-0.051981
-0.15361
0.181422
-0.171773
0.192273
-0.0204996
0.403446
-0.213438
-0.190008
-0.408872
-0.260785
0.283199
-0.416393
-0.0860103
0.0858701
-0.357652
0.432437
-0.0747853
-0.182245
0.166925
0.0153199
0.177321
-0.487057
0.247072
0.42284
0.00510198
0.43902
-0.444122
0.318941
-0.0662838
-0.473163
0.439854
0.0333086
0.457542
-0.572996
0.0345678
0.120289
-0.154857
-0.445135
-0.0280278
-0.310683
0.378194
0.517975
-0.0883233
0.223803
-0.132356
0.0059127
0.117012
0.0265291
0.223077
0.193224
-0.4163
-0.301993
0.479315
-0.661191
0.527346
0.133846
-0.122958
0.139846
0.526293
-0.124484
0.592188
-0.48803
-0.104158
-0.639579
0.21302
-0.148775
-0.481033
0.629808
0.0321016
0.507558
0.171733
-0.350405
0.178672
0.29854
0.104907
-0.0993004
0.0837816
0.0155188
-0.0565748
-0.0706321
-0.499523
0.32369
0.175832
0.0618972
-0.280154
-0.0250416
0.180271
-0.285497
0.531264
0.038388
-0.0533699
0.0149819
0.0862103
0.402318
-0.488529
-0.159335
-0.28113
0.0661493
0.175859
-0.242008
0.117267
-0.244232
-0.505753
-0.188236
0.0164632
-0.22905
-0.269676
0.0256673
0.244009
0.167652
-0.299799
0.132147
-0.553173
0.447823
0.0871988
-0.370084
0.282885
-0.0172865
0.0556745
0.0147863
0.135417
0.718956
-0.310531
-0.408425
0.169081
0.0478293
-0.216911
0.76938
-0.40054
0.114758
0.307913
-0.422671
-0.11137
0.124928
-0.0135578
0.596741
-0.0583523
-0.538389
0.0687573
-0.245464
0.176707
0.150378
0.321391
-0.153739
0.500284
0.269097
0.310197
-0.244895
-0.065302
-0.471617
0.476719
-0.0270282
-0.169005
-0.160586
-0.0171848
0.437042
0.149832
-0.199567
0.422644
-0.0602152
-0.126011
0.376794
-0.405635
0.528156
-0.109118
-0.116512
0.0927632
0.0237489
0.522572
-0.353434
-0.169138
-0.048655
0.0792625
-0.0306075
0.377683
-0.205949
-0.213881
0.183558
-0.0498186
0.261084
-0.211265
-0.123661
0.482714
-0.0315351
0.408329
0.190941
0.408908
0.0327944
-0.0814494
0.0113823
0.0589578
-0.57078
0.161244
-0.559406
0.440918
0.369006
0.34995
0.484753
0.0947938
-0.579547
0.523558
0.0731829
-0.055466
0.00896128
0.0465048
-0.0360155
-0.0804966
0.422717
0.099855
-0.146151
0.131597
0.0145539
0.251338
0.46357
-0.40358
0.180388
0.223193
-0.626118
0.48589
0.140229
-0.0430238
0.00199463
-0.199232
0.0169872
-0.00682369
-0.0542165
-0.12467
0.16659
-0.0419193
-0.2783
0.412793
-0.134493
0.00962067
0.134563
-0.144184
-0.562178
0.105728
-0.325572
-0.0415394
-0.0139266
-0.135627
-0.32577
0.461396
0.0239501
-0.0239501
-0.330855
-0.295264
0.334184
-0.417558
0.0833742
-0.0148163
0.113907
-0.0990907
-0.0659009
0.0554727
0.0104282
-0.42565
-0.0878992
0.513549
0.0908322
0.335781
0.115626
0.0100525
0.168415
-0.517215
0.416881
0.17349
-0.193538
0.0623057
-0.136106
0.0738004
0.346837
-0.439524
0.0926865
-0.111818
0.578708
-0.46689
-0.0256063
-0.0670501
-0.0454861
-0.153746
-0.19979
0.172762
-0.450359
0.0127621
0.048067
-0.0391058
-0.141638
0.182381
-0.0687693
-0.0156639
0.0844332
0.0221185
-0.331748
0.30963
0.470382
-0.621017
0.150635
0.395808
-0.290649
0.0843911
0.102825
-0.187217
0.0142443
0.0208784
-0.211491
-0.124038
0.335529
-0.233165
-0.111523
0.344688
-0.0745626
-0.207222
0.281785
-0.315224
-0.00131926
-0.461699
0.526219
-0.055636
0.276834
-0.0544609
-0.222373
-0.237822
-0.165758
0.137051
0.489027
-0.07796
0.412144
0.561695
-0.161964
-0.399731
0.400916
0.160779
-0.328003
0.424094
0.439901
-0.588676
0.00946156
0.0386055
0.0363277
-0.00277306
-0.0335546
0.0252296
0.00909911
0.0931814
-0.118143
0.0249615
-0.00952687
0.14414
0.00718429
0.110525
-0.11771
0.0328403
-0.0210191
0.329258
0.0758747
-0.11086
-0.00692483
0.117785
-0.145621
-0.488389
0.0436788
-0.182433
0.138754
0.119698
-0.0265168
0.127656
-0.0653504
-0.425005
-0.124492
0.549497
-0.345367
0.101019
0.244348
0.0486895
0.228144
0.485915
-0.189218
-0.296697
-0.0699293
0.0810625
-0.0111331
-0.100535
-0.272881
0.605458
-0.572755
-0.0278787
0.315407
-0.0994997
-0.215907
-0.554314
0.41929
0.135024
-0.0245716
-0.0670033
0.0915749
-0.0496262
0.0469736
0.00265264
-0.000728305
-0.0240553
0.0116277
-0.0185525
0.0197303
0.159183
-0.178913
0.498482
0.0937059
-0.0953034
-0.102936
0.413304
0.0875167
-0.500821
-0.088742
0.0188126
-0.278419
0.223958
0.472717
0.146071
-0.163457
-0.27392
0.437377
-0.0543964
-0.196775
-0.101656
0.0898288
0.0303528
0.00764824
-0.038001
-0.101581
0.514885
0.130675
0.00113766
-0.131813
0.199174
-0.0235876
-0.175586
0.0951495
-0.100261
0.00511135
0.394937
0.0764634
-0.471401
-0.46485
-0.090038
0.554889
-0.118624
0.203015
-0.149506
-0.282939
-0.055773
-0.0865707
0.142344
-0.261959
-0.217216
0.479175
-0.0368328
0.000116677
0.0367161
-0.24609
-0.148824
0.394914
0.0662814
-0.0782775
-0.00883439
-0.0388476
0.047682
-0.173496
0.0724849
0.0248479
-0.0973328
0.0466423
-0.171313
0.113687
-0.0972919
-0.0163955
-0.301617
-0.0957816
0.397399
-0.513005
0.63687
-0.123865
-0.0941712
0.612811
-0.0269944
0.0329194
-0.00592498
-0.00207009
-0.017196
0.0192661
0.143474
-0.568479
-0.220987
0.367562
0.00209387
-0.0336505
0.0315566
-0.146575
-0.00561273
0.152187
0.256554
-0.234435
-0.147325
-0.428413
0.163215
0.265198
-0.326381
0.415562
-0.0891807
-0.221223
0.202774
-0.017894
-0.117502
0.149895
-0.185094
-0.0534107
0.0118713
0.0330399
-0.03511
0.0502518
-0.00410682
-0.468807
0.339463
0.537686
-0.3959
-0.141786
0.0164872
-0.127857
0.265303
-0.225828
-0.0394751
0.430329
0.107358
0.0862864
-0.387904
-0.00445633
0.486808
-0.482352
0.231808
0.107172
-0.33898
0.048933
-0.00138391
-0.0475491
0.0770518
-0.0107704
-0.0339787
0.000796951
0.0331817
-0.074173
-0.0628689
0.205695
0.28022
-0.0397994
-0.108529
0.00247954
-0.000568127
-0.00191141
-0.00196757
-0.0278464
-0.0400516
0.0459679
-0.00591631
0.0025794
-0.125538
0.473311
-0.433449
-0.245924
0.271591
-0.0825361
0.0259388
0.0565973
0.333791
-0.445609
0.626985
-0.521101
-0.105883
-0.00148249
-0.200664
0.0543381
-0.0679865
0.0136484
0.566748
-0.0963667
0.0905458
-0.025824
-0.226092
0.165877
-0.000224102
-0.115927
0.116151
-0.0260384
0.0254031
0.000635286
0.0534318
-0.0118782
-0.0415537
0.0983486
0.233645
-0.59916
0.136275
-0.125564
0.35557
-0.311277
-0.0753561
0.103517
0.0977363
0.0159511
-0.10829
0.0329337
0.341364
-0.453273
0.111909
-0.0687495
-0.00968497
0.0784345
-0.152177
0.599604
-0.277751
0.0814622
0.196289
-0.0536308
0.21785
-0.164219
-0.00324011
0.124821
-0.0380421
0.0385376
0.201646
0.0189508
0.482429
0.0960587
-0.419323
-0.241869
-0.425382
0.161662
0.26372
0.256984
-0.407921
-0.204884
0.0318166
0.173068
0.0377319
-0.0975438
0.591479
-0.654481
0.40895
0.245531
0.469172
-0.596005
-0.425958
0.561435
-0.135477
-0.207782
0.0264407
0.181342
-0.521908
0.173811
0.0622616
-0.0922019
-0.6483
-0.137346
0.109248
0.0102243
-0.119473
0.00640957
-0.0180732
0.0873921
0.346514
-0.114706
0.202184
-0.465277
0.263093
-0.0148467
-0.113994
0.12884
-0.0271467
0.0996317
0.328791
0.0648874
-0.393678
-0.0361074
0.613549
-0.0435289
0.179811
-0.136282
-0.382592
0.104292
-0.0405921
0.209673
-0.106166
-0.0166741
0.335775
0.303216
-0.107528
0.598228
-0.0305304
0.00102071
-0.13636
0.210237
-0.0738774
0.360649
-0.107207
0.0637565
-0.559635
-0.442006
0.602667
-0.160662
-0.00362199
0.0399497
0.136525
-0.593266
-0.112831
0.140074
-0.0272425
0.302647
0.00754984
-0.163447
-0.041437
0.249686
0.0156169
-0.396104
0.510628
-0.114524
-0.112644
0.0978274
-0.10601
-0.119492
-0.254982
0.482127
-0.279943
-0.0535919
-0.0220592
-0.192729
-0.0757813
0.26851
-0.26638
-0.0207767
0.287157
0.597864
-0.188032
-0.409832
-0.025914
-0.392596
0.41851
0.52067
-0.423192
0.189057
-0.022132
-0.127557
0.502493
-0.0963739
0.100756
-0.651106
0.512993
0.138112
0.528295
-0.478132
-0.47749
0.139087
-0.562949
0.562949
0.398517
-0.00357968
-0.260053
-0.360964
-0.10416
0.445524
0.429229
0.131731
-0.149024
-0.458401
0.607425
-0.0132169
0.108366
0.0181466
-0.0363284
0.0181817
0.058093
-0.138908
0.124743
-0.184611
0.235127
-0.0505162
-0.125796
0.296804
0.0381696
-0.334974
0.0372519
0.151553
-0.476128
0.340502
0.0298995
-0.207953
0.178053
0.539374
-0.15554
-0.00127532
-0.0247631
-0.206263
-0.00692131
0.213185
0.1099
0.525919
0.0320039
-0.557923
0.0354741
-0.244994
0.054042
-0.0428461
-0.0111959
0.0107811
-0.123613
0.477742
0.147632
-0.407952
0.0116315
0.0131521
-0.389545
-0.113541
0.175284
0.0238898
0.119819
0.434722
-0.568986
0.134264
0.127165
0.355339
-0.482505
0.038431
-0.59081
0.513939
-0.0799228
0.295314
-0.321228
0.541014
-0.0150947
0.0462123
-0.0158595
-0.276341
0.06175
0.214591
-0.0908488
0.0157882
0.0750606
-0.106328
0.150006
0.374081
-0.405616
0.575569
-0.124609
0.361517
-0.49548
0.133963
-0.0965226
0.313129
-0.216606
-0.0817768
0.240238
-0.00797678
-0.232261
-0.137894
0.13767
0.345335
-0.434184
0.00188517
0.0296981
-0.0315833
-0.149878
-0.0732132
0.0750709
-0.0232366
-0.0518343
-0.0336857
0.041334
-0.0667764
0.100782
-0.0340056
0.3609
0.112667
-0.473568
-0.612434
0.488436
0.123998
0.583543
-0.126001
0.249897
-0.486607
0.617892
-0.131285
-0.211271
-0.135016
-0.333792
-0.155653
-0.316643
0.472297
0.30799
-0.463644
0.278252
0.245306
-0.0325453
-0.00428753
0.0455951
-0.042598
-0.00299713
-0.47761
0.342595
0.0295726
-0.096349
-0.110175
0.36903
-0.258855
-0.00782443
-0.0375421
0.0453665
-0.129072
0.131651
0.0159077
0.114767
0.54426
0.00454924
0.137027
-0.0200149
0.0562515
0.144137
-0.200388
0.18369
0.0406097
-0.2243
0.217587
-0.161336
0.670959
-0.197748
-0.0303569
0.0324508
0.0784224
0.378348
-0.456771
-0.0262083
0.126699
0.0270274
0.0480435
0.544141
-0.114912
-0.0098981
-0.0435126
0.159842
0.390799
0.0160214
-0.0847709
0.450997
-0.600021
0.00036988
-0.0273643
-0.412643
0.302469
0.533007
-0.254755
-0.0212992
0.142345
-0.121046
0.210633
-0.260451
-0.114021
0.129085
-0.015064
0.411742
-0.296984
0.150466
-0.401987
0.251521
-0.143372
0.122835
0.0205372
0.0894219
-0.165363
0.00635691
0.159006
-0.0391151
0.222805
0.0712163
-0.576906
0.0974712
0.479435
0.524573
-0.0898505
0.155145
-0.0765684
-0.0785768
0.154971
-0.296868
0.141897
0.533501
0.0594112
-0.592912
0.217932
-0.304655
0.0867232
0.0470078
-0.00141269
-0.483908
0.528214
0.121989
0.0964166
-0.0229303
-0.0734862
0.16436
-0.0347012
0.239633
-0.262712
0.0230793
-0.326723
0.251018
0.075705
0.340233
-0.43927
-0.441622
0.278165
-0.0376131
0.334418
0.0354098
-0.30179
0.0403937
-0.0482181
0.308786
-0.175378
0.0852312
-0.343888
0.258657
0.070118
-0.0897985
0.0224907
0.177024
-0.199515
0.0887397
0.00767686
0.12609
-0.140936
-0.0671154
0.441197
0.532547
-0.52196
-0.612385
0.263767
0.348618
0.303396
-0.115108
-0.197175
-0.010607
0.233471
-0.167321
-0.441427
-0.0807332
0.52216
0.44135
-0.101117
-0.158113
0.118313
-0.162061
-0.337462
0.144277
-0.197907
-0.183982
0.237371
0.0565473
-0.293919
-0.063325
0.0862861
-0.0229611
0.471392
0.112151
-0.339451
-0.304284
0.241504
-0.338026
0.0699252
-0.125698
0.0693061
0.0991627
0.377181
-0.476344
0.383271
0.157043
0.0311523
0.133207
0.0489167
-0.322192
0.273275
0.627199
-0.293408
0.59231
-0.120918
0.0817529
0.0721004
-0.153853
0.00380563
0.183563
-0.163833
-0.0608528
-0.56921
0.448688
-0.157525
-0.395577
0.553102
-0.392795
0.00384156
0.176542
-0.180384
-0.624635
0.163356
0.21726
-0.483283
0.266023
-0.479668
-0.224459
-0.430022
0.040991
0.19832
-0.124175
0.129432
-0.00525692
-0.468292
0.0664519
-0.0422607
0.119259
-0.0769979
0.503242
-0.285982
-0.181613
-0.2468
0.522515
-0.18464
-0.337876
0.67077
-0.206129
0.042622
0.01142
0.3152
-0.373781
0.0585815
0.48923
0.0750322
-0.564262
-0.139346
-0.336782
-0.457371
0.452915
0.502447
0.11118
-0.613627
-0.0316118
0.14734
-0.115729
0.174527
-0.181751
0.00722403
-0.215237
-0.17201
0.387248
0.177871
0.449328
0.068679
-0.205039
-0.341158
0.423142
-0.0819845
0.00410521
0.471159
-0.110259
0.430091
-0.586629
0.156537
-0.0389232
0.541371
0.59726
-0.167169
-0.0271053
0.191699
0.018201
-0.070646
-0.0378589
0.0472919
-0.009433
-0.274725
0.323641
0.15789
-0.178372
0.0204812
0.163589
-0.182521
0.0189329
0.124695
0.0012035
-0.125898
0.218443
-0.0134606
0.361706
0.109453
0.0723858
0.0827594
-0.412007
0.554867
-0.142861
0.0973502
0.242792
-0.340143
0.196547
-0.353385
0.156837
-0.203492
0.624144
-0.420652
0.443637
0.154226
-0.0776726
0.392872
-0.38121
-0.231175
-0.0230536
-0.160423
0.183476
0.282286
0.41697
-0.308449
0.128266
0.180183
0.309897
-0.154927
-0.244088
0.394555
-0.483915
0.344569
0.0215872
0.0488917
-0.0704789
-0.0379009
-0.319751
0.393907
0.210179
-0.604086
-0.0168299
-0.0986066
0.115436
0.131593
-0.717825
0.259582
0.458242
0.601835
-0.413543
-0.188292
-0.15204
0.0286765
-0.0314496
-0.584057
-0.00443683
-0.135155
-0.00155574
0.13671
0.126355
0.396161
0.249421
0.447166
-0.310781
-0.136386
-0.246517
-0.172121
0.15772
0.0144003
-0.242162
0.209979
0.0321832
-0.127936
0.0139151
0.462879
-0.376669
0.0297543
-0.0278691
0.469661
-0.107955
0.0200149
-0.286804
-0.431021
-0.07329
0.086342
-0.0130519
0.147363
0.116912
-0.264275
-0.316044
0.0876978
-0.552288
0.149651
0.402637
-0.0126981
0.121946
-0.109218
-0.385486
-0.0229928
-0.149128
-0.395712
-0.156577
0.503384
-0.141867
0.480266
0.112044
0.0147224
-0.498056
0.483333
0.417773
0.1068
0.0352657
-0.00197013
-0.0332956
0.397945
-0.00781153
-0.0396361
0.0474477
-0.0248188
-0.00364485
0.0284637
-0.136139
-0.532284
0.193861
0.338423
-0.162854
-0.0453744
0.0555095
-0.0101352
0.00378616
-0.127961
-0.0787339
0.0254286
0.0533053
-0.106436
-0.0784241
0.601517
-0.121251
-0.0880799
-0.0700327
-0.499017
0.180574
0.318443
0.51584
0.104415
-0.148813
0.052855
0.0959581
-0.0710498
0.152803
-0.0449297
0.0377968
-0.377846
-0.27326
0.0514556
-0.00448203
0.36113
-0.0889008
0.0643292
0.00438559
-0.0413993
0.00570469
0.597257
0.10374
-0.0794246
-0.0243149
-0.113319
-0.0749179
0.147397
-0.307732
0.160335
0.0962851
-0.0515838
-0.0447013
0.201714
-0.0271862
0.0691854
-0.249868
0.180682
-0.516502
0.14307
0.373432
-0.0509469
0.0431353
-0.720225
0.288808
0.431416
-0.0698408
-0.0526471
0.417986
-0.166426
-0.25156
0.0140675
-0.278115
-0.0661872
0.344302
-0.250768
-0.0454648
-0.0336379
0.0316703
-0.326805
0.0936401
0.0421363
-0.0469905
0.105885
0.0308279
-0.275715
-0.444509
0.0392996
0.0644399
-0.0732579
-0.000579868
0.17195
-0.17137
-0.733347
0.446543
-0.138555
0.0238366
-0.0696397
0.0458031
-0.00471949
0.0465359
-0.0418164
-0.714311
0.259423
0.454888
-0.0150693
-0.0576462
0.0727155
0.0322255
-0.0276434
-0.00458217
-0.444539
-0.0788065
-0.247916
-0.209027
-0.380341
0.547473
0.000426345
-0.547899
-0.0510323
0.0461524
0.00184478
0.00113203
-0.540256
0.431144
0.109113
-0.360738
-0.171546
0.0936908
-0.0272755
-0.0664153
0.0212206
-0.0845456
-0.0175062
0.257139
-0.401
0.129369
0.271631
-0.129549
0.164117
-0.571086
0.442352
0.128733
-0.375583
0.0963166
0.279266
-0.399495
-0.140761
0.0923248
-0.277815
-0.436496
-0.130257
0.0365016
-0.221113
0.000124214
0.490417
-0.490541
-0.00138634
-0.204877
-0.33527
0.0727875
0.262483
0.0824038
-0.306437
0.224033
-0.133057
0.0627709
0.0702859
0.0867299
-0.0781072
0.0123762
0.065731
-0.0879362
-0.0929952
-0.184756
0.0838488
0.183772
-0.539062
0.131652
0.40741
-0.133657
-0.154847
0.543802
-0.527632
-0.0161704
0.0614706
0.292945
-0.354416
-0.289541
0.360828
-0.0712865
0.233028
-0.453368
-0.615805
0.439192
0.176613
0.333038
-0.0931329
0.485064
-0.391931
0.027347
-0.00920036
-0.430259
0.289262
0.140997
0.522422
-0.121898
-0.408273
0.252427
-0.0765678
-0.00428429
0.0339824
0.681038
-0.461316
-0.219723
-0.558647
0.19771
0.360937
-0.0569082
0.0881209
-0.0312127
0.0684313
-0.0445946
0.309958
0.37108
-0.0193606
-0.0632492
0.128268
0.312945
0.112866
-0.102641
-0.0350471
0.00106841
0.442939
-0.364517
0.0682342
-0.0843843
-0.126952
0.211336
-0.465871
0.135016
0.0157462
0.0769224
-0.0926686
-0.43074
0.249127
-0.0135793
0.505996
-0.103678
-0.128278
0.166423
-0.106594
0.25087
-0.462504
0.32011
0.160621
-0.148214
-0.0124069
-0.600182
0.163892
0.43629
-0.0119984
0.0117781
0.000220366
0.0877064
-0.313239
0.225533
-0.562045
0.40452
-0.25923
0.189105
0.0701246
0.0997378
-0.586345
0.00448495
0.438454
0.0450454
-0.23933
0.194284
-0.0272763
-0.0552598
-0.0657019
0.0676413
-0.00193948
0.632209
-0.147455
0.43277
0.0596977
0.491652
-0.364487
0.301935
-0.42861
0.126674
-0.182794
0.205285
0.467523
0.133995
0.336709
0.17371
-0.258094
-0.142129
-0.328125
0.470254
0.521758
-0.4471
-0.0746574
-0.50515
0.543581
-0.604685
0.427576
0.177109
-0.248726
0.172945
0.600401
-0.132879
0.0503161
-0.0416993
-0.00861686
-0.031136
-0.322249
0.0178964
0.0561312
-0.0740276
0.0331321
0.10438
-0.123872
0.0194929
-0.561001
0.135043
-0.239338
0.0122932
-0.243573
0.258673
-0.0151006
-0.315976
0.241414
-0.0634596
-0.0146477
-0.00113484
0.00361438
-0.182464
-0.0354902
-0.172463
-0.557399
0.122909
0.43449
-0.102749
-0.130381
0.233131
-0.415036
0.0224612
0.114566
0.431449
0.090309
-0.0812002
0.0529247
0.0410614
-0.0498958
-0.125224
0.108394
0.531803
-0.0159626
0.00705194
0.0719851
-0.0790371
-0.00476566
-0.0197175
0.471486
-0.451768
-0.180831
0.0675127
-0.14674
0.448675
0.318905
-0.461034
-0.70503
0.252396
0.452634
0.533892
-0.136068
-0.397824
-0.0365399
0.563886
0.0589107
-0.0543709
-0.125204
0.328867
-0.203663
0.254506
0.0609011
0.0991705
-0.295515
-0.263131
-0.00918612
0.0496588
-0.0404727
-0.132257
-0.351658
-0.563358
0.419717
0.143641
-0.26884
-0.43619
0.246072
-0.176887
-0.328843
0.238143
0.0906991
0.166831
-0.167411
-0.639865
0.311739
0.309748
-0.0723762
0.0729957
0.0206952
0.110719
0.113371
0.20463
-0.318001
0.109892
-0.231166
0.128416
-0.0711075
0.358137
0.262367
0.00585528
-0.268223
0.119805
-0.514258
0.394453
-0.143968
-0.294677
0.438645
0.0733431
-0.019005
-0.131527
0.0329205
-0.00712521
-0.379671
-0.458379
-0.724765
0.44905
-0.482295
0.350039
0.21445
-0.0391661
-0.152681
-0.404718
-0.406699
-0.156659
-0.426243
-0.128071
0.256186
-0.277875
0.0216892
-0.139256
-0.0173067
0.156563
-0.121349
-0.0392366
-0.162396
0.581686
0.0821616
-0.265348
0.335317
-0.069969
0.205451
-0.26468
0.0592282
0.0421242
-0.143886
-0.074865
-0.0581917
-0.00484217
-0.157484
0.162326
-0.170135
0.183208
-0.0130732
0.0639099
0.0153526
0.491018
-0.653414
0.0084796
-0.397488
-0.188634
0.00518883
0.0656126
-0.0806819
0.0409137
0.172492
-0.213406
0.0192618
-0.07617
0.0244779
-0.202765
0.178287
0.00844424
0.0338248
0.00480375
0.0997853
-0.0876036
-0.0121817
-0.148372
-0.717022
0.439207
0.334563
-0.0835453
0.267892
-0.185488
-0.625956
0.130168
-0.118404
-0.0117639
0.0304089
-0.0039864
-0.0264225
0.318671
0.0421566
-0.315728
-0.2364
-0.109137
0.345537
0.491249
0.198839
-0.174361
-0.371964
0.25708
0.114884
-0.249401
0.00582876
-0.698807
0.233111
0.465695
-0.0939351
-0.0694243
0.215884
-0.14646
0.00644119
0.14323
-0.149671
0.525615
0.047919
0.473104
0.127297
0.0327563
0.181694
0.243309
-0.446801
-0.131364
-0.113732
-0.175776
0.289508
-0.279861
-0.360004
-0.263431
-0.435376
0.0569264
-0.313705
0.256778
0.268587
-0.0124014
0.0294203
0.27559
-0.30501
0.0717568
0.368292
-0.440049
-0.711931
0.443091
0.188611
-0.0308903
0.494916
-0.192982
-0.301934
0.029947
0.0818255
-0.111772
-0.134577
0.019461
0.115116
0.0893682
-0.0732168
-0.0161514
0.603387
-0.403663
-0.199724
-0.0534765
0.125862
0.590887
-0.117783
-0.00669065
0.048827
0.460937
-0.361775
0.250537
0.0118307
-0.616458
0.489053
0.127405
-0.45744
-0.247822
-0.251195
0.366317
0.237071
0.109465
0.337701
0.172912
-0.285825
-0.000511454
0.00294794
0.0658898
-0.0852504
0.0225318
0.0737533
-0.0426709
0.078081
-0.0191703
0.0132149
0.0682255
-0.0814404
-0.290205
0.371896
-0.0816905
0.26263
-0.19769
-0.0649405
0.264842
-0.33809
0.0859353
-0.0944389
0.00850354
-0.123392
0.431306
-0.221776
-0.128078
0.349854
-0.540154
0.145454
0.394699
-0.140051
0.0447476
-0.259429
-0.0158472
-0.0500537
0.0186414
0.00771817
-0.0364804
0.0321961
0.336737
-0.238388
0.117637
-0.138936
-0.00437909
-0.019571
0.109148
-0.00520225
0.321832
-0.249288
-0.072544
-0.260721
-0.027831
0.00301218
0.133906
-0.355681
0.110896
-0.452508
-0.311082
0.0958449
-0.20979
-0.220951
-0.547466
0.457428
-0.052065
-0.416801
0.572604
-0.155804
-0.156924
-0.231789
0.388713
0.160277
0.00331167
0.108954
-0.161473
-0.089235
-0.254653
-0.010947
0.131236
-0.00537539
-0.135471
0.140846
-0.0568195
0.0363512
0.0139006
-0.0154695
0.141559
-0.209876
0.183196
0.0266792
0.000170713
-0.44248
-0.705859
0.442428
0.0881371
0.2486
-0.50515
-0.0943473
0.0252065
0.0691408
-0.149926
0.128256
0.0216697
-0.193066
0.00637481
0.116082
-0.122457
-0.0715681
0.00505794
0.0665101
-0.151918
-0.388704
-0.15145
0.0213644
-0.0268271
0.0396282
0.0804177
-0.134162
0.605821
-0.161653
-0.444168
0.568734
-0.0777157
0.0135923
0.0329817
0.322588
-0.455979
0.319312
0.136668
0.107464
0.510428
0.105941
-0.359793
-0.293621
-0.0323049
0.029574
0.00273084
-0.126103
0.121261
-0.194301
0.322111
-0.12781
0.0235227
0.452305
-0.475828
-0.434178
0.17222
0.0120134
-0.151383
0.13937
-0.164635
0.126221
-0.287037
-0.105883
0.591773
-0.00350376
0.0373285
-0.164842
0.175918
-0.0110757
0.133544