/*--------------------------------*- C++ -*----------------------------------*\
| =========                 |                                                 |
| \\      /  F ield         | OpenFOAM: The Open Source CFD Toolbox           |
|  \\    /   O peration     | Version:  v2012                                 |
|   \\  /    A nd           | Website:  www.openfoam.com                      |
|    \\/     M anipulation  |                                                 |
\*---------------------------------------------------------------------------*/
FoamFile
{
    version     2.0;
    format      ascii;
    class       surfaceScalarField;
    location    "300";
    object      phi_0;
}
// * * * * * * * * * * * * * * * * * * * * * * * * * * * * * * * * * * * * * //

dimensions      [0 3 -1 0 0 0 0];
oriented        oriented;


internalField   nonuniform List<scalar> 
22766
(
0.0421766
-0.00487973
-0.0372969
0.0792779
0.00453935
-0.0838173
0.215325
-0.0675995
-0.147725
0.693323
-0.342521
-0.350803
0.0430953
0.101743
-0.144838
0.506896
-0.442241
-0.0646551
-0.0443079
-0.0650477
0.109356
-0.647023
0.545937
0.101086
-0.525812
0.638991
-0.11318
0.413299
-0.244569
-0.16873
-0.0282731
0.206991
-0.178718
-0.0779809
0.577442
-0.499461
0.0558394
-0.284323
0.228483
-0.203532
0.0359635
0.167568
0.150204
-0.137798
-0.0124057
0.117812
0.464642
-0.582454
-0.0636298
0.0997246
-0.0360948
0.128805
-0.0196807
-0.109125
0.0423246
0.400524
-0.442849
-0.00497796
-0.130783
0.135761
0.124916
-0.650728
-0.0359414
0.063781
-0.0278397
-0.0877595
-0.0537444
0.141504
-0.493812
0.618728
0.0994439
0.115881
0.0296437
-0.0416887
0.012045
-0.0606372
-0.0299402
0.0905773
-0.592801
0.447427
0.145374
0.134613
-0.148329
0.0137154
-0.12315
-0.374999
0.498149
0.608659
-0.461279
-0.147381
-0.0253347
0.110424
-0.0850888
0.465688
0.150841
-0.61653
-0.148371
0.388712
-0.240341
-0.117027
0.0916925
-0.0471857
-0.0501691
0.0973549
0.186182
0.227117
0.00776212
0.310071
-0.317833
-0.191057
-0.0124747
0.0249247
0.103881
0.587959
-0.494705
-0.093255
-0.0417315
-0.0282753
0.0700068
0.714908
-0.600634
-0.114274
-0.29133
0.0684474
0.222883
0.133359
-0.499297
0.365937
0.619529
-0.496123
-0.123406
0.178467
-0.0351991
-0.143268
-0.118488
-0.456741
0.575229
-0.134071
0.143541
-0.00947068
0.479113
-0.643735
0.164622
-0.558461
0.0646496
-0.653873
0.51864
0.135233
0.284569
-0.288503
0.00393421
-0.175097
-0.272902
0.447999
0.00659295
0.00723275
-0.0138257
-0.33045
0.463809
0.217977
-0.101762
-0.116215
-0.409538
-0.100335
0.509872
0.333238
-0.325476
-0.0247835
0.0247835
-0.0160014
0.0952793
0.105158
0.473211
-0.578369
0.285415
-0.00084601
-0.369397
0.411122
-0.0417242
-0.128986
0.172081
-0.0489486
0.0484751
0.000473485
-0.123404
-0.375893
0.405132
-0.150937
-0.254195
0.204394
-0.223091
0.0186972
-0.515927
0.699256
-0.183329
0.429652
0.0317806
-0.461432
0.0612083
-0.148968
0.305315
-0.121417
-0.183897
-0.515141
0.391737
-0.099451
-0.228346
0.327797
-0.212035
0.011364
0.200671
-0.0926567
0.0290268
0.56096
-0.0952718
0.474646
0.132298
-0.606944
0.0562659
-0.103452
-0.0526127
0.0405645
0.0120481
0.02355
-0.135396
0.111846
-0.0938782
0.117428
0.11649
-0.0896145
-0.0268751
0.205624
-0.00293306
-0.202691
-0.0318226
0.0384155
-0.061998
-0.307399
0.0338108
-0.094448
0.430167
0.0767297
-0.478338
0.303241
0.0343285
-0.0295096
-0.0048189
0.274267
-0.218428
-0.14322
-0.37192
0.0735536
-0.0524449
-0.0211087
-0.137177
0.1322
0.0888529
0.0276367
-0.529913
0.652556
-0.122643
-0.0423239
-0.00662467
0.14812
0.460539
0.0444871
-0.0389575
-0.0055296
-0.65929
0.129377
-0.214769
0.343178
-0.128409
-0.0736356
0.0968228
-0.0231872
0.624048
-0.506236
0.593843
0.00360072
-0.597444
0.518092
0.134463
0.0106353
-0.00692483
-0.00371046
0.3231
0.0985114
-0.421612
0.597407
-0.300956
-0.296451
-0.105977
-0.086181
0.192158
0.589368
-0.589368
0.0628141
-0.296233
0.233419
-0.482126
0.358976
-0.563911
0.0105872
0.553324
-0.133193
-0.430718
-0.426559
0.586874
-0.160315
-0.0118268
0.121581
-0.109754
0.620255
-0.145609
0.0656108
-0.0756509
0.01004
0.0351223
-0.0298136
-0.00530867
-0.377612
0.162843
0.1053
0.00449228
-0.109793
0.00469296
-0.0020152
-0.00267776
0.359053
-0.316728
-0.0874244
-0.0296029
0.599849
-0.188428
-0.411421
0.0960913
0.351694
-0.447785
0.0264086
-0.06235
-0.127207
0.0397826
0.219342
0.378065
-0.62439
0.493936
0.130454
0.10278
0.00252088
0.019265
0.383834
-0.403099
0.04108
0.00109667
0.0789031
-0.512317
0.433414
0.399319
-0.54254
0.0442928
0.336653
-0.380946
-0.63401
0.118083
0.0654926
-0.17147
0.133408
-0.281779
-0.195821
0.247556
-0.051735
-0.000139259
0.116242
-0.116103
-0.729945
0.548809
0.181135
0.0386285
-0.00898485
0.00135933
0.00333362
0.0914463
-0.251172
0.159725
-0.0525762
-0.159459
0.189068
0.301599
-0.490667
0.326704
-0.112913
-0.213791
0.0551636
-0.286133
0.230969
0.099182
0.494661
-0.100514
0.0901557
0.0103584
0.539659
-0.10535
-0.434309
0.130279
0.035974
-0.166253
0.0011439
-0.0622137
0.0610698
-0.38549
-0.0288417
0.414332
0.123427
-0.100828
-0.0225984
0.451407
-0.128307
0.619854
-0.495878
-0.123976
-0.0303226
0.235946
-0.437597
0.55064
-0.113044
0.127857
-0.503086
0.37523
0.124424
0.18089
-0.126966
0.33293
-0.205965
-0.296367
0.485435
0.268246
0.425077
0.449331
-0.598947
0.149616
-0.0741055
-0.669153
0.281505
0.387649
0.448509
-0.52649
0.0278122
-0.188109
0.160297
-0.270892
-0.142394
0.413286
0.132098
-0.201078
0.0689807
0.0244771
-0.409967
-0.252626
0.331994
-0.0793679
0.046914
-0.207613
0.160699
-0.0228461
-0.0297666
-0.40808
-0.261073
-0.104796
0.100289
0.00450649
-0.0353621
0.0464609
-0.0110988
-0.231352
0.0355304
0.747441
-0.41952
-0.327922
-0.299855
0.625374
-0.325519
0.249284
-0.147542
0.088746
0.160538
0.126981
-0.0715145
-0.0554663
0.0338122
0.402952
0.344489
0.0501625
-0.552379
0.502217
-0.000316663
0.010952
0.650203
-0.220341
-0.429862
0.013113
-0.116646
-0.0174248
0.171088
0.416871
0.116714
-0.255931
0.139217
0.0658724
-0.00026158
-0.0992539
0.558525
-0.453367
-0.0706698
-0.0808148
0.151485
-0.0594887
-0.0272124
0.0867011
-0.120522
0.573534
-0.453012
-0.359121
0.106495
0.626078
-0.486513
-0.139565
-0.223104
0.278268
0.00216318
-0.544914
0.184763
0.360151
-0.198239
0.164592
0.0336468
-0.129345
-0.338404
0.467748
0.0907024
0.0197211
0.0276903
0.0133897
0.0284504
0.0712743
-0.461075
0.274574
0.186501
0.245766
0.428072
-0.673838
0.504698
-0.376842
0.0909482
-0.0624978
0.403262
-0.233058
-0.170203
-0.391756
-0.255267
-0.137042
0.100491
0.036551
0.5693
-0.0233631
0.332579
-0.652392
0.319813
0.224711
-0.177797
-0.228516
0.00796172
0.0537456
-0.0617073
-0.0159427
-0.491703
0.191847
-0.0366476
0.0238465
0.0128011
0.148052
-0.0994218
-0.0486298
-0.316543
0.272109
0.0444336
0.078996
-0.123304
-0.089637
0.419038
0.0974777
-0.516516
0.0628014
0.0641795
-0.00191122
0.0461452
-0.044234
0.0168878
-0.127098
0.11021
0.295134
-0.0683433
-0.22679
-0.018449
0.204983
-0.186534
-0.401841
-0.0649348
0.466775
-0.134098
0.250361
-0.0332908
0.000122199
0.0331686
0.0671476
0.228108
-0.295255
-0.217685
0.358325
-0.218258
-0.055566
0.273824
-0.0210386
-0.179955
0.200993
0.046338
-0.0186478
-0.186226
0.0424686
0.143757
0.0675074
-0.456447
0.388939
0.158457
0.244805
-0.115502
0.0436642
0.0718378
0.035945
0.0376087
-0.0244716
0.154751
0.450961
-0.58702
0.136059
-0.00438107
0.064722
-0.0603409
0.661132
-0.309736
-0.351396
0.170709
0.36884
-0.53955
0.011821
0.0519601
0.23202
-0.331471
0.532436
-0.513171
-0.0476335
0.0555953
0.515302
-0.344592
0.0703395
-0.0185825
-0.0517571
0.00322736
-0.0548257
0.0515983
-0.0309844
-0.00230641
-0.0861452
0.0266566
0.00373347
-0.00237414
0.0293805
-0.0316976
0.00231717
-0.0461632
0.0473071
0.578488
-0.486946
-0.0915417
0.029996
0.0609522
-0.0805795
0.231087
-0.150507
-0.148435
0.1133
0.035135
-0.126833
0.59517
-0.468337
-0.0393664
-0.00485382
0.0442202
0.503874
-0.424971
0.239311
0.0144079
-0.253719
-0.0410294
0.0391181
0.0293165
-0.00623158
-0.0230849
0.478968
-0.0461824
-0.432785
0.269077
-0.152363
-0.00713312
-0.0370133
0.0441464
-0.636122
0.198404
0.437718
0.10516
-0.410252
0.305092
0.264311
-0.268349
0.00403743
-0.299181
0.273238
0.0259424
-0.0819376
-0.0664977
-0.235871
-0.0633093
0.182551
-0.185484
0.401808
0.164308
-0.566116
0.0693185
-0.0965309
-0.106943
0.142917
-0.0826099
0.0782289
-0.0200484
0.191089
-0.17104
0.618788
-0.169456
-0.440465
0.169574
-0.0288139
0.0338601
-0.00504622
0.153802
-0.0196275
-0.134174
-0.196034
0.174995
-0.146543
-0.452404
-0.242254
0.161674
0.00243634
0.261875
0.0211312
-0.454997
0.433866
-0.17777
0.0381457
0.139625
-0.37448
0.28703
0.0874506
0.424083
-0.122488
0.103945
0.0185425
-0.386797
-0.249326
-0.394397
0.434021
-0.495644
0.0616228
-0.000468056
0.0298485
0.129659
0.018393
0.0116059
0.0177105
0.0407427
0.154443
-0.195186
-0.432444
0.27718
0.155264
-0.0459917
0.00662528
0.159911
0.459618
0.364765
-0.669657
0.285948
0.383709
-0.665505
0.27922
0.386285
0.202814
0.591815
-0.112702
0.253442
-0.390478
0.137036
0.4907
-0.611439
0.120739
0.158159
-0.286815
0.128656
-0.0610404
-0.011996
0.0730364
0.139034
0.0147683
-0.00331661
0.00130141
0.0819511
-0.0570264
-0.405783
-0.259721
0.669912
-0.292018
-0.377894
-0.639867
0.196448
0.443419
-0.115454
-0.462885
0.578339
-0.0949456
0.253104
-0.0582735
0.0615009
-0.211005
-0.250069
-0.12284
0.136713
-0.0138729
-0.11295
0.631043
-0.348098
0.637182
-0.289085
-0.171115
0.146643
0.188805
-0.152842
0.0525165
-0.0165716
-0.215811
0.0025763
0.213234
0.00438258
0.117411
-0.121794
-0.0185976
-0.113194
0.131792
-0.0241234
-0.191687
0.0412506
0.548118
-0.0639685
0.022237
-0.156851
-0.0635207
-0.0519812
-0.15361
0.181422
-0.171773
0.192273
-0.0204996
0.403444
-0.213437
-0.190007
-0.408872
-0.260785
0.283199
-0.416393
-0.0860109
0.0858716
-0.357653
0.432443
-0.0747901
-0.182245
0.166925
0.0153199
0.177322
-0.487058
0.247072
0.42284
0.00510198
0.43902
-0.444122
0.318937
-0.0662784
-0.473163
0.439854
0.0333086
0.457542
-0.572996
0.0345678
0.120289
-0.154857
-0.445135
-0.0280278
-0.310685
0.378193
0.517975
-0.0883234
0.223803
-0.132356
0.00591271
0.117012
0.0265291
0.223077
0.193224
-0.4163
-0.301993
0.479315
-0.661191
0.527346
0.133846
-0.122958
0.139846
0.526293
-0.124484
0.592188
-0.48803
-0.104158
-0.639579
0.21302
-0.148775
-0.481033
0.629808
0.0321016
0.507558
0.171733
-0.350405
0.178672
0.298538
0.104906
-0.0993003
0.0837818
0.0155185
-0.0565749
-0.0706321
-0.499521
0.32369
0.175831
0.0618971
-0.280155
-0.0250417
0.180271
-0.285497
0.531264
0.0383879
-0.0533699
0.014982
0.0862103
0.402318
-0.488529
-0.159335
-0.28113
0.0661493
0.175859
-0.242008
0.117267
-0.244232
-0.505753
-0.188236
0.0164632
-0.229043
-0.269676
0.0256674
0.244009
0.167652
-0.299799
0.132147
-0.553173
0.447823
0.0871988
-0.370084
0.282885
-0.0172867
0.0556747
0.0147864
0.135417
0.718951
-0.310527
-0.408425
0.169081
0.047829
-0.21691
0.76938
-0.40054
0.114758
0.307913
-0.422671
-0.11137
0.124928
-0.0135579
0.596741
-0.0583523
-0.538389
0.0687573
-0.245464
0.176707
0.150377
0.321391
-0.153739
0.500284
0.269097
0.310197
-0.244895
-0.065302
-0.471617
0.476719
-0.0270282
-0.169005
-0.160586
-0.0171848
0.437042
0.149832
-0.199567
0.422644
-0.0602152
-0.126011
0.376794
-0.405635
0.528157
-0.109118
-0.116512
0.0927632
0.0237489
0.522572
-0.353434
-0.169138
-0.0486552
0.0792629
-0.0306077
0.377683
-0.205949
-0.213881
0.183558
-0.0498195
0.261087
-0.211267
-0.123661
0.482714
-0.0315351
0.408329
0.190941
0.408908
0.0327946
-0.0814498
0.0113817
0.0589578
-0.570782
0.161244
-0.559406
0.440918
0.369004
0.349947
0.484753
0.0947938
-0.579547
0.523558
0.0731829
-0.0554656
0.00896096
0.0465047
-0.0360155
-0.0804966
0.422717
0.099855
-0.146151
0.131597
0.014554
0.251338
0.46357
-0.40358
0.180388
0.223193
-0.626118
0.48589
0.140229
-0.043024
0.00199465
-0.199232
0.0169872
-0.00682374
-0.0542166
-0.12467
0.16659
-0.0419193
-0.2783
0.412793
-0.134493
0.00962068
0.134563
-0.144184
-0.562182
0.105735
-0.325572
-0.0415394
-0.0139262
-0.135627
-0.32577
0.461396
0.0239498
-0.0239498
-0.330855
-0.295264
0.334184
-0.417558
0.0833742
-0.0148163
0.113907
-0.0990908
-0.0659005
0.0554725
0.010428
-0.42565
-0.0878996
0.51355
0.0908322
0.335781
0.115626
0.0100525
0.168415
-0.517216
0.416881
0.17349
-0.193538
0.0623057
-0.136106
0.0738004
0.346837
-0.439521
0.0926833
-0.111818
0.578708
-0.46689
-0.0256061
-0.0670505
-0.0454861
-0.153746
-0.19979
0.172762
-0.450359
0.0127621
0.0480666
-0.0391056
-0.141638
0.182381
-0.0687693
-0.015664
0.0844332
0.0221185
-0.331748
0.30963
0.470382
-0.621017
0.150635
0.395808
-0.290649
0.0843912
0.102825
-0.187217
0.0142442
0.0208781
-0.211491
-0.124038
0.335529
-0.233165
-0.111523
0.344688
-0.0745626
-0.207222
0.281785
-0.315224
-0.00131927
-0.461699
0.526219
-0.0556362
0.276834
-0.0544609
-0.222373
-0.237822
-0.165758
0.137051
0.489027
-0.07796
0.412144
0.561696
-0.161963
-0.399733
0.400918
0.160778
-0.328003
0.424094
0.439901
-0.588676
0.00946129
0.0386053
0.0363272
-0.00277295
-0.0335543
0.0252295
0.00909903
0.0931814
-0.118143
0.0249615
-0.00952688
0.14414
0.00718424
0.110526
-0.11771
0.0328403
-0.0210194
0.329258
0.0758747
-0.11086
-0.00692487
0.117785
-0.145621
-0.488389
0.0436788
-0.182433
0.138754
0.119698
-0.0265168
0.127656
-0.0653504
-0.425005
-0.124492
0.549497
-0.345367
0.101019
0.244348
0.0486895
0.228144
0.485914
-0.189218
-0.296697
-0.0699293
0.0810625
-0.0111332
-0.100535
-0.27288
0.605459
-0.572755
-0.0278787
0.315407
-0.0994997
-0.215907
-0.554314
0.41929
0.135024
-0.0245717
-0.0670033
0.091575
-0.0496263
0.0469737
0.00265258
-0.000728331
-0.0240552
0.0116277
-0.0185526
0.0197303
0.159183
-0.178913
0.498482
0.0937059
-0.0953038
-0.102935
0.413304
0.0875167
-0.500821
-0.0887421
0.0188127
-0.278419
0.223958
0.472717
0.146071
-0.163457
-0.27392
0.437377
-0.0543964
-0.196775
-0.101656
0.0898288
0.0303531
0.00764788
-0.038001
-0.101581
0.514885
0.130675
0.0011377
-0.131813
0.199174
-0.0235876
-0.175586
0.0951499
-0.100263
0.00511261
0.394939
0.0764618
-0.471401
-0.46485
-0.090038
0.554888
-0.118624
0.203015
-0.149505
-0.282939
-0.055773
-0.0865708
0.142344
-0.261959
-0.217216
0.479175
-0.0368328
0.000116691
0.0367161
-0.24609
-0.148824
0.394914
0.0662816
-0.0782776
-0.00883439
-0.0388472
0.0476816
-0.173496
0.0724849
0.0248479
-0.0973329
0.0466423
-0.171313
0.113687
-0.0972919
-0.0163955
-0.301617
-0.0957816
0.397399
-0.513005
0.63687
-0.123865
-0.0941712
0.612811
-0.0269941
0.0329191
-0.00592497
-0.00207014
-0.017196
0.0192661
0.143474
-0.568479
-0.220987
0.367562
0.00209389
-0.0336506
0.0315568
-0.146575
-0.00561275
0.152187
0.256554
-0.234435
-0.147325
-0.428413
0.163215
0.265198
-0.32638
0.415567
-0.0891867
-0.221223
0.202774
-0.017894
-0.117502
0.149895
-0.185094
-0.0534103
0.0118709
0.0330399
-0.03511
0.050252
-0.00410684
-0.468807
0.339463
0.537686
-0.3959
-0.141786
0.0164872
-0.127857
0.265303
-0.225828
-0.0394751
0.430329
0.107358
0.0862864
-0.387904
-0.00445633
0.486808
-0.482352
0.231808
0.107172
-0.33898
0.0489332
-0.00138413
-0.0475491
0.0770519
-0.0107703
-0.0339789
0.000796955
0.0331819
-0.0741731
-0.062869
0.205694
0.28022
-0.0397994
-0.108529
0.00247947
-0.000568122
-0.00191134
-0.0019675
-0.0278461
-0.0400512
0.0459677
-0.00591653
0.00257939
-0.125538
0.473311
-0.433449
-0.245924
0.271591
-0.082536
0.0259383
0.0565977
0.333791
-0.445609
0.626985
-0.521101
-0.105883
-0.00148213
-0.200664
0.054338
-0.0679861
0.0136481
0.566748
-0.0963667
0.0905458
-0.0258238
-0.226092
0.165877
-0.000224097
-0.115927
0.116151
-0.0260381
0.0254028
0.000635299
0.053432
-0.0118783
-0.0415537
0.0983488
0.233645
-0.59916
0.136275
-0.125565
0.35557
-0.311277
-0.0753552
0.103516
0.0977364
0.015951
-0.108289
0.0329335
0.341361
-0.453272
0.111911
-0.06875
-0.00968448
0.0784345
-0.152177
0.599604
-0.277751
0.0814622
0.196289
-0.0536304
0.217849
-0.164219
-0.00324013
0.124821
-0.0380422
0.0385384
0.201646
0.0189508
0.482429
0.0960587
-0.419323
-0.241869
-0.425382
0.161662
0.26372
0.256984
-0.407921
-0.204884
0.0318166
0.173068
0.0377319
-0.0975438
0.591479
-0.654481
0.40895
0.245531
0.469172
-0.596005
-0.425958
0.561435
-0.135478
-0.207782
0.0264407
0.181342
-0.521908
0.173811
0.0622616
-0.0922018
-0.6483
-0.137346
0.109248
0.0102244
-0.119473
0.00640972
-0.0180734
0.0873919
0.346514
-0.114706
0.202184
-0.465277
0.263093
-0.0148467
-0.113994
0.12884
-0.0271468
0.0996317
0.328791
0.0648874
-0.393678
-0.0361074
0.613549
-0.0435297
0.179811
-0.136281
-0.382592
0.104292
-0.0405918
0.209673
-0.106166
-0.0166742
0.335775
0.303216
-0.107528
0.598228
-0.0305303
0.00102068
-0.13636
0.21024
-0.0738797
0.360649
-0.107207
0.0637565
-0.559635
-0.442006
0.602667
-0.160662
-0.00362207
0.0399493
0.136525
-0.593266
-0.112832
0.140074
-0.0272426
0.302647
0.00754984
-0.163447
-0.041437
0.249686
0.0156169
-0.396104
0.510628
-0.114524
-0.112644
0.0978274
-0.10601
-0.119498
-0.254982
0.482127
-0.279943
-0.0535914
-0.0220594
-0.192729
-0.0757813
0.26851
-0.26638
-0.0207767
0.287157
0.597865
-0.188035
-0.40983
-0.025914
-0.392596
0.41851
0.52067
-0.423192
0.189057
-0.022132
-0.127557
0.502493
-0.0963739
0.100756
-0.651106
0.512993
0.138112
0.528295
-0.478132
-0.47749
0.139087
-0.562949
0.562949
0.398518
-0.00357878
-0.260053
-0.360964
-0.104164
0.445525
0.429229
0.131731
-0.149024
-0.458401
0.607425
-0.0132186
0.108369
0.0181466
-0.0363285
0.0181819
0.0580931
-0.138908
0.124743
-0.184611
0.235127
-0.0505162
-0.125796
0.296804
0.0381691
-0.334973
0.037252
0.151553
-0.476128
0.340502
0.0298994
-0.207953
0.178053
0.539374
-0.15554
-0.00127534
-0.0247628
-0.206265
-0.00691925
0.213184
0.1099
0.525919
0.0320039
-0.557923
0.0354743
-0.244994
0.0540416
-0.042846
-0.0111956
0.0107812
-0.123613
0.477742
0.147632
-0.407952
0.0116315
0.013152
-0.389546
-0.113541
0.175284
0.0238898
0.119819
0.434723
-0.568982
0.134259
0.127165
0.355339
-0.482505
0.038431
-0.59081
0.513941
-0.07992
0.295314
-0.321228
0.541014
-0.0150947
0.0462123
-0.0158592
-0.276343
0.0617511
0.214591
-0.0908492
0.0157882
0.075061
-0.106328
0.150006
0.374081
-0.405616
0.575569
-0.124609
0.361517
-0.49548
0.133963
-0.0965226
0.313129
-0.216606
-0.0817768
0.240238
-0.00797696
-0.232261
-0.137894
0.13767
0.345329
-0.434185
0.00188521
0.029698
-0.0315832
-0.149878
-0.0732132
0.0750707
-0.0232364
-0.0518343
-0.033686
0.0413339
-0.0667765
0.100782
-0.0340055
0.3609
0.112667
-0.473568
-0.612434
0.488436
0.123998
0.583543
-0.126001
0.249897
-0.486607
0.617892
-0.131285
-0.211271
-0.135016
-0.333792
-0.155654
-0.316643
0.472297
0.30799
-0.463644
0.278252
0.245306
-0.0325452
-0.00428757
0.0455948
-0.0425981
-0.00299671
-0.47761
0.342595
0.0295725
-0.096349
-0.110175
0.36903
-0.258855
-0.00782468
-0.0375418
0.0453665
-0.129072
0.131651
0.0159076
0.114767
0.54426
0.00454924
0.137027
-0.0200149
0.0562515
0.144137
-0.200388
0.18369
0.0406096
-0.2243
0.217587
-0.161336
0.670959
-0.197748
-0.0303571
0.0324509
0.0784211
0.378349
-0.45677
-0.0262083
0.126699
0.0270271
0.0480436
0.544141
-0.114912
-0.00989769
-0.0435126
0.159842
0.390799
0.016021
-0.084771
0.450997
-0.600021
0.000369896
-0.027364
-0.412643
0.302469
0.533007
-0.254755
-0.0212992
0.142345
-0.121046
0.210634
-0.260454
-0.114021
0.129085
-0.0150641
0.411742
-0.296984
0.150466
-0.401987
0.251522
-0.143372
0.122835
0.0205372
0.0894222
-0.165363
0.00635692
0.159006
-0.0391151
0.222805
0.0712166
-0.576906
0.0974712
0.479435
0.524569
-0.0898469
0.155145
-0.0765684
-0.078577
0.154971
-0.296868
0.141897
0.533501
0.0594112
-0.592912
0.217932
-0.304655
0.0867232
0.0470078
-0.001413
-0.483907
0.528214
0.121989
0.0964167
-0.0229304
-0.0734864
0.16436
-0.0347012
0.239633
-0.262712
0.0230793
-0.326718
0.251017
0.0757009
0.340227
-0.439272
-0.441622
0.278165
-0.0376126
0.334416
0.0354098
-0.30179
0.0403934
-0.0482181
0.308786
-0.175378
0.0852312
-0.343888
0.258657
0.070118
-0.0897987
0.0224907
0.177024
-0.199515
0.0887398
0.0076769
0.12609
-0.140936
-0.0671154
0.441197
0.532547
-0.52196
-0.612392
0.263768
0.348624
0.303396
-0.115108
-0.197175
-0.010607
0.233471
-0.167321
-0.441427
-0.0807334
0.52216
0.441352
-0.101125
-0.158113
0.118313
-0.16206
-0.337461
0.144277
-0.197907
-0.183982
0.237371
0.0565473
-0.293919
-0.0633253
0.0862861
-0.0229608
0.471392
0.112151
-0.339451
-0.304284
0.241504
-0.338026
0.0699252
-0.125698
0.0693061
0.0991623
0.377181
-0.476343
0.383271
0.157043
0.0311524
0.133207
0.0489167
-0.322192
0.273275
0.627199
-0.293408
0.59231
-0.120918
0.0817528
0.0721005
-0.153853
0.00380569
0.183563
-0.163833
-0.0608531
-0.569209
0.448688
-0.157525
-0.395577
0.553101
-0.392795
0.00384037
0.176542
-0.180382
-0.624635
0.163356
0.21726
-0.483283
0.266023
-0.479668
-0.224459
-0.430022
0.040991
0.19832
-0.124175
0.129432
-0.0052569
-0.468292
0.0664519
-0.0422607
0.119259
-0.0769979
0.503242
-0.285982
-0.181613
-0.2468
0.522515
-0.18464
-0.337876
0.67077
-0.206129
0.0426219
0.0114198
0.3152
-0.373781
0.0585817
0.48923
0.0750321
-0.564262
-0.139346
-0.336782
-0.457371
0.452915
0.502447
0.11118
-0.613627
-0.0316118
0.14734
-0.115729
0.174527
-0.181751
0.00722403
-0.215237
-0.17201
0.387248
0.177871
0.449328
0.0686803
-0.205041
-0.341158
0.423142
-0.0819845
0.0041052
0.471159
-0.110259
0.430091
-0.586626
0.156534
-0.0389232
0.541371
0.597259
-0.167167
-0.0271057
0.191698
0.0182009
-0.0706458
-0.0378585
0.0472914
-0.00943292
-0.274725
0.323641
0.15789
-0.178372
0.0204813
0.163588
-0.182521
0.0189331
0.124695
0.00120351
-0.125898
0.218443
-0.0134606
0.361706
0.109453
0.0723859
0.0827596
-0.412006
0.554867
-0.142861
0.0973502
0.242792
-0.340143
0.196547
-0.353385
0.156837
-0.203492
0.624144
-0.420652
0.443635
0.15423
-0.0776729
0.392872
-0.381214
-0.231178
-0.0230536
-0.160423
0.183476
0.282286
0.41697
-0.308449
0.128266
0.180183
0.309897
-0.154927
-0.244089
0.394554
-0.483915
0.344569
0.0215871
0.0488918
-0.0704788
-0.0379
-0.319753
0.393907
0.210179
-0.604086
-0.0168299
-0.0986065
0.115436
0.131593
-0.717825
0.259582
0.458242
0.601835
-0.413543
-0.188292
-0.15204
0.0286763
-0.0314492
-0.584057
-0.0044367
-0.135155
-0.0015573
0.136712
0.126355
0.396161
0.249423
0.447166
-0.310781
-0.136386
-0.246517
-0.172121
0.15772
0.0144005
-0.242162
0.209979
0.0321832
-0.127936
0.0139151
0.462879
-0.376669
0.0297542
-0.027869
0.469661
-0.107955
0.0200149
-0.286804
-0.431021
-0.07329
0.0863419
-0.0130518
0.147363
0.116912
-0.264275
-0.316044
0.0876978
-0.552288
0.149651
0.402637
-0.0126981
0.121946
-0.109218
-0.385486
-0.022993
-0.149128
-0.395712
-0.156577
0.503384
-0.141867
0.480266
0.112044
0.0147224
-0.498056
0.483333
0.417775
0.106794
0.0352659
-0.00197015
-0.0332957
0.397945
-0.00781165
-0.0396362
0.0474478
-0.0248187
-0.00364488
0.0284636
-0.136139
-0.53228
0.193858
0.338422
-0.162862
-0.0453744
0.0555091
-0.0101347
0.00378614
-0.127961
-0.0787336
0.025428
0.0533057
-0.106435
-0.0784241
0.601517
-0.121251
-0.0880799
-0.0700327
-0.499017
0.180574
0.318443
0.51584
0.104415
-0.148813
0.0528549
0.0959581
-0.0710499
0.152803
-0.0449294
0.0377963
-0.377846
-0.27326
0.0514558
-0.00448201
0.36113
-0.0889009
0.0643292
0.00438568
-0.041399
0.00570469
0.597257
0.10374
-0.079425
-0.0243149
-0.113319
-0.0749179
0.147397
-0.307732
0.160335
0.0962852
-0.0515837
-0.0447015
0.201714
-0.0271862
0.0691854
-0.249868
0.180682
-0.516502
0.14307
0.373432
-0.050947
0.0431354
-0.720225
0.288808
0.431416
-0.0698409
-0.052647
0.417986
-0.166426
-0.25156
0.0140675
-0.278114
-0.0661867
0.344301
-0.250768
-0.0454653
-0.0336375
0.03167
-0.326805
0.0936401
0.0421364
-0.0469902
0.105885
0.0308279
-0.275715
-0.444509
0.0392997
0.0644402
-0.0732579
-0.000579836
0.17195
-0.17137
-0.733347
0.446543
-0.138555
0.0238371
-0.0696402
0.0458031
-0.00471969
0.046536
-0.0418163
-0.714311
0.259423
0.454888
-0.0150689
-0.0576466
0.0727155
0.0322252
-0.0276431
-0.00458207
-0.444539
-0.0788033
-0.247915
-0.209027
-0.380341
0.547473
0.000426345
-0.547899
-0.0510318
0.0461521
0.0018447
0.00113207
-0.540256
0.431144
0.109113
-0.360735
-0.171545
0.093691
-0.0272755
-0.0664155
0.0212203
-0.0845456
-0.0175061
0.257139
-0.401
0.129369
0.271631
-0.129549
0.164117
-0.571086
0.442352
0.128733
-0.37559
0.0963246
0.279266
-0.399495
-0.140761
0.0923253
-0.277815
-0.436496
-0.130257
0.0365016
-0.221113
0.000124214
0.490417
-0.490541
-0.00138902
-0.204876
-0.335267
0.0727826
0.262485
0.0824038
-0.306437
0.224033
-0.133057
0.0627708
0.0702859
0.0867302
-0.0781072
0.012376
0.0657312
-0.0879362
-0.0929952
-0.184756
0.0838487
0.183772
-0.539062
0.131652
0.40741
-0.133657
-0.154847
0.543802
-0.527632
-0.0161704
0.0614706
0.292945
-0.354416
-0.289542
0.360828
-0.0712863
0.233028
-0.453368
-0.615805
0.439192
0.176613
0.333038
-0.093133
0.485064
-0.391931
0.027347
-0.00920045
-0.430259
0.289262
0.140997
0.522422
-0.121898
-0.408273
0.252427
-0.0765678
-0.00428436
0.0339824
0.681038
-0.461316
-0.219723
-0.558647
0.19771
0.360937
-0.0569083
0.0881212
-0.0312129
0.0684316
-0.0445945
0.309958
0.37108
-0.0193609
-0.063249
0.128268
0.312945
0.112866
-0.102641
-0.0350473
0.00106841
0.442938
-0.364517
0.0682342
-0.0843926
-0.126949
0.211342
-0.465871
0.135016
0.0157463
0.0769222
-0.0926685
-0.43074
0.249127
-0.0135793
0.505996
-0.103678
-0.128278
0.166424
-0.106593
0.25087
-0.462504
0.32011
0.160621
-0.148214
-0.0124075
-0.600181
0.163891
0.43629
-0.0119984
0.011778
0.000220382
0.0877071
-0.313241
0.225534
-0.562044
0.404519
-0.25923
0.189105
0.0701246
0.0997378
-0.586345
0.00448277
0.438456
0.0450454
-0.23933
0.194284
-0.0272759
-0.0552601
-0.0657013
0.0676411
-0.00193975
0.632209
-0.147455
0.43277
0.0596977
0.491652
-0.364487
0.301935
-0.42861
0.126674
-0.182794
0.205285
0.467523
0.133995
0.336707
0.173709
-0.258101
-0.142129
-0.328125
0.470254
0.521758
-0.4471
-0.0746574
-0.50515
0.543581
-0.604685
0.427576
0.177109
-0.248726
0.172945
0.600401
-0.132879
0.0503159
-0.0416995
-0.00861648
-0.031136
-0.322249
0.0178961
0.0561317
-0.0740278
0.0331318
0.10438
-0.123873
0.0194929
-0.561001
0.135044
-0.239338
0.0122933
-0.243573
0.258673
-0.0151006
-0.315976
0.241414
-0.0634597
-0.0146475
-0.00113492
0.00361439
-0.182464
-0.0354902
-0.172463
-0.557399
0.122909
0.43449
-0.102749
-0.130381
0.233131
-0.415037
0.0224612
0.114566
0.431449
0.090309
-0.0812001
0.0529248
0.0410611
-0.0498954
-0.125224
0.108394
0.531803
-0.0159626
0.00705161
0.0719854
-0.079037
-0.00476561
-0.0197175
0.471486
-0.451768
-0.180831
0.0675127
-0.14674
0.448675
0.318905
-0.461034
-0.70503
0.252396
0.452634
0.533892
-0.136068
-0.397824
-0.0365399
0.563886
0.0589105
-0.0543712
-0.125204
0.328867
-0.203663
0.254506
0.0609011
0.0991702
-0.295515
-0.263131
-0.00918615
0.0496589
-0.0404728
-0.132257
-0.351658
-0.563358
0.419717
0.143641
-0.26884
-0.43619
0.246072
-0.176887
-0.328842
0.238143
0.0906993
0.166831
-0.167411
-0.639865
0.311739
0.309748
-0.0723762
0.0729958
0.0206952
0.110719
0.113371
0.20463
-0.318001
0.109892
-0.231166
0.128417
-0.0711148
0.358144
0.262364
0.00585645
-0.268221
0.119805
-0.514258
0.394453
-0.143968
-0.294677
0.438645
0.0733429
-0.0190049
-0.131527
0.0329205
-0.00712521
-0.379671
-0.458379
-0.724765
0.44905
-0.482295
0.350039
0.21445
-0.0391661
-0.152681
-0.404718
-0.406699
-0.156659
-0.426243
-0.128071
0.256186
-0.277875
0.0216892
-0.139256
-0.0173075
0.156564
-0.121349
-0.0392366
-0.162396
0.581686
0.0821623
-0.265347
0.335322
-0.0699754
0.205451
-0.26468
0.0592282
0.0421237
-0.143886
-0.074865
-0.0581917
-0.00484322
-0.157482
0.162325
-0.170134
0.183207
-0.0130732
0.0639102
0.0153526
0.491018
-0.653414
0.00847952
-0.397495
-0.188635
0.00518894
0.065613
-0.0806819
0.0409137
0.172492
-0.213406
0.019262
-0.0761702
0.0244779
-0.202765
0.178287
0.00844421
0.033825
0.00480353
0.0997851
-0.0876037
-0.0121814
-0.148374
-0.717022
0.439207
0.334556
-0.0835389
0.267892
-0.185488
-0.625956
0.130168
-0.118404
-0.0117639
0.0304085
-0.00398635
-0.0264222
0.318671
0.0421565
-0.315727
-0.2364
-0.109137
0.345537
0.491249
0.198839
-0.174361
-0.371964
0.25708
0.114884
-0.249401
0.00582876
-0.698807
0.233111
0.465695
-0.0939432
-0.0694248
0.215884
-0.146459
0.0064412
0.14323
-0.149671
0.525615
0.0479186
0.473104
0.127297
0.0327562
0.181694
0.243309
-0.446801
-0.131364
-0.113732
-0.175776
0.289508
-0.279861
-0.360004
-0.263431
-0.435376
0.0569264
-0.313705
0.256778
0.268587
-0.0124014
0.0294203
0.27559
-0.30501
0.0717568
0.368292
-0.440049
-0.711931
0.443091
0.18861
-0.0308904
0.494916
-0.192982
-0.301934
0.029947
0.0818255
-0.111772
-0.134578
0.0194616
0.115116
0.0893682
-0.0732168
-0.0161513
0.603386
-0.403665
-0.19972
-0.0534767
0.125863
0.590887
-0.117783
-0.00669022
0.0488266
0.460936
-0.361774
0.250537
0.0118276
-0.616458
0.489053
0.127405
-0.45744
-0.247822
-0.251195
0.366318
0.237068
0.109465
0.337701
0.172912
-0.285825
-0.000511412
0.00294786
0.0658897
-0.0852505
0.0225316
0.0737536
-0.0426709
0.0780812
-0.0191707
0.013215
0.0682253
-0.0814403
-0.290205
0.371896
-0.0816905
0.26263
-0.19769
-0.0649405
0.264837
-0.338095
0.0859355
-0.0944387
0.00850323
-0.123392
0.431306
-0.221776
-0.128078
0.349854
-0.540154
0.145454
0.394699
-0.140051
0.0447467
-0.259429
-0.015847
-0.0500535
0.0186411
0.00771785
-0.0364803
0.032196
0.336737
-0.238388
0.117637
-0.138936
-0.00437903
-0.0195708
0.109148
-0.00520217
0.321827
-0.24929
-0.0725371
-0.260721
-0.0278309
0.00301219
0.133906
-0.355681
0.110903
-0.452508
-0.311082
0.0958449
-0.20979
-0.220951
-0.547466
0.457428
-0.0520646
-0.416801
0.572604
-0.155804
-0.156926
-0.231788
0.388714
0.160277
0.00331148
0.10895
-0.161477
-0.089235
-0.254653
-0.0109469
0.131236
-0.00537538
-0.135471
0.140846
-0.0568197
0.0363513
0.0139007
-0.0154695
0.141559
-0.209875
0.183196
0.0266785
0.000171073
-0.44248
-0.705859
0.442428
0.0881373
0.248599
-0.50515
-0.0943474
0.0252066
0.0691408
-0.149926
0.128256
0.0216698
-0.193066
0.00637483
0.116082
-0.122457
-0.0715681
0.00505806
0.06651
-0.151918
-0.388704
-0.15145
0.0213651
-0.0268272
0.0396284
0.0804177
-0.134162
0.605821
-0.161653
-0.444168
0.568734
-0.0777157
0.0135921
0.0329817
0.322588
-0.455981
0.319311
0.13667
0.107464
0.510428
0.105941
-0.359793
-0.293621
-0.0323044
0.0295736
0.00273084
-0.126102
0.121259
-0.194301
0.322111
-0.12781
0.0235227
0.452305
-0.475828
-0.434178
0.17222
0.012014
-0.151383
0.13937
-0.164635
0.126221
-0.287037
-0.105883
0.591773
-0.00350345
0.0373284
-0.164842
0.175918
-0.0110758
0.133544