/*--------------------------------*- C++ -*----------------------------------*\
| =========                 |                                                 |
| \\      /  F ield         | OpenFOAM: The Open Source CFD Toolbox           |
|  \\    /   O peration     | Version:  v2012                                 |
|   \\  /    A nd           | Website:  www.openfoam.com                      |
|    \\/     M anipulation  |                                                 |
\*---------------------------------------------------------------------------*/
FoamFile
{
    version     2.0;
    format      ascii;
    class       volVectorField;
    location    "300";
    object      U;
}
// * * * * * * * * * * * * * * * * * * * * * * * * * * * * * * * * * * * * * //

dimensions      [0 1 -1 0 0 0 0];


internalField   nonuniform List<vector> 
15335
(
(0.77863 0.0132591 2.42585e-21)
(1.05169 0.0142118 -9.80262e-21)
(1.03839 -0.0330854 0)
(1.02281 -0.00023476 5.30915e-22)
(1.04542 -0.00419125 2.84562e-21)
(1.0229 0.00341273 -1.08615e-21)
(1.06212 -0.00434522 0)
(1.01867 -0.000236276 1.31926e-22)
(1.02648 0.000152553 3.39447e-22)
(1.02977 -0.00318036 0)
(1.03949 -0.000684031 1.57049e-21)
(1.02269 5.87653e-05 0)
(1.0217 -0.00741018 -1.16724e-21)
(1.04253 -0.0196115 0)
(1.05253 0.0013882 0)
(1.02686 1.2374e-05 5.26557e-24)
(1.05488 0.0134886 5.18918e-21)
(1.06469 -0.0226808 0)
(1.0251 -0.000526951 -2.93171e-22)
(1.04981 0.00251649 -5.1307e-21)
(1.02662 0.000162837 -2.29454e-22)
(0.436431 -0.0471665 1.04788e-20)
(1.04984 -0.00524232 6.55254e-21)
(1.02693 0.000182501 0)
(1.03785 -0.0329823 -1.13388e-21)
(0.680608 0.0133809 0)
(1.06273 0.00313461 0)
(1.02687 0.000506284 2.31088e-22)
(1.05337 0.00214153 -3.654e-21)
(1.03634 0.00283039 0)
(1.02689 0.000356543 -1.45372e-22)
(1.06093 0.00398347 0)
(1.01955 -0.00019331 0)
(1.0258 -0.00304756 0)
(1.06037 0.00376438 0)
(1.05801 0.00931971 -8.04065e-21)
(1.02961 -0.00316299 0)
(1.02583 -0.00150774 1.99521e-21)
(1.04325 -0.019065 -2.22775e-21)
(1.0638 -0.0232435 0)
(1.02525 0.000305191 8.79639e-22)
(1.01529 0.0155061 -2.04552e-21)
(1.02572 8.59874e-05 -6.19432e-23)
(1.02306 -0.00915496 -1.13959e-21)
(0.883114 -0.00219584 -4.4741e-23)
(1.02626 0.000422316 2.18928e-22)
(1.04708 -0.00733405 -6.26288e-21)
(1.02076 -6.50944e-06 9.31493e-24)
(1.05441 0.00266045 7.97317e-21)
(1.02188 -0.00034565 0)
(1.02708 0.000198122 -1.11803e-22)
(1.02738 0.000381621 2.3793e-22)
(1.03271 -0.00401619 -2.12476e-23)
(1.02708 0.000322696 9.22917e-22)
(0.229179 -0.00257866 -4.37707e-20)
(0.855135 -0.00182043 1.46301e-23)
(1.03723 -0.0318704 0)
(1.02961 0.00173011 0)
(1.02557 -0.00144663 1.86705e-21)
(0.393975 0.014417 1.13034e-20)
(1.05269 0.0139723 9.47763e-21)
(1.02929 7.33236e-05 0)
(1.0326 -0.00414075 -3.07888e-22)
(1.02728 -0.002678 -1.73913e-22)
(1.04506 -0.00406125 2.32784e-21)
(0.770424 0.0139685 3.57125e-21)
(0.892745 -0.00203318 1.6804e-23)
(1.02923 -7.56407e-05 5.93243e-22)
(1.04043 -0.0158577 1.5859e-21)
(1.02578 5.11832e-05 0)
(1.02993 0.0015277 9.63839e-22)
(1.04964 -0.00492372 -4.88461e-21)
(1.03326 -0.00333673 1.05547e-22)
(0.929857 -0.00225947 -1.99734e-23)
(1.02936 -0.00500589 8.53581e-22)
(0.894962 -0.0221425 0)
(1.05397 0.013833 2.76473e-21)
(1.01643 7.46806e-05 -1.20542e-23)
(1.02295 -0.000159173 -3.7513e-23)
(1.05766 0.0091188 7.57903e-21)
(0.753934 0.0119011 -8.46254e-21)
(1.05131 0.00693429 -6.4338e-21)
(1.05148 0.00698911 0)
(1.05313 0.0102684 5.87883e-23)
(1.03594 -0.0137483 2.01316e-21)
(0.42948 -0.020519 1.54283e-20)
(1.02726 -0.00281502 -4.3065e-22)
(1.06219 0.0032586 0)
(1.02319 0.00332604 6.35115e-22)
(1.02716 0.000195259 -1.17749e-21)
(0.596305 0.0170557 -1.29214e-23)
(1.01916 -0.00756416 -1.36086e-21)
(0.940272 -0.00171993 9.63253e-23)
(1.03485 0.0159906 6.09096e-21)
(1.04948 0.00251824 4.94144e-21)
(1.05335 0.0103041 -7.44449e-21)
(1.02595 8.59206e-05 0)
(0.778198 0.0139958 8.69449e-21)
(1.02699 0.00035658 0)
(0.773214 0.0139036 1.16584e-20)
(1.02611 9.94251e-05 5.7021e-23)
(1.02663 -0.00304149 2.03505e-21)
(1.05426 0.0133196 0)
(1.02711 2.22808e-05 2.29155e-26)
(1.02192 -4.55302e-05 0)
(1.02605 8.54055e-05 5.44463e-23)
(0.171717 0.0122872 -9.52353e-21)
(1.02734 -0.00128416 0)
(1.02895 0.00129657 -3.28136e-22)
(1.04469 -0.020628 0)
(1.00642 4.10655e-05 0)
(1.02411 -0.0094734 -1.06592e-21)
(1.02767 0.00205306 0)
(1.01819 -7.636e-05 0)
(1.01986 -0.000255247 -2.74752e-22)
(1.02657 0.000440172 -4.2985e-22)
(1.05863 -0.0045766 1.28115e-21)
(1.02197 -1.32835e-05 -1.32662e-22)
(1.03031 0.0157927 9.85355e-21)
(0.602522 0.0180792 -1.67401e-21)
(1.02685 -0.00311113 -1.29578e-21)
(1.06235 -0.00254661 1.35125e-20)
(-0.0191907 0.0725289 -1.77054e-20)
(1.02528 -0.000564173 0)
(1.05996 0.00424463 3.48499e-21)
(1.02737 0.000535807 -2.17975e-22)
(1.0254 4.74849e-05 0)
(0.551917 -0.0436391 0)
(1.0601 0.00483211 -3.78611e-21)
(1.02899 0.00131762 2.56548e-22)
(1.02783 0.000572673 3.61967e-22)
(1.06276 -0.00299452 -1.81431e-20)
(1.02146 -0.000153904 -4.56641e-22)
(0.770197 0.0131872 0)
(1.02842 0.000404812 2.05992e-22)
(0.977117 -0.000956983 -4.28228e-23)
(1.02749 -0.00187136 -2.93794e-22)
(1.02592 6.15739e-05 -5.16164e-23)
(1.04497 -0.0198083 0)
(1.02607 -0.00310196 3.6562e-22)
(1.03839 -0.00162467 0)
(0.801425 -0.0405608 2.17731e-21)
(1.02287 -0.000228468 0)
(0.698954 0.012128 8.16864e-23)
(-0.0197994 0.0775881 -2.05329e-20)
(1.03919 -0.00335979 3.70774e-21)
(0.866923 -0.02275 2.35891e-21)
(1.0303 0.00170649 6.87935e-22)
(1.03633 0.00390986 -9.66434e-22)
(1.02235 -0.00876516 -2.39261e-21)
(1.0228 -9.61897e-05 3.63441e-23)
(0.711337 -0.0470824 -4.72062e-21)
(1.02487 -5.74353e-05 1.24941e-23)
(1.04874 0.00462015 0)
(0.872843 -0.0118985 1.21985e-20)
(1.0274 -0.00162055 -8.02525e-22)
(1.05269 0.0104934 -2.90129e-21)
(1.02735 -0.0012189 0)
(1.02674 0.000400927 0)
(1.03537 -0.013385 -1.75365e-21)
(1.02529 -0.000565066 6.83275e-22)
(1.02823 0.00136194 -7.06016e-22)
(1.03305 -0.00343038 -1.27106e-22)
(1.02461 -0.010836 0)
(1.03035 0.00173405 -3.5661e-22)
(1.02286 -0.00023671 5.59488e-22)
(1.02722 0.000428634 -1.55138e-22)
(0.681619 -0.0488658 1.31172e-20)
(1.02868 0.0003537 0)
(1.02266 0.000111308 0)
(1.04413 -0.00058534 -4.33536e-21)
(1.02739 -0.00176842 3.56901e-22)
(1.03925 -0.00125167 -2.37307e-21)
(1.02745 -0.00173208 9.45119e-22)
(1.02726 -0.00748899 -5.14475e-23)
(1.03635 -0.0104433 -7.37739e-22)
(0.758661 0.0108013 0)
(1.02869 0.000361055 0)
(1.05379 0.0100653 -3.8564e-21)
(0.791207 0.0130515 1.29747e-20)
(1.03873 -0.00161486 0)
(1.0274 0.00107688 -3.24279e-22)
(1.02072 -0.000345668 0)
(1.04553 -0.00449926 -2.82586e-21)
(1.04537 -0.00486647 2.38139e-21)
(1.06925 -0.00321756 0)
(1.05291 0.0105479 1.25632e-20)
(1.02695 0.00114193 -5.67564e-22)
(1.02185 7.11625e-05 0)
(0.10009 0.019976 5.11649e-20)
(1.02203 -0.000168855 -4.95709e-23)
(0.77333 0.0145278 -1.33013e-20)
(1.05449 0.00303014 -1.15311e-20)
(1.02535 0.000313526 -4.56193e-22)
(1.0359 0.000328583 -4.30502e-23)
(1.01449 0.0144609 -8.09879e-21)
(1.03886 -0.00124072 1.81507e-21)
(1.02955 7.90387e-05 0)
(1.04513 -0.0221544 3.62078e-21)
(1.06833 0.00633049 -4.08259e-21)
(1.0309 0.000102207 -1.44972e-23)
(1.02712 -0.00792033 -5.50374e-22)
(1.02722 0.00049025 3.49945e-22)
(1.02194 -0.00873821 0)
(0.763124 0.0138423 -1.58002e-20)
(1.02923 0.00142929 -5.46362e-22)
(1.02687 -0.0332333 -3.81475e-22)
(1.02503 -8.48688e-05 -2.32549e-22)
(1.06135 0.00363562 2.55324e-21)
(0.773557 0.0133435 -1.18286e-20)
(1.05512 0.0135279 0)
(1.02668 0.00053361 2.88022e-21)
(1.02575 0.000365601 4.08793e-22)
(1.02833 0.00150753 7.36886e-22)
(1.05407 0.0138797 -5.8722e-21)
(1.02814 -0.00818425 1.66881e-21)
(1.0197 -0.000141117 0)
(1.05398 0.00609026 4.70429e-21)
(1.02097 -0.000278651 3.64269e-22)
(1.03876 0.00036627 -3.77055e-23)
(1.03633 -0.0109045 6.93961e-22)
(1.02341 -0.00961886 3.42245e-21)
(0.937393 -0.00124192 3.34021e-21)
(1.05357 0.0100303 0)
(1.01857 -0.000335924 0)
(0.674769 -0.00129033 -1.64467e-20)
(1.05285 -0.0200518 0)
(1.02978 -0.00467406 -2.97605e-22)
(1.06147 -0.00410149 0)
(1.05367 0.0135939 0)
(1.02971 0.00125787 -8.2799e-22)
(1.06944 -0.00392192 0)
(0.774048 0.0070858 0)
(1.05133 0.000515154 5.6233e-21)
(1.03444 -0.00313369 0)
(1.03876 -0.00594324 -1.90265e-21)
(1.02739 0.000309148 8.31891e-22)
(0.631633 -0.00399902 0)
(0.606068 0.0177723 -3.80962e-21)
(1.02987 -0.00563306 3.55426e-23)
(1.02261 -0.00922984 1.17414e-21)
(1.03055 0.00635532 5.34514e-24)
(1.02399 -0.0139197 -1.59933e-21)
(1.04449 0.000512458 3.63895e-21)
(0.794748 0.0122481 9.64183e-21)
(1.04579 -0.00658936 1.52163e-21)
(1.00465 -0.00103619 -2.71232e-23)
(1.02785 -0.00795366 0)
(0.958784 -0.0221091 0)
(1.03347 0.0160084 -2.54355e-21)
(1.04852 0.00428804 3.80339e-21)
(1.02794 0.000251398 -2.7547e-24)
(1.06236 0.00953682 4.6919e-21)
(1.02982 0.001596 0)
(1.02693 0.000216798 0)
(0.401245 -0.0456959 -1.09279e-20)
(1.0295 -0.00482802 3.6325e-22)
(1.01875 -6.04637e-05 -1.61893e-23)
(0.912219 -0.00104839 -2.7056e-20)
(1.02673 0.000218017 0)
(0.986701 0.0138906 0)
(1.05152 0.0156049 6.26945e-22)
(0.626321 0.0174892 -1.73194e-21)
(1.06998 0.00708246 -4.67857e-21)
(-0.0192881 0.0748749 0)
(0.6653 0.0221252 -1.07213e-20)
(0.850023 -0.0111291 1.56244e-20)
(1.02631 0.000241179 -1.85043e-22)
(1.05422 0.0139043 6.01472e-21)
(1.03922 -9.16736e-05 1.9573e-21)
(1.0614 -0.0202355 1.4692e-20)
(1.02579 -1.79143e-05 1.17203e-23)
(0.779885 0.0121754 9.2701e-21)
(1.02867 0.000423237 -2.00967e-22)
(1.03505 -0.00668309 -7.11827e-22)
(0.7563 0.00855537 -2.10258e-20)
(0.411235 0.0334045 0)
(1.02791 0.00122688 0)
(1.03554 0.000393314 -2.16872e-21)
(0.766143 0.0140086 8.9595e-21)
(1.02651 0.000462875 1.13207e-22)
(1.02629 2.33992e-05 1.42212e-22)
(1.03342 -0.00632157 2.65758e-23)
(1.03612 0.00314813 -1.17825e-21)
(1.06198 -0.0191602 3.85165e-21)
(1.03602 0.00336595 2.08091e-21)
(1.03583 -0.0143148 0)
(1.02285 -0.000199056 -2.91017e-22)
(1.06625 0.00588438 0)
(1.04903 0.00456136 4.52275e-21)
(1.0632 0.00919329 0)
(1.04306 -0.00395192 0)
(1.02704 0.00040425 4.55769e-22)
(1.0275 -0.00188634 -8.49015e-22)
(0.653021 0.0216655 8.75593e-21)
(1.04916 0.00144719 -1.12051e-21)
(1.04408 0.000680257 7.15131e-21)
(1.02712 0.000426481 -1.63495e-22)
(1.03892 0.000124119 -1.74544e-21)
(1.03319 -0.00645698 3.25232e-22)
(1.03455 0.00162632 1.87791e-22)
(1.0509 -0.0180173 0)
(0.865201 -0.00342211 1.18387e-21)
(1.02864 0.00166869 3.43187e-22)
(0.858517 -0.0424576 -6.30971e-21)
(1.02646 0.000457498 -1.50092e-22)
(1.02677 0.000499113 0)
(1.04217 0.00256558 -1.01785e-22)
(0.691726 0.0213131 0)
(1.05219 -0.020959 0)
(0.467525 0.0209195 -1.68493e-20)
(1.04562 0.00528422 -2.26525e-23)
(1.02677 0.000964753 -2.3995e-21)
(0.762597 0.0123453 -9.48754e-21)
(1.02637 0.000429359 4.22088e-22)
(1.02992 0.00160265 0)
(1.02922 0.000314782 -1.20382e-22)
(1.02896 0.000336052 -1.62818e-22)
(1.03912 -0.000491805 4.44308e-22)
(1.01997 -7.83248e-05 -2.04188e-22)
(1.0296 0.00480024 -2.95895e-22)
(1.02134 -0.000283938 0)
(0.805194 -0.00232543 0)
(0.912735 -0.00552718 6.58852e-21)
(1.04925 0.00108713 0)
(-0.0147307 0.0744315 5.41733e-20)
(1.06354 -0.0225935 0)
(1.02897 0.000342677 -1.75067e-22)
(1.02937 0.000283763 -2.21607e-22)
(1.02969 0.000282757 -5.25403e-23)
(1.02554 0.000338925 0)
(0.748886 -0.00475131 -1.94948e-21)
(1.06269 0.015204 -9.60357e-21)
(1.02665 0.000412725 2.7247e-21)
(1.0525 0.00789348 4.06102e-21)
(1.0259 7.17989e-05 -5.62324e-23)
(1.02088 0.000113137 -1.03777e-21)
(1.04818 0.00432775 0)
(1.04258 -0.0206673 0)
(1.0151 0.0141359 0)
(1.03945 -0.014511 1.42715e-22)
(1.05738 -0.00618494 0)
(1.06055 -0.0178952 -1.13479e-20)
(1.03994 -0.01477 -3.09247e-21)
(1.01097 -1.14556e-05 8.69534e-24)
(0.99289 0.0158 0)
(1.04552 -0.0213762 -3.52065e-21)
(0.961585 -0.0212024 0)
(1.04449 -0.00078779 2.42214e-21)
(1.04636 0.00577759 -1.03574e-20)
(1.02135 -0.00625553 1.6862e-21)
(1.02923 0.000325594 0)
(1.02211 -0.000295431 1.75626e-22)
(0.722517 -0.0412356 -2.02791e-21)
(0.992932 0.000757025 4.55175e-21)
(1.04525 0.000745281 -5.26322e-22)
(1.02937 0.00143651 0)
(1.02939 0.000277297 0)
(1.02252 -7.29782e-05 -6.15896e-22)
(0.69919 0.000220135 -9.07313e-22)
(1.02377 0.00283797 -2.65903e-22)
(1.0253 0.000305102 0)
(1.04816 -0.00324943 0)
(1.02353 0.00288967 0)
(1.02563 -0.00165074 1.76446e-22)
(1.02988 0.00147608 -3.49177e-22)
(1.03939 -0.00372921 -1.97261e-21)
(1.03949 -0.000924899 -2.75646e-21)
(1.05469 0.00229048 5.82849e-21)
(1.02503 0.0012975 -2.66532e-22)
(1.02942 0.00138298 0)
(1.02304 -0.00016729 0)
(1.05092 0.000511181 0)
(1.02254 -0.000142306 -1.96972e-23)
(1.02678 0.00031619 0)
(1.02674 0.000467865 1.95724e-22)
(1.02455 -7.65093e-05 1.49522e-24)
(1.02491 -5.34272e-05 -4.34117e-24)
(1.02753 0.00427966 3.98398e-23)
(1.02109 -0.00586876 -6.87302e-21)
(0.914614 -0.0248856 4.50041e-21)
(1.05974 0.00518093 9.3921e-21)
(1.0276 0.00146668 5.77773e-22)
(1.0237 -0.0146206 -5.93168e-22)
(0.638825 0.00225143 -1.73327e-20)
(1.03991 -0.0156054 1.62558e-21)
(1.02597 0.000400136 -8.54829e-22)
(0.870703 0.0103116 1.88883e-20)
(1.027 0.000147905 1.31978e-21)
(1.02758 -0.00194939 -4.46055e-22)
(1.04122 0.0055541 -1.08843e-21)
(1.02524 -0.0107159 0)
(1.02727 0.00038197 0)
(1.04618 0.00596221 9.79839e-21)
(0.672274 -0.00379245 0)
(1.02853 -0.00579298 1.59572e-21)
(1.0339 0.00434456 0)
(1.02481 -6.41369e-05 0)
(1.02283 -7.71824e-05 -4.75761e-24)
(0.890393 0.00888492 -2.24821e-20)
(1.05276 0.00102217 6.90638e-21)
(1.04144 4.53955e-05 3.26799e-23)
(1.03156 -0.0227263 0)
(1.02718 0.000238319 0)
(1.02623 0.000382645 1.33701e-22)
(1.05834 -0.000331526 -1.09392e-20)
(1.02554 0.000150183 1.87309e-22)
(1.03863 0.000642115 -3.54805e-21)
(1.03568 -0.0318656 0)
(1.0335 0.00423799 -1.02539e-21)
(1.02723 0.000230142 -2.81458e-24)
(1.03304 -0.000384524 -1.40762e-21)
(1.02183 -7.87226e-05 3.09477e-23)
(1.04404 0.00112555 -3.92132e-21)
(1.05137 -0.0171782 3.72115e-21)
(1.02666 0.000445904 2.17395e-22)
(1.02483 0.00124592 5.72424e-22)
(1.046 -0.00616224 0)
(1.02736 -0.00160005 7.70046e-22)
(1.0297 0.001211 1.13802e-21)
(1.05464 0.00757178 0)
(1.0243 -0.000356873 8.72267e-22)
(1.05573 0.0137044 0)
(1.02721 0.0041344 7.60179e-24)
(1.03556 -0.0126899 8.85539e-22)
(1.02382 -0.0124664 -4.29226e-21)
(1.02535 -0.000621154 -9.99361e-23)
(1.0273 -0.00149488 -1.30113e-21)
(1.02746 0.000537131 -2.07601e-22)
(1.0556 0.0140749 0)
(0.977597 0.0139337 0)
(1.02856 0.00177012 -2.9715e-22)
(1.01783 -3.40879e-05 6.20909e-24)
(1.04256 -0.000152217 8.89271e-23)
(1.02472 -7.32424e-05 0)
(1.02563 0.000152251 0)
(0.83853 0.012151 -4.3976e-21)
(1.05437 0.00767535 5.90672e-21)
(1.02434 -0.000332375 -4.42538e-22)
(1.05342 0.000646614 6.93472e-24)
(1.02579 8.55583e-05 -6.03698e-23)
(1.02917 -0.00318835 -9.12947e-24)
(1.02316 -0.000158403 -1.85205e-22)
(0.744377 0.0119045 2.65588e-20)
(1.04556 0.00114902 6.47108e-22)
(0.898021 -0.00312407 0)
(1.05057 -0.0100144 2.32901e-21)
(1.02883 0.00533879 -4.06798e-22)
(1.04901 0.00286773 0)
(0.991605 -0.0010004 0)
(1.02916 0.0014139 5.88893e-22)
(0.848843 0.0121464 1.30087e-20)
(1.02473 -0.000525379 0)
(0.362691 0.0112498 -7.73071e-21)
(1.02287 -0.000160654 2.22965e-22)
(1.02736 -0.00086155 0)
(1.05211 0.00596676 0)
(0.967728 0.0145041 -2.26791e-21)
(1.02998 0.00140004 0)
(1.03638 0.00364267 -2.29627e-21)
(1.02734 -0.00106959 1.55872e-21)
(1.04692 -0.00781396 7.1583e-21)
(1.03051 0.00166376 0)
(1.04271 -0.0036882 0)
(1.05442 -0.0185936 0)
(0.826127 0.000801771 -2.57098e-24)
(1.01586 -0.000249903 3.02701e-22)
(1.05378 0.0137883 -2.61354e-21)
(1.04551 0.00145856 -2.26713e-21)
(1.04365 0.00126498 -3.66089e-21)
(1.02541 -0.000607323 -1.54502e-21)
(0.80715 0.0125974 -4.93344e-21)
(1.04596 0.0051534 -4.90015e-21)
(1.06171 0.000954717 -5.51249e-21)
(1.02916 -0.00234209 -1.79623e-23)
(1.02549 2.73731e-05 0)
(1.02653 -4.09675e-05 1.12812e-22)
(1.03829 -0.00703309 0)
(0.613435 0.0168509 1.54424e-20)
(1.03317 0.00375782 0)
(1.02758 -0.00375704 1.75116e-21)
(1.03137 -0.00459635 2.12387e-22)
(1.02997 -0.00467381 2.228e-22)
(1.02286 -0.000223084 -5.54909e-22)
(1.02276 -9.13534e-05 1.31764e-23)
(0.923702 -0.0235256 0)
(1.0293 -0.00590936 -8.78658e-22)
(1.02934 -0.00323611 0)
(1.02734 0.000492213 -1.74104e-22)
(1.02737 -0.000795946 -5.16011e-22)
(1.02916 0.000696009 -5.05269e-23)
(1.02935 0.000858843 -3.29154e-23)
(1.02565 -4.38787e-06 0)
(1.02421 -7.97981e-05 2.51437e-24)
(0.797559 0.0127659 9.91859e-21)
(0.686712 0.0174799 8.9263e-22)
(0.588573 0.0147583 6.32121e-21)
(1.05183 0.00468887 -1.24027e-21)
(1.05317 0.00176333 0)
(1.05997 -0.0160425 0)
(1.03038 0.00168958 0)
(0.266318 -0.0354644 -3.21624e-21)
(1.0292 -0.000195262 0)
(1.05845 -0.00143764 0)
(1.02583 5.98854e-05 -1.3622e-24)
(1.04788 0.000379332 0)
(1.05172 0.00442652 0)
(1.05472 -0.0193566 0)
(1.02277 -0.0002651 6.42275e-22)
(1.02943 -0.00439895 7.96851e-22)
(1.029 -0.0057651 6.18364e-22)
(1.02656 -0.000427726 9.18721e-22)
(1.05688 0.00268636 2.83667e-21)
(1.06163 -0.0183494 -7.78795e-21)
(1.03489 0.000479769 4.48451e-23)
(1.02584 9.56867e-05 1.32479e-22)
(1.03326 0.00122801 -6.31374e-22)
(1.02317 -7.62453e-05 4.96899e-25)
(1.0583 0.00806122 4.81297e-21)
(0.856855 0.00639818 1.77696e-20)
(0.587845 0.02215 -8.65989e-21)
(0.357737 0.0148662 -9.4649e-21)
(1.04537 0.00223003 -6.73245e-22)
(1.0269 0.000317206 0)
(1.03137 -0.0332662 -5.29464e-22)
(1.02907 0.000987783 -3.33111e-22)
(1.04258 0.00315313 -5.95624e-21)
(1.02944 -0.00570182 2.66919e-22)
(1.02714 0.000404858 -2.99381e-22)
(1.02746 -0.000138435 9.05319e-22)
(1.03936 -0.00307257 1.05399e-21)
(1.05933 -0.00463491 -7.71418e-21)
(0.767349 0.0112381 9.09862e-21)
(1.029 0.00095602 0)
(1.0609 -0.0133797 -6.38542e-21)
(1.03879 -0.0157438 -1.8573e-21)
(0.586307 -0.0409688 0)
(1.02645 0.00185023 0)
(1.0277 0.000217062 -6.47014e-23)
(1.03804 -0.00684234 -1.09104e-21)
(1.02665 0.000840898 0)
(1.05415 -0.0167797 7.10486e-21)
(1.02434 0.000900433 0)
(0.65055 0.0189783 -4.27437e-21)
(1.02706 0.00371878 6.932e-25)
(0.94435 -0.00642353 6.17919e-21)
(0.815298 0.012859 -2.71904e-21)
(1.03899 0.000471979 0)
(1.05664 0.0060553 -8.10281e-21)
(1.05122 -0.00993389 -2.56937e-21)
(1.05299 0.00713546 5.07108e-21)
(1.02714 -0.00158542 0)
(1.02553 4.67244e-05 0)
(1.02722 0.000358451 -4.21761e-22)
(0.640475 0.0202901 -4.70413e-21)
(0.681687 0.0167507 -4.3855e-21)
(1.02275 -0.00026604 -6.51074e-22)
(1.02883 -0.00594498 -7.70264e-22)
(1.02972 0.00613002 -2.65839e-22)
(0.715744 0.0183225 0)
(1.04969 -0.0109274 0)
(1.02929 -0.00245295 1.35691e-22)
(1.05273 0.00174902 0)
(1.02833 0.000207572 3.58735e-22)
(1.02098 0.000993045 2.32805e-21)
(1.03853 -0.00563029 1.65926e-21)
(1.05116 0.00712638 1.77765e-23)
(1.04667 -0.00698434 0)
(0.825433 0.0121907 -8.93563e-21)
(0.699506 0.0173697 1.22878e-20)
(0.785168 0.00457213 0)
(1.02482 -2.68203e-05 -1.35431e-22)
(1.02394 6.53872e-05 -4.04059e-22)
(1.05864 0.000135433 1.27029e-20)
(1.03395 -0.00326572 1.20351e-21)
(1.024 7.29035e-05 3.95702e-22)
(1.02729 -0.00168032 0)
(1.02185 -0.000118712 -9.27942e-24)
(1.03117 0.000532823 7.65998e-22)
(0.879533 0.0104267 0)
(0.9636 -0.00772593 9.24195e-21)
(0.690196 0.0180438 0)
(1.05378 0.00629514 -5.71447e-21)
(1.02664 -0.000346576 -8.27925e-22)
(1.05317 0.00246349 4.18873e-21)
(0.0117929 0.0212904 8.84487e-21)
(0.621549 0.0191453 -8.38338e-21)
(0.798341 0.0131314 3.38253e-21)
(1.05075 0.00101689 1.71062e-22)
(1.02684 0.000402329 0)
(1.02772 0.000569434 -3.92321e-22)
(1.02833 -0.00596621 4.60014e-23)
(1.06113 0.0162166 -7.65869e-21)
(1.02002 -0.000429965 -7.68992e-22)
(1.02288 -0.000293423 0)
(0.017358 -0.0047057 -1.73684e-20)
(1.02741 -0.00817769 6.09999e-22)
(0.59482 -0.0465432 -3.67286e-21)
(1.02536 4.07947e-05 -3.85143e-22)
(1.06256 0.00949946 0)
(1.04563 -0.00576994 -2.50552e-21)
(1.05163 0.00511247 -1.04241e-22)
(0.607246 0.018689 1.26764e-21)
(0.852014 0.00723663 -8.41498e-21)
(1.02692 -0.00722747 1.86929e-21)
(1.02567 0.000361003 0)
(1.04424 -0.0192707 2.9327e-21)
(1.02747 -0.00189107 3.17988e-22)
(0.459745 -0.0268841 -1.72486e-21)
(1.0532 0.00701642 6.83912e-21)
(0.51895 -0.0232679 0)
(0.836307 0.0005454 3.62232e-23)
(1.0718 0.0124691 -2.51955e-21)
(1.0267 0.000479574 -2.19031e-22)
(1.0384 -0.00246891 -6.06019e-23)
(1.0301 -0.0206404 -2.44416e-23)
(1.05825 -0.00509399 -3.31207e-22)
(0.251059 -0.0325124 6.17581e-21)
(1.04421 0.00722185 3.95401e-21)
(1.02642 0.000242707 1.18994e-22)
(1.02263 -0.000177383 2.08385e-22)
(1.02907 -0.00331614 -8.63555e-22)
(1.02893 5.65515e-05 -1.64953e-22)
(1.04048 -0.00609214 1.57843e-21)
(1.06262 -0.00384274 0)
(1.02767 0.000544911 -2.85234e-22)
(1.0261 0.000168093 3.36911e-24)
(1.02559 -2.56798e-05 4.24318e-24)
(1.03044 0.000879348 1.90708e-24)
(1.03835 -0.0138335 2.73594e-21)
(1.01986 2.03742e-05 0)
(1.06305 0.00369826 0)
(1.02642 0.000446734 -4.09857e-22)
(1.04581 -0.00533814 -2.7841e-21)
(1.05699 -0.000865454 0)
(0.783046 0.0134206 -2.19772e-22)
(1.06645 0.00500696 0)
(1.03085 0.000497083 5.30144e-22)
(1.02857 0.000458575 -1.42236e-22)
(1.05181 0.00381571 -5.16151e-21)
(1.05663 0.00568619 7.92412e-21)
(1.02636 -0.000255403 0)
(1.02258 3.48477e-05 0)
(1.0419 -0.0342257 6.25568e-21)
(1.02914 0.00558397 6.74959e-22)
(1.03141 -0.0217339 0)
(1.0524 0.00810586 -5.70037e-21)
(1.02652 0.000142988 1.25498e-22)
(1.01892 -1.26812e-05 -2.0513e-22)
(0.574131 0.0178943 -2.70794e-21)
(0.69175 -0.0162842 -4.48827e-21)
(1.02929 0.00457902 0)
(1.02688 0.000423106 2.60191e-22)
(1.02532 8.40116e-05 3.88069e-22)
(0.698808 0.0168584 1.67467e-21)
(1.02235 -0.000128353 -2.0089e-24)
(1.06603 -0.0336045 -1.49483e-20)
(1.03304 -0.000552099 6.45404e-22)
(1.04067 -0.00576485 -1.62059e-21)
(1.03385 -0.00341328 -1.72782e-21)
(1.02691 0.000228737 -8.15731e-22)
(1.05191 0.00587559 0)
(1.06073 -0.0165409 0)
(0.890146 -0.00388379 6.80955e-22)
(1.0284 0.00045954 1.36682e-22)
(1.0219 0.0155775 -1.96521e-22)
(1.04054 0.00465813 -3.85749e-21)
(1.03586 0.0053142 0)
(1.03673 0.000766769 0)
(1.02699 -0.000163775 0)
(1.02974 0.0013241 8.21514e-22)
(1.04537 0.000457225 0)
(1.04934 0.00286513 0)
(1.02284 -0.000287908 0)
(1.05803 -0.00635202 0)
(1.02298 -0.000154952 1.18668e-22)
(1.02218 0.000220543 0)
(1.02521 -6.44506e-05 0)
(1.00816 -0.000164649 3.86229e-22)
(1.02715 0.00183728 -2.41733e-22)
(1.02543 -1.05653e-05 -7.89756e-22)
(0.85575 0.000262151 -1.85125e-23)
(1.0179 -8.21193e-05 1.24145e-23)
(1.02739 0.000227102 -7.57685e-23)
(0.653148 -0.0422839 0)
(0.621213 0.0156004 0)
(1.04579 -0.0227852 0)
(1.02545 7.96938e-05 -8.03319e-22)
(1.03722 -0.00820462 -7.57651e-22)
(1.0252 1.29832e-05 0)
(1.02237 -0.00542961 3.79964e-21)
(1.04171 -0.0211322 -4.21779e-21)
(1.02457 -0.00046857 3.10054e-22)
(1.03626 -0.0119744 9.11355e-22)
(1.02222 -0.000142377 3.60859e-22)
(0.62589 0.0187764 0)
(1.02549 -0.0197792 2.35816e-21)
(1.03353 0.00389592 5.7572e-22)
(1.01926 -0.000300413 -7.01818e-23)
(0.542495 0.000782258 1.54026e-20)
(1.0292 -0.00335966 5.61379e-22)
(0.869884 0.0128044 -2.38101e-21)
(1.06964 -0.031759 1.63476e-20)
(1.02132 -0.00030761 0)
(1.02603 0.000100258 -1.21769e-22)
(0.54563 0.0204448 0)
(1.02814 0.00129066 -8.50782e-22)
(1.03808 -0.016058 1.22609e-21)
(1.05097 0.00706835 6.08482e-21)
(1.04229 0.00241066 1.93645e-22)
(1.02358 -0.000347864 3.69846e-22)
(1.02076 8.03558e-05 7.76158e-22)
(1.03856 0.00262378 0)
(1.02708 -0.000149165 0)
(1.02037 -0.000236538 0)
(0.78611 0.0113714 -9.21706e-21)
(1.02045 -0.012409 0)
(1.05404 0.0143667 -6.51554e-21)
(1.04822 0.000171369 -2.00558e-21)
(1.02725 -0.00146943 0)
(1.02776 0.000237326 0)
(1.0255 -0.000478962 -2.71635e-22)
(1.03342 -9.21038e-05 -6.01268e-22)
(1.02735 -0.000995864 -1.63339e-21)
(1.0309 -0.0138117 1.48499e-22)
(1.05134 0.00505154 -5.46658e-21)
(0.821144 0.000636881 -7.98853e-24)
(0.680883 0.0189568 1.32724e-20)
(1.04102 -0.015469 1.18733e-22)
(1.03817 0.0158149 -2.96182e-23)
(0.74228 0.0116266 0)
(1.05464 0.0097904 -1.0235e-21)
(1.02738 2.88059e-05 0)
(1.02774 0.00052564 1.66072e-22)
(1.02517 0.000288291 -3.14044e-24)
(1.04095 0.00719468 2.20376e-21)
(1.02658 0.00018402 0)
(1.02973 -0.00581649 -7.25625e-22)
(1.0248 5.36879e-05 1.19541e-22)
(1.02924 0.001197 4.20911e-22)
(1.02931 0.0012218 0)
(1.0256 0.000141003 -3.66332e-22)
(0.670763 0.0187975 1.01424e-20)
(0.823194 0.0114415 -1.16438e-20)
(1.02459 9.63918e-05 0)
(1.0545 0.0100834 4.23866e-21)
(1.02734 0.00473039 5.0089e-23)
(0.806627 0.0130609 0)
(1.05038 0.00100036 -1.63122e-22)
(1.06097 -0.0144632 1.15187e-20)
(1.02284 -0.000225963 0)
(1.0545 0.00186663 -1.08368e-20)
(1.03554 -0.00414343 -2.3166e-21)
(1.02779 -0.0102591 5.34892e-22)
(1.0353 -0.00401831 2.025e-21)
(1.02911 7.15611e-05 -3.24395e-24)
(0.694952 0.0191309 0)
(1.03108 0.00112127 3.20417e-22)
(1.05394 0.00573783 4.37825e-21)
(1.04153 0.0157548 5.26072e-21)
(1.01508 8.59124e-05 -3.02091e-23)
(0.835677 0.0120955 8.49365e-21)
(1.02532 -0.000525836 4.38896e-22)
(1.07298 0.0128213 2.36273e-21)
(1.02713 0.000212983 2.28923e-22)
(0.61672 0.0206134 0)
(1.02688 0.00471578 -9.45271e-23)
(1.02544 0.000141509 1.01626e-24)
(1.04952 0.00664928 1.21195e-21)
(1.01909 -0.0131904 0)
(1.05523 0.000617661 4.55401e-21)
(1.02649 0.00031808 8.98122e-23)
(1.02847 0.0014992 0)
(1.05852 -0.0102283 0)
(1.02798 0.00134291 7.66821e-22)
(1.04813 0.00111633 0)
(1.02734 -0.0101583 0)
(1.05452 0.0134046 0)
(1.02687 0.000298628 0)
(1.04096 0.00253264 0)
(1.06199 -0.0246132 7.54822e-21)
(1.02971 0.00108174 -3.80973e-22)
(1.02731 0.000471405 4.92393e-22)
(1.03745 0.00579522 6.4485e-22)
(0.810785 0.0108205 8.69525e-21)
(1.02692 0.000316888 -1.78718e-21)
(1.0226 -0.000163786 6.37555e-23)
(1.0573 0.0101177 9.3544e-21)
(1.05115 -0.0207898 -2.69446e-21)
(1.03094 -0.0106835 0)
(0.9287 -0.00847799 -1.33187e-21)
(0.828404 -0.000387052 -4.24864e-23)
(1.02739 -0.000192499 -9.2083e-22)
(1.02261 -0.00512269 -3.75591e-21)
(1.0356 0.00548458 0)
(0.830586 0.0124326 -1.34696e-20)
(1.02628 -0.00303089 1.6265e-21)
(1.02912 -0.00211206 1.26611e-22)
(1.06415 -0.0233111 -5.72208e-21)
(1.0377 -0.0097598 1.46317e-21)
(1.05768 0.0100897 -1.10524e-20)
(1.05148 0.00379779 1.37843e-20)
(1.02718 -0.0013727 0)
(1.01237 7.20148e-05 0)
(1.03828 0.00246873 0)
(1.03622 0.00705379 0)
(1.03891 -0.0134839 -2.31633e-21)
(1.04163 0.00540688 2.42073e-21)
(1.02978 0.00116588 -2.76994e-22)
(0.84331 -0.000822109 8.69991e-23)
(1.05277 0.0024783 1.82916e-21)
(1.02789 0.00141815 -1.46672e-23)
(1.03081 -0.0200088 2.67763e-23)
(1.03617 -0.0125423 4.62605e-22)
(1.03152 -0.00401953 -2.40896e-22)
(1.05265 0.0135925 0)
(1.02527 0.000298397 -2.15422e-22)
(1.02134 -0.000388776 -3.82863e-22)
(1.0331 0.000101498 1.05104e-21)
(1.05496 -0.0170574 -5.11479e-21)
(1.03429 -0.00329467 0)
(1.03055 0.00108211 3.6281e-22)
(1.02062 0.0016572 1.68828e-21)
(1.05041 -0.0216128 0)
(1.0281 -0.00243431 0)
(1.02131 -0.000369289 4.06047e-22)
(1.02514 0.000278655 0)
(1.04743 -0.0181037 -4.37033e-21)
(0.844353 0.00688103 0)
(1.04576 0.0021563 -4.71241e-21)
(1.05362 0.0142553 0)
(1.03151 0.000145339 0)
(1.03102 0.000354827 0)
(1.02964 0.000288264 5.43816e-23)
(0.978836 -0.0292235 2.20526e-21)
(1.02707 0.000379168 -2.87371e-22)
(1.02398 4.0382e-05 -6.80322e-22)
(1.02665 0.000465002 -4.10411e-22)
(1.02605 0.000174831 1.08737e-22)
(1.03476 -0.00660347 4.88575e-22)
(1.05778 -0.0132208 0)
(1.02744 0.000294926 -1.26385e-21)
(1.05166 0.00729502 0)
(1.0239 3.5766e-05 4.84373e-22)
(1.02837 0.000338504 -3.14901e-22)
(1.02359 -0.000375476 -3.43363e-22)
(1.0267 1.13978e-05 0)
(0.860317 0.0125074 0)
(1.02772 0.000619722 2.41341e-21)
(1.03022 9.24628e-05 4.76831e-24)
(1.02458 -0.000436316 -3.03842e-22)
(1.0226 -0.000136626 -3.03928e-22)
(1.02601 0.000205514 2.32779e-22)
(1.04949 0.00479399 0)
(1.04256 -0.00452653 -2.09132e-21)
(1.02748 -0.000172656 9.46232e-24)
(1.02177 -0.000361665 2.81377e-22)
(0.768962 -0.0111441 0)
(1.02702 -0.00125463 1.20977e-21)
(0.62694 0.0222222 -5.23229e-21)
(1.02558 0.000345086 0)
(1.02733 3.94888e-05 4.40382e-22)
(1.03109 0.00025005 9.02071e-24)
(1.02588 0.000192377 -1.33127e-22)
(1.02957 0.000223261 -7.50075e-23)
(1.03398 -0.0317895 4.05199e-22)
(1.01904 0.015757 0)
(0.806237 0.012532 0)
(1.02814 -0.00254318 -4.60271e-22)
(1.04644 -0.0196287 9.00664e-22)
(1.0435 -0.0259395 -2.48145e-21)
(1.05626 -0.00647123 9.13986e-21)
(1.03855 -0.00625983 1.85798e-21)
(1.0274 0.000131096 -8.54345e-23)
(1.06108 -0.025246 0)
(1.03064 0.000808578 -1.31738e-22)
(1.02803 -0.00380664 1.55037e-21)
(1.02763 -0.00437623 6.13711e-23)
(1.02299 -0.000121766 -6.78666e-22)
(1.03784 0.000613589 -6.55351e-23)
(1.02775 0.000697709 -2.41988e-21)
(1.0384 0.00262063 0)
(1.04471 -0.00321912 4.35678e-21)
(1.02582 4.69605e-05 -1.03802e-22)
(1.03511 0.00394086 0)
(1.02943 0.00105127 0)
(1.02847 0.00145006 -4.07856e-22)
(1.02441 -0.000390119 -9.32407e-24)
(1.06415 0.00349842 1.26827e-20)
(0.963369 0.000978478 -2.12325e-21)
(1.0206 0.000266045 0)
(1.05653 0.00152057 -5.79985e-21)
(1.02733 0.00389096 -9.69861e-24)
(1.02704 8.88482e-05 -7.75444e-23)
(1.02832 5.98485e-05 0)
(1.04509 -0.00340611 -5.38812e-21)
(0.665519 0.0183555 6.78787e-21)
(1.02738 0.00051566 -2.83474e-22)
(0.868915 0.00992567 0)
(0.819487 -0.0375752 2.0912e-23)
(1.0236 -0.00038646 3.93206e-22)
(0.689612 0.00115957 -6.92618e-22)
(1.02789 -0.00236319 -1.18231e-21)
(1.02926 -0.00225589 -7.31751e-23)
(1.0413 -0.024315 -5.02919e-21)
(1.04144 0.00439615 -2.68215e-21)
(1.05543 0.00104214 -1.07475e-20)
(1.02715 0.000182181 -8.73556e-22)
(0.661587 0.0197144 8.23225e-21)
(1.02734 0.000140108 -8.2745e-23)
(1.05035 -0.0107336 -2.38886e-21)
(1.027 9.34779e-05 0)
(1.07085 -0.00277577 1.13279e-20)
(1.03384 -0.00608022 -1.13058e-21)
(1.02946 -0.00529469 -9.63076e-22)
(1.02987 0.000839189 -2.03006e-22)
(1.05673 -0.00135446 3.96249e-21)
(1.02533 0.000314101 -1.00146e-21)
(1.04228 -0.0238087 0)
(1.02978 0.000840119 4.09855e-22)
(1.02537 -0.000442723 2.55871e-22)
(1.02525 0.000289504 -5.9598e-22)
(1.00985 -6.09346e-05 1.52439e-22)
(1.04271 0.0024412 9.45154e-22)
(0.706206 0.0176379 -2.73775e-20)
(1.02725 0.000252612 8.328e-22)
(0.835314 0.00970836 -9.51461e-21)
(0.656389 0.0218591 -1.09366e-20)
(1.05151 0.0072572 6.68039e-21)
(1.0344 0.00186734 0)
(1.00023 -0.000650145 8.20301e-24)
(0.880702 0.0122539 8.3468e-21)
(1.05853 -0.012904 0)
(1.05481 0.0165185 3.14389e-21)
(0.843812 0.000366153 0)
(1.02675 0.000297589 -6.55298e-23)
(1.02512 0.000270116 4.97091e-22)