/*--------------------------------*- C++ -*----------------------------------*\
| =========                 |                                                 |
| \\      /  F ield         | OpenFOAM: The Open Source CFD Toolbox           |
|  \\    /   O peration     | Version:  v2012                                 |
|   \\  /    A nd           | Website:  www.openfoam.com                      |
|    \\/     M anipulation  |                                                 |
\*---------------------------------------------------------------------------*/
FoamFile
{
    version     2.0;
    format      ascii;
    class       volVectorField;
    location    "300";
    object      U_0;
}
// * * * * * * * * * * * * * * * * * * * * * * * * * * * * * * * * * * * * * //

dimensions      [0 1 -1 0 0 0 0];


internalField   nonuniform List<vector> 
15335
(
(0.778624 0.013261 2.42594e-21)
(1.0517 0.0142163 -9.80224e-21)
(1.03838 -0.0330899 0)
(1.02281 -0.00023476 5.31212e-22)
(1.04542 -0.00419129 2.84539e-21)
(1.0229 0.00341273 -1.08681e-21)
(1.06211 -0.00434534 0)
(1.01867 -0.000236276 1.31961e-22)
(1.02648 0.000152551 3.39605e-22)
(1.02977 -0.00318037 0)
(1.03949 -0.00068404 1.57026e-21)
(1.02269 5.87652e-05 0)
(1.0217 -0.00741489 -1.16736e-21)
(1.04253 -0.019612 0)
(1.05253 0.00138811 0)
(1.02686 1.23752e-05 5.27026e-24)
(1.05488 0.013491 5.18904e-21)
(1.06469 -0.0226798 0)
(1.0251 -0.000526951 -2.93408e-22)
(1.04981 0.00251646 -5.13033e-21)
(1.02662 0.000162835 -2.29561e-22)
(0.436431 -0.0471657 1.0479e-20)
(1.04984 -0.00524239 6.55216e-21)
(1.02693 0.000182498 0)
(1.03785 -0.0329868 -1.13371e-21)
(0.68061 0.013385 0)
(1.06273 0.00313349 0)
(1.02687 0.000506284 2.31148e-22)
(1.05337 0.00214142 -3.6538e-21)
(1.03634 0.00283568 0)
(1.02689 0.00035654 -1.45423e-22)
(1.06093 0.00398246 0)
(1.01955 -0.00019331 0)
(1.0258 -0.00304686 0)
(1.06037 0.00376349 0)
(1.05801 0.00931917 -8.0404e-21)
(1.02961 -0.00316299 0)
(1.02584 -0.00150797 1.99527e-21)
(1.04325 -0.0190655 -2.22762e-21)
(1.0638 -0.0232426 0)
(1.02525 0.000305189 8.79871e-22)
(1.01528 0.0155087 -2.04557e-21)
(1.02572 8.59868e-05 -6.19714e-23)
(1.02306 -0.0091582 -1.13955e-21)
(0.883116 -0.00220577 -4.52533e-23)
(1.02626 0.000422316 2.18986e-22)
(1.04708 -0.00733412 -6.26248e-21)
(1.02076 -6.50916e-06 9.31448e-24)
(1.05441 0.00266029 7.97275e-21)
(1.02188 -0.00034565 0)
(1.02708 0.000198119 -1.11855e-22)
(1.02738 0.000381622 2.38017e-22)
(1.03271 -0.00401619 -2.12373e-23)
(1.02708 0.000323122 9.23012e-22)
(0.229178 -0.00257935 -4.37696e-20)
(0.855138 -0.0018297 1.4433e-23)
(1.03723 -0.0318739 0)
(1.02961 0.00172938 0)
(1.02557 -0.00144687 1.86708e-21)
(0.393973 0.0144167 1.13032e-20)
(1.0527 0.0139764 9.47727e-21)
(1.02929 7.33562e-05 0)
(1.0326 -0.00414076 -3.07723e-22)
(1.02728 -0.00267789 -1.73936e-22)
(1.04506 -0.00406129 2.32764e-21)
(0.770418 0.0139651 3.57124e-21)
(0.892748 -0.00204686 1.65865e-23)
(1.02923 -7.56436e-05 5.92596e-22)
(1.04043 -0.0158578 1.58576e-21)
(1.02578 5.1184e-05 0)
(1.02993 0.0015278 9.63911e-22)
(1.04964 -0.00492379 -4.88431e-21)
(1.03326 -0.00333673 1.05507e-22)
(0.92986 -0.00227323 -1.9927e-23)
(1.02936 -0.00500594 8.53904e-22)
(0.894949 -0.0221301 0)
(1.05398 0.0138359 2.76466e-21)
(1.01643 7.46807e-05 -1.20607e-23)
(1.02295 -0.000159173 -3.75252e-23)
(1.05766 0.00911837 7.5788e-21)
(0.753933 0.0119066 -8.46246e-21)
(1.05131 0.00693441 -6.43331e-21)
(1.05148 0.00698923 0)
(1.05313 0.0102695 5.87964e-23)
(1.03594 -0.0137481 2.01277e-21)
(0.429478 -0.0205191 1.54278e-20)
(1.02726 -0.00281488 -4.30702e-22)
(1.06219 0.00325751 0)
(1.02319 0.00332604 6.35535e-22)
(1.02716 0.000195527 -1.17761e-21)
(0.596303 0.017057 -1.29341e-23)
(1.01916 -0.00757015 -1.36076e-21)
(0.940275 -0.0017361 9.64626e-23)
(1.03484 0.0159906 6.09109e-21)
(1.04948 0.00251821 4.94107e-21)
(1.05336 0.0103052 -7.44407e-21)
(1.02595 8.59204e-05 0)
(0.778193 0.0139921 8.69449e-21)
(1.02699 0.000356578 0)
(0.773208 0.0139001 1.16585e-20)
(1.02611 9.94248e-05 5.70493e-23)
(1.02663 -0.00304115 2.03526e-21)
(1.05426 0.0133227 0)
(1.02711 2.22824e-05 2.41092e-26)
(1.02192 -4.55303e-05 0)
(1.02605 8.54056e-05 5.44744e-23)
(0.171718 0.0122863 -9.52343e-21)
(1.02734 -0.00128422 0)
(1.02895 0.00129644 -3.28189e-22)
(1.04469 -0.0206286 0)
(1.00642 4.10655e-05 0)
(1.02411 -0.00947569 -1.06592e-21)
(1.02767 0.00205658 0)
(1.01819 -7.63601e-05 0)
(1.01986 -0.000255247 -2.74826e-22)
(1.02657 0.000440174 -4.2997e-22)
(1.05863 -0.00457672 1.2811e-21)
(1.02197 -1.32836e-05 -1.32709e-22)
(1.0303 0.0158002 9.85354e-21)
(0.602515 0.0180793 -1.67406e-21)
(1.02685 -0.00311085 -1.29591e-21)
(1.06235 -0.00254692 1.3512e-20)
(-0.0191911 0.0725284 -1.77052e-20)
(1.02528 -0.000564173 0)
(1.05996 0.00424377 3.48486e-21)
(1.02737 0.000535815 -2.18034e-22)
(1.0254 4.74842e-05 0)
(0.551916 -0.0436387 0)
(1.0601 0.00483116 -3.78598e-21)
(1.02899 0.00131771 2.56589e-22)
(1.02783 0.000572681 3.6207e-22)
(1.06276 -0.00299478 -1.81425e-20)
(1.02146 -0.000153904 -4.5681e-22)
(0.770189 0.0131886 0)
(1.02842 0.000404838 2.06074e-22)
(0.97712 -0.000972647 -4.32813e-23)
(1.02749 -0.00187136 -2.93841e-22)
(1.02592 6.15746e-05 -5.16434e-23)
(1.04497 -0.0198089 0)
(1.02607 -0.0031014 3.65654e-22)
(1.03839 -0.00162468 0)
(0.80143 -0.0405663 2.17795e-21)
(1.02287 -0.000228468 0)
(0.698956 0.0121327 8.16983e-23)
(-0.0198 0.0775877 -2.05327e-20)
(1.03919 -0.0033598 3.70721e-21)
(0.866909 -0.0227377 2.35955e-21)
(1.03031 0.0017075 6.87964e-22)
(1.03633 0.00390985 -9.66192e-22)
(1.02235 -0.00876965 -2.39268e-21)
(1.0228 -9.61897e-05 3.63616e-23)
(0.711336 -0.0470822 -4.72077e-21)
(1.02487 -5.74353e-05 1.25071e-23)
(1.04874 0.00462016 0)
(0.872844 -0.011897 1.21982e-20)
(1.0274 -0.00162055 -8.02671e-22)
(1.05269 0.0104946 -2.90112e-21)
(1.02735 -0.00121896 0)
(1.02674 0.000400921 0)
(1.03537 -0.0133847 -1.75331e-21)
(1.02529 -0.000565066 6.83476e-22)
(1.02823 0.00136116 -7.06035e-22)
(1.03305 -0.00343038 -1.27057e-22)
(1.02461 -0.0108374 0)
(1.03035 0.00173476 -3.56641e-22)
(1.02286 -0.00023671 5.59794e-22)
(1.02722 0.000428624 -1.5519e-22)
(0.681618 -0.0488656 1.31176e-20)
(1.02868 0.000353689 0)
(1.02266 0.000111308 0)
(1.04413 -0.000585364 -4.33492e-21)
(1.02739 -0.00176842 3.5701e-22)
(1.03925 -0.00125168 -2.37271e-21)
(1.02745 -0.00173209 9.45292e-22)
(1.02726 -0.00748952 -5.14473e-23)
(1.03635 -0.0104432 -7.37613e-22)
(0.75866 0.010807 0)
(1.02869 0.00036105 0)
(1.0538 0.0100663 -3.8562e-21)
(0.791202 0.0130476 1.29746e-20)
(1.03873 -0.00161487 0)
(1.0274 0.0010824 -3.24332e-22)
(1.02072 -0.000345668 0)
(1.04553 -0.00449931 -2.82564e-21)
(1.04537 -0.00486652 2.38121e-21)
(1.06925 -0.00321759 0)
(1.05291 0.0105492 1.25625e-20)
(1.02695 0.00114723 -5.67632e-22)
(1.02185 7.11625e-05 0)
(0.10009 0.0199752 5.11643e-20)
(1.02203 -0.000168854 -4.96065e-23)
(0.773325 0.0145243 -1.33012e-20)
(1.05449 0.00302998 -1.15305e-20)
(1.02535 0.000313525 -4.56315e-22)
(1.0359 0.00032858 -4.30519e-23)
(1.01448 0.0144676 -8.09874e-21)
(1.03886 -0.00124073 1.81479e-21)
(1.02955 7.90828e-05 0)
(1.04513 -0.0221552 3.62062e-21)
(1.06832 0.00632793 -4.08246e-21)
(1.0309 0.000102955 -1.45514e-23)
(1.02712 -0.00792095 -5.50445e-22)
(1.02722 0.00049025 3.50046e-22)
(1.02194 -0.0087437 0)
(0.763118 0.0138389 -1.58002e-20)
(1.02923 0.00142978 -5.46465e-22)
(1.02687 -0.0332375 -3.80553e-22)
(1.02503 -8.48692e-05 -2.32803e-22)
(1.06135 0.0036346 2.55316e-21)
(0.77355 0.0133443 -1.18291e-20)
(1.05512 0.01353 0)
(1.02668 0.000534521 2.88057e-21)
(1.02575 0.000365599 4.08899e-22)
(1.02833 0.00150654 7.36905e-22)
(1.05407 0.0138819 -5.8721e-21)
(1.02814 -0.00818465 1.66909e-21)
(1.0197 -0.000141117 0)
(1.05398 0.00609031 4.70403e-21)
(1.02097 -0.000278651 3.644e-22)
(1.03876 0.000369791 -3.77463e-23)
(1.03633 -0.0109044 6.93847e-22)
(1.02341 -0.00962163 3.42245e-21)
(0.937395 -0.00124172 3.3401e-21)
(1.05357 0.0100312 0)
(1.01857 -0.000335924 0)
(0.674772 -0.0012908 -1.64465e-20)
(1.05285 -0.0200521 0)
(1.02978 -0.00467409 -2.97792e-22)
(1.06147 -0.00410164 0)
(1.05367 0.0135975 0)
(1.02972 0.00125772 -8.28094e-22)
(1.06944 -0.00392179 0)
(0.774052 0.00708577 0)
(1.05133 0.000515077 5.62295e-21)
(1.03444 -0.00313369 0)
(1.03876 -0.00594324 -1.90239e-21)
(1.02739 0.000309135 8.3202e-22)
(0.631623 -0.00397769 0)
(0.606059 0.0177718 -3.80973e-21)
(1.02987 -0.00563313 3.55408e-23)
(1.02261 -0.00923379 1.17414e-21)
(1.03055 0.00635532 5.39372e-24)
(1.02399 -0.0139192 -1.59929e-21)
(1.04449 0.000512437 3.63858e-21)
(0.794741 0.0122487 9.64217e-21)
(1.04579 -0.00658942 1.52153e-21)
(1.00465 -0.00104213 -2.69808e-23)
(1.02785 -0.00795411 0)
(0.958784 -0.0221061 0)
(1.03347 0.0160075 -2.5436e-21)
(1.04852 0.00428805 3.80307e-21)
(1.02794 0.000251389 -2.7553e-24)
(1.06236 0.00953349 4.6918e-21)
(1.02982 0.00159701 0)
(1.02693 0.000216796 0)
(0.401246 -0.0456943 -1.09282e-20)
(1.0295 -0.00482806 3.63418e-22)
(1.01875 -6.04637e-05 -1.61949e-23)
(0.912221 -0.00104822 -2.70552e-20)
(1.02673 0.000218015 0)
(0.986697 0.0138988 0)
(1.05152 0.015598 6.26951e-22)
(0.626312 0.0174888 -1.73199e-21)
(1.06998 0.0070798 -4.67843e-21)
(-0.0192888 0.0748744 0)
(0.665303 0.0221252 -1.07209e-20)
(0.850025 -0.0111278 1.5624e-20)
(1.02631 0.000241181 -1.85115e-22)
(1.05423 0.0139061 6.01462e-21)
(1.03922 -9.16813e-05 1.957e-21)
(1.0614 -0.020235 1.46918e-20)
(1.02579 -1.7914e-05 1.17304e-23)
(0.779882 0.012181 9.27013e-21)
(1.02867 0.000423271 -2.01049e-22)
(1.03505 -0.00668307 -7.11655e-22)
(0.756304 0.00855533 -2.10254e-20)
(0.411237 0.0334046 0)
(1.02791 0.00122689 0)
(1.03554 0.000393311 -2.1682e-21)
(0.766136 0.0140054 8.9596e-21)
(1.02651 0.000462873 1.13236e-22)
(1.02629 2.33981e-05 1.42549e-22)
(1.03342 -0.00632157 2.65647e-23)
(1.03612 0.00314813 -1.17796e-21)
(1.06198 -0.0191596 3.85158e-21)
(1.03602 0.00336595 2.08041e-21)
(1.03583 -0.0143145 0)
(1.02285 -0.000199056 -2.91184e-22)
(1.06625 0.00588189 0)
(1.04903 0.00456136 4.52237e-21)
(1.0632 0.00919022 0)
(1.04306 -0.00395194 0)
(1.02704 0.000404242 4.55918e-22)
(1.0275 -0.00188634 -8.49269e-22)
(0.653016 0.0216644 8.75587e-21)
(1.04916 0.00144715 -1.12043e-21)
(1.04408 0.000680239 7.15054e-21)
(1.02712 0.000426472 -1.63547e-22)
(1.03892 0.000124113 -1.74516e-21)
(1.03319 -0.00645697 3.25069e-22)
(1.03455 0.00163515 1.87802e-22)
(1.0509 -0.0180176 0)
(0.865213 -0.00343466 1.18331e-21)
(1.02865 0.00167482 3.43267e-22)
(0.858517 -0.0424569 -6.30988e-21)
(1.02646 0.000457496 -1.50131e-22)
(1.02677 0.000499111 0)
(1.04217 0.00257555 -1.01812e-22)
(0.691729 0.021313 0)
(1.05219 -0.0209594 0)
(0.467527 0.0209193 -1.68491e-20)
(1.04562 0.00528422 -2.26462e-23)
(1.02677 0.000967149 -2.39989e-21)
(0.762595 0.0123506 -9.48758e-21)
(1.02637 0.00042936 4.22203e-22)
(1.02992 0.00160345 0)
(1.02922 0.00031475 -1.20444e-22)
(1.02896 0.000336019 -1.62896e-22)
(1.03912 -0.000491813 4.44241e-22)
(1.01997 -7.83248e-05 -2.04279e-22)
(1.0296 0.00480024 -2.95628e-22)
(1.02134 -0.000283938 0)
(0.805182 -0.00230845 0)
(0.912737 -0.00552624 6.58834e-21)
(1.04925 0.00108708 0)
(-0.0147309 0.0744309 5.41728e-20)
(1.06354 -0.0225927 0)
(1.02897 0.000342646 -1.7515e-22)
(1.02937 0.000283771 -2.21733e-22)
(1.02969 0.000282804 -5.25707e-23)
(1.02554 0.000338924 0)
(0.748875 -0.00473362 -1.94878e-21)
(1.06269 0.0151973 -9.60362e-21)
(1.02665 0.000413344 2.72502e-21)
(1.0525 0.00789377 4.06075e-21)
(1.0259 7.17991e-05 -5.6261e-23)
(1.02088 0.000113137 -1.03825e-21)
(1.04818 0.00432775 0)
(1.04258 -0.0206679 0)
(1.0151 0.0141346 0)
(1.03945 -0.014511 1.42716e-22)
(1.05738 -0.00618499 0)
(1.06055 -0.0178947 -1.13477e-20)
(1.03994 -0.01477 -3.09214e-21)
(1.01097 -1.14556e-05 8.70241e-24)
(0.992884 0.0158035 0)
(1.04552 -0.021377 -3.5205e-21)
(0.961584 -0.0211995 0)
(1.04449 -0.000787817 2.4219e-21)
(1.04636 0.0057776 -1.03563e-20)
(1.02134 -0.00625679 1.68657e-21)
(1.02923 0.000325553 0)
(1.02211 -0.000295432 1.75672e-22)
(0.722525 -0.0412402 -2.02875e-21)
(0.99294 0.000746828 4.54852e-21)
(1.04525 0.000745259 -5.2627e-22)
(1.02937 0.00143729 0)
(1.02939 0.000277317 0)
(1.02252 -7.29782e-05 -6.16279e-22)
(0.699186 0.000231081 -9.07451e-22)
(1.02377 0.00283797 -2.66119e-22)
(1.0253 0.0003051 0)
(1.04816 -0.00324948 0)
(1.02353 0.00288967 0)
(1.02563 -0.00165554 1.7698e-22)
(1.02988 0.00147594 -3.4921e-22)
(1.03939 -0.00372921 -1.97233e-21)
(1.03949 -0.000924908 -2.75606e-21)
(1.05469 0.0022903 5.82819e-21)
(1.02503 0.0012975 -2.66905e-22)
(1.02942 0.0013836 0)
(1.02304 -0.00016729 0)
(1.05092 0.00051111 0)
(1.02254 -0.000142306 -1.97082e-23)
(1.02678 0.000316191 0)
(1.02674 0.000467868 1.95779e-22)
(1.02455 -7.65097e-05 1.49199e-24)
(1.02491 -5.34272e-05 -4.34569e-24)
(1.02753 0.00427966 3.95201e-23)
(1.02109 -0.00586867 -6.87467e-21)
(0.914614 -0.0248827 4.50033e-21)
(1.05974 0.00518 9.39176e-21)
(1.02759 0.00146814 5.77968e-22)
(1.0237 -0.0146195 -5.93166e-22)
(0.638829 0.00225103 -1.73324e-20)
(1.03991 -0.0156055 1.6254e-21)
(1.02597 0.000400133 -8.55051e-22)
(0.870705 0.0103089 1.88877e-20)
(1.027 0.000147902 1.32001e-21)
(1.02758 -0.00194938 -4.46206e-22)
(1.04122 0.0055541 -1.08826e-21)
(1.02524 -0.010717 0)
(1.02727 0.000381968 0)
(1.04618 0.00596222 9.79734e-21)
(0.672261 -0.00377089 0)
(1.02853 -0.00579311 1.59608e-21)
(1.0339 0.00434456 0)
(1.02481 -6.41372e-05 0)
(1.02283 -7.71825e-05 -4.76039e-24)
(0.890395 0.00888219 -2.24813e-20)
(1.05276 0.00102206 6.90598e-21)
(1.04143 4.08847e-05 3.24373e-23)
(1.03156 -0.0227253 0)
(1.02718 0.000238315 0)
(1.02623 0.000382643 1.3408e-22)
(1.05834 -0.000331882 -1.09388e-20)
(1.02554 0.000150183 1.87383e-22)
(1.03863 0.00064211 -3.54745e-21)
(1.03568 -0.0318691 0)
(1.0335 0.00423799 -1.025e-21)
(1.02723 0.000230138 -2.8148e-24)
(1.03304 -0.000384527 -1.40711e-21)
(1.02183 -7.87226e-05 3.09598e-23)
(1.04404 0.00112553 -3.9209e-21)
(1.05137 -0.0171784 3.72104e-21)
(1.02666 0.000445906 2.17456e-22)
(1.02483 0.00124592 5.73188e-22)
(1.046 -0.0061623 0)
(1.02736 -0.00160005 7.702e-22)
(1.0297 0.00121078 1.13817e-21)
(1.05464 0.00757197 0)
(1.0243 -0.000356873 8.7254e-22)
(1.05573 0.0137035 0)
(1.02721 0.0041344 7.47162e-24)
(1.03556 -0.0126897 8.85374e-22)
(1.02383 -0.0124682 -4.29122e-21)
(1.02535 -0.000621154 -1.00011e-22)
(1.0273 -0.00149488 -1.30138e-21)
(1.02746 0.000537137 -2.07659e-22)
(1.0556 0.0140741 0)
(0.977592 0.0139419 0)
(1.02856 0.00176995 -2.97086e-22)
(1.01783 -3.40879e-05 6.21902e-24)
(1.04255 -0.000154124 8.92565e-23)
(1.02472 -7.32425e-05 0)
(1.02563 0.000152251 0)
(0.838525 0.0121554 -4.39773e-21)
(1.05437 0.0076756 5.90641e-21)
(1.02434 -0.000332374 -4.42675e-22)
(1.05342 0.000646481 6.93153e-24)
(1.02579 8.55578e-05 -6.03988e-23)
(1.02917 -0.00318836 -9.12803e-24)
(1.02316 -0.000158403 -1.85261e-22)
(0.74438 0.0119044 2.65582e-20)
(1.04556 0.001149 6.47047e-22)
(0.898023 -0.00312337 0)
(1.05057 -0.0100145 2.3289e-21)
(1.02883 0.00533879 -4.06161e-22)
(1.04901 0.00286771 0)
(0.991606 -0.00101058 0)
(1.02916 0.00141406 5.89004e-22)
(0.848839 0.0121513 1.30091e-20)
(1.02473 -0.000525379 0)
(0.362687 0.0112498 -7.73088e-21)
(1.02287 -0.000160654 2.23033e-22)
(1.02736 -0.0008616 0)
(1.05211 0.00596684 0)
(0.967723 0.0145053 -2.26798e-21)
(1.02998 0.00139934 0)
(1.03638 0.00364267 -2.29573e-21)
(1.02734 -0.00106965 1.55893e-21)
(1.04692 -0.00781404 7.15784e-21)
(1.03051 0.00166336 0)
(1.04271 -0.00368823 0)
(1.05442 -0.0185937 0)
(0.826124 0.000807533 -2.47299e-24)
(1.01586 -0.000249903 3.02809e-22)
(1.05378 0.0137916 -2.61347e-21)
(1.04551 0.00145855 -2.2669e-21)
(1.04365 0.00126497 -3.66048e-21)
(1.02541 -0.000607323 -1.54549e-21)
(0.807145 0.0126013 -4.93359e-21)
(1.04596 0.0051534 -4.89963e-21)
(1.06171 0.000954406 -5.51231e-21)
(1.02916 -0.00234209 -1.80073e-23)
(1.02549 2.73727e-05 0)
(1.02653 -4.09687e-05 1.13165e-22)
(1.03829 -0.00703308 0)
(0.613427 0.016851 1.54429e-20)
(1.03317 0.00375782 0)
(1.02758 -0.00375692 1.75144e-21)
(1.03137 -0.00459637 2.12016e-22)
(1.02997 -0.00467384 2.22919e-22)
(1.02286 -0.000223084 -5.55213e-22)
(1.02276 -9.13535e-05 1.31836e-23)
(0.923702 -0.0235227 0)
(1.0293 -0.00590947 -8.78929e-22)
(1.02934 -0.00323611 0)
(1.02734 0.000492211 -1.74156e-22)
(1.02737 -0.000795984 -5.1608e-22)
(1.02916 0.000701205 -5.05346e-23)
(1.02935 0.000863364 -3.29167e-23)
(1.02565 -4.38864e-06 0)
(1.02421 -7.9798e-05 2.51091e-24)
(0.797553 0.0127691 9.91893e-21)
(0.686704 0.0174782 8.92639e-22)
(0.58857 0.0147593 6.32111e-21)
(1.05183 0.00468888 -1.24019e-21)
(1.05317 0.00176322 0)
(1.05997 -0.0160421 0)
(1.03038 0.00168985 0)
(0.26632 -0.0354619 -3.2163e-21)
(1.0292 -0.000195265 0)
(1.05845 -0.00143794 0)
(1.02583 5.98859e-05 -1.36265e-24)
(1.04788 0.000379293 0)
(1.05172 0.00442652 0)
(1.05472 -0.0193567 0)
(1.02277 -0.0002651 6.42539e-22)
(1.02943 -0.00439898 7.97192e-22)
(1.029 -0.0057652 6.18547e-22)
(1.02656 -0.000428503 9.18761e-22)
(1.05688 0.00268557 2.83658e-21)
(1.06163 -0.0183488 -7.78781e-21)
(1.03489 0.000482261 4.48669e-23)
(1.02584 9.5686e-05 1.32541e-22)
(1.03326 0.001228 -6.31173e-22)
(1.02317 -7.62448e-05 4.96444e-25)
(1.0583 0.00806054 4.81281e-21)
(0.856858 0.0063974 1.7769e-20)
(0.587842 0.0221496 -8.65978e-21)
(0.357739 0.0148656 -9.46479e-21)
(1.04537 0.00223002 -6.73178e-22)
(1.0269 0.000317209 0)
(1.03136 -0.0332711 -5.29169e-22)
(1.02907 0.000987724 -3.33169e-22)
(1.04258 0.00315213 -5.95604e-21)
(1.02944 -0.00570191 2.67009e-22)
(1.02714 0.00040485 -2.9948e-22)
(1.02746 -0.000138397 9.05444e-22)
(1.03936 -0.00307258 1.05385e-21)
(1.05933 -0.00463503 -7.71389e-21)
(0.767349 0.0112441 9.09819e-21)
(1.029 0.000955946 0)
(1.0609 -0.0133793 -6.38526e-21)
(1.03879 -0.0157438 -1.85708e-21)
(0.586316 -0.0409771 0)
(1.02645 0.00185323 0)
(1.0277 0.000217059 -6.47336e-23)
(1.03804 -0.00684233 -1.09088e-21)
(1.02665 0.000842654 0)
(1.05415 -0.0167798 7.10465e-21)
(1.02434 0.000900432 0)
(0.65055 0.0189779 -4.27424e-21)
(1.02706 0.00371878 6.76042e-25)
(0.944352 -0.00642243 6.17901e-21)
(0.81529 0.0128577 -2.71913e-21)
(1.03899 0.000471973 0)
(1.05665 0.00605503 -8.10246e-21)
(1.05122 -0.00993397 -2.56926e-21)
(1.05299 0.00713566 5.07077e-21)
(1.02714 -0.00158542 0)
(1.02553 4.67247e-05 0)
(1.02722 0.000358453 -4.21915e-22)
(0.640469 0.020289 -4.70412e-21)
(0.681687 0.0167499 -4.38535e-21)
(1.02275 -0.00026604 -6.51341e-22)
(1.02883 -0.00594512 -7.70445e-22)
(1.02972 0.00613002 -2.65495e-22)
(0.715746 0.0183223 0)
(1.04969 -0.0109275 0)
(1.02929 -0.00245295 1.35987e-22)
(1.05273 0.00174892 0)
(1.02833 0.00020757 3.58013e-22)
(1.02099 0.000977404 2.32768e-21)
(1.03853 -0.00563029 1.65902e-21)
(1.05116 0.00712649 1.77818e-23)
(1.04667 -0.00698441 0)
(0.825429 0.0121958 -8.93587e-21)
(0.699506 0.0173687 1.22874e-20)
(0.785171 0.00457216 0)
(1.02482 -2.68207e-05 -1.35561e-22)
(1.02394 6.53867e-05 -4.04188e-22)
(1.05864 0.000135032 1.27024e-20)
(1.03395 -0.00326572 1.20313e-21)
(1.024 7.29029e-05 3.95828e-22)
(1.02729 -0.00168032 0)
(1.02185 -0.000118712 -9.28505e-24)
(1.03117 0.000532821 7.65597e-22)
(0.879534 0.0104237 0)
(0.963601 -0.0077245 9.24169e-21)
(0.690199 0.0180439 0)
(1.05378 0.00629523 -5.71414e-21)
(1.02664 -0.00034725 -8.27992e-22)
(1.05318 0.00246339 4.18849e-21)
(0.0117924 0.0212892 8.84476e-21)
(0.621541 0.0191457 -8.38356e-21)
(0.798338 0.0131275 3.38249e-21)
(1.05075 0.00101683 1.71051e-22)
(1.02684 0.000402322 0)
(1.02772 0.000569444 -3.92429e-22)
(1.02833 -0.00596636 4.60003e-23)
(1.06113 0.0162239 -7.65825e-21)
(1.02002 -0.000429965 -7.69281e-22)
(1.02288 -0.000293423 0)
(0.0173568 -0.0047028 -1.73685e-20)
(1.02741 -0.00817826 6.10077e-22)
(0.594817 -0.0465413 -3.67294e-21)
(1.02536 4.07942e-05 -3.85232e-22)
(1.06256 0.00949606 0)
(1.04563 -0.00576999 -2.50533e-21)
(1.05163 0.0051125 -1.04234e-22)
(0.607239 0.0186883 1.26765e-21)
(0.852016 0.00723554 -8.41471e-21)
(1.02692 -0.00722802 1.86954e-21)
(1.02567 0.000361001 0)
(1.04424 -0.0192712 2.93253e-21)
(1.02747 -0.00189107 3.18038e-22)
(0.459739 -0.0268842 -1.72544e-21)
(1.0532 0.0070166 6.83872e-21)
(0.518944 -0.023268 0)
(0.836306 0.00054187 3.60621e-23)
(1.0718 0.012462 -2.51948e-21)
(1.0267 0.000479575 -2.19089e-22)
(1.0384 -0.00246892 -6.05999e-23)
(1.0301 -0.0206386 -2.4264e-23)
(1.05825 -0.00509409 -3.31195e-22)
(0.251062 -0.032509 6.17633e-21)
(1.04421 0.00722186 3.95349e-21)
(1.02642 0.000242709 1.1904e-22)
(1.02263 -0.000177383 2.08472e-22)
(1.02907 -0.00331614 -8.64026e-22)
(1.02893 5.65487e-05 -1.64752e-22)
(1.04048 -0.00609216 1.57825e-21)
(1.06262 -0.0038429 0)
(1.02767 0.000544915 -2.85315e-22)
(1.0261 0.000168092 3.36967e-24)
(1.02559 -2.56796e-05 4.24582e-24)
(1.03044 0.000878772 1.89755e-24)
(1.03835 -0.0138334 2.73561e-21)
(1.01986 2.03742e-05 0)
(1.06305 0.003697 0)
(1.02642 0.000446734 -4.09967e-22)
(1.04581 -0.0053382 -2.78389e-21)
(1.05699 -0.000865719 0)
(0.783042 0.0134169 -2.1977e-22)
(1.06645 0.00500471 0)
(1.03085 0.000497081 5.2982e-22)
(1.02857 0.000458588 -1.42289e-22)
(1.05181 0.00381568 -5.16117e-21)
(1.05663 0.0056859 7.92377e-21)
(1.02636 -0.000255404 0)
(1.02258 3.48475e-05 0)
(1.0419 -0.0342305 6.25564e-21)
(1.02914 0.00558397 6.73984e-22)
(1.03141 -0.0217327 0)
(1.0524 0.00810618 -5.7e-21)
(1.02652 0.000142987 1.2556e-22)
(1.01892 -1.26812e-05 -2.05195e-22)
(0.574129 0.0178952 -2.70785e-21)
(0.691758 -0.0162794 -4.48645e-21)
(1.02929 0.00457902 0)
(1.02688 0.0004231 2.60271e-22)
(1.02532 8.4011e-05 3.88157e-22)
(0.698801 0.0168564 1.67469e-21)
(1.02235 -0.000128353 -2.01048e-24)
(1.06603 -0.0336038 -1.49484e-20)
(1.03304 -0.000552102 6.45179e-22)
(1.04067 -0.00576486 -1.62041e-21)
(1.03385 -0.00341328 -1.72727e-21)
(1.02691 0.00022873 -8.15877e-22)
(1.05191 0.00587566 0)
(1.06073 -0.0165405 0)
(0.890156 -0.00389317 6.80183e-22)
(1.0284 0.000459554 1.36733e-22)
(1.02189 0.0155854 -1.96527e-22)
(1.04054 0.00465813 -3.85688e-21)
(1.03586 0.0053142 0)
(1.03673 0.000759427 0)
(1.02699 -0.000163765 0)
(1.02974 0.00132389 8.21598e-22)
(1.04537 0.000457201 0)
(1.04934 0.00286511 0)
(1.02284 -0.000287908 0)
(1.05803 -0.00635206 0)
(1.02298 -0.000154952 1.18712e-22)
(1.02218 0.000220543 0)
(1.02521 -6.4451e-05 0)
(1.00816 -0.000164649 3.8636e-22)
(1.02716 0.00183959 -2.41731e-22)
(1.02543 -1.05653e-05 -7.89941e-22)
(0.855749 0.000254487 -1.86143e-23)
(1.0179 -8.21191e-05 1.24212e-23)
(1.02739 0.000227097 -7.58031e-23)
(0.653157 -0.0422926 0)
(0.621216 0.0156029 0)
(1.04579 -0.0227861 0)
(1.02545 7.96932e-05 -8.03501e-22)
(1.03722 -0.00820458 -7.57526e-22)
(1.0252 1.29826e-05 0)
(1.02236 -0.00542875 3.80029e-21)
(1.04171 -0.0211329 -4.21747e-21)
(1.02457 -0.00046857 3.10268e-22)
(1.03626 -0.0119742 9.11182e-22)
(1.02222 -0.000142377 3.60992e-22)
(0.625882 0.0187755 0)
(1.02549 -0.0197699 2.35852e-21)
(1.03353 0.00389592 5.7552e-22)
(1.01926 -0.000300413 -7.02041e-23)
(0.542498 0.000781546 1.54024e-20)
(1.0292 -0.00335966 5.61721e-22)
(0.869878 0.0128074 -2.38111e-21)
(1.06964 -0.0317583 1.63477e-20)
(1.02132 -0.00030761 0)
(1.02603 0.000100257 -1.21829e-22)
(0.545627 0.0204444 0)
(1.02814 0.0012902 -8.50813e-22)
(1.03808 -0.016058 1.22594e-21)
(1.05097 0.00706845 6.08434e-21)
(1.04228 0.00241847 1.93842e-22)
(1.02358 -0.000347864 3.70058e-22)
(1.02076 8.03558e-05 7.76562e-22)
(1.03856 0.00263202 0)
(1.02708 -0.000149154 0)
(1.02037 -0.000236538 0)
(0.786109 0.0113776 -9.21662e-21)
(1.02045 -0.0124112 0)
(1.05404 0.0143682 -6.51549e-21)
(1.04822 0.000171326 -2.00543e-21)
(1.02725 -0.00146943 0)
(1.02776 0.00023732 0)
(1.0255 -0.000478962 -2.71708e-22)
(1.03342 -9.21067e-05 -6.01062e-22)
(1.02735 -0.000995917 -1.6336e-21)
(1.0309 -0.0138111 1.48796e-22)
(1.05134 0.00505157 -5.46619e-21)
(0.821145 0.000622771 -8.01415e-24)
(0.680881 0.0189557 1.3272e-20)
(1.04102 -0.0154691 1.18735e-22)
(1.03817 0.0158122 -2.96408e-23)
(0.742281 0.0116322 0)
(1.05464 0.00979116 -1.02346e-21)
(1.02738 2.88262e-05 0)
(1.02774 0.000525632 1.66122e-22)
(1.02517 0.00028829 -3.14126e-24)
(1.04095 0.00719469 2.2034e-21)
(1.02658 0.000184018 0)
(1.02973 -0.00581658 -7.25947e-22)
(1.0248 5.36874e-05 1.19671e-22)
(1.02924 0.00119735 4.20977e-22)
(1.02931 0.00122221 0)
(1.0256 0.000141003 -3.66479e-22)
(0.670763 0.0187968 1.01421e-20)
(0.823193 0.0114479 -1.1643e-20)
(1.02459 9.63913e-05 0)
(1.0545 0.0100843 4.23847e-21)
(1.02734 0.00473039 4.95169e-23)
(0.806625 0.0130571 0)
(1.05038 0.0010003 -1.63111e-22)
(1.06097 -0.0144627 1.15184e-20)
(1.02284 -0.000225963 0)
(1.0545 0.00186645 -1.08362e-20)
(1.03554 -0.00414342 -2.31607e-21)
(1.02779 -0.0102595 5.34962e-22)
(1.0353 -0.00401831 2.02451e-21)
(1.02911 7.15884e-05 -3.2478e-24)
(0.694955 0.0191309 0)
(1.03108 0.0011231 3.20539e-22)
(1.05394 0.00573785 4.378e-21)
(1.04153 0.0157514 5.26082e-21)
(1.01508 8.59125e-05 -3.02243e-23)
(0.835672 0.0121011 8.4938e-21)
(1.02532 -0.000525836 4.39019e-22)
(1.07298 0.0128142 2.36267e-21)
(1.02713 0.000212979 2.29027e-22)
(0.616715 0.0206127 0)
(1.02688 0.00471578 -9.50033e-23)
(1.02544 0.000141509 1.016e-24)
(1.04952 0.00664932 1.21184e-21)
(1.0191 -0.0131922 0)
(1.05523 0.000617449 4.55379e-21)
(1.02649 0.000318078 9.01934e-23)
(1.02847 0.00149788 0)
(1.05852 -0.0102281 0)
(1.02798 0.00134259 7.66849e-22)
(1.04813 0.0011163 0)
(1.02734 -0.0101588 0)
(1.05453 0.0134075 0)
(1.02687 0.000298632 0)
(1.04096 0.00254048 0)
(1.06199 -0.0246125 7.54815e-21)
(1.02971 0.00108174 -3.80667e-22)
(1.02731 0.000471398 4.92544e-22)
(1.03745 0.00579522 6.44701e-22)
(0.810784 0.0108268 8.69467e-21)
(1.02691 0.000317258 -1.78738e-21)
(1.0226 -0.000163785 6.38021e-23)
(1.0573 0.0101176 9.35412e-21)
(1.05115 -0.0207902 -2.69439e-21)
(1.03094 -0.0106834 0)
(0.928689 -0.00846798 -1.33281e-21)
(0.828407 -0.000402439 -4.22265e-23)
(1.02739 -0.000192471 -9.20957e-22)
(1.02261 -0.00512128 -3.75656e-21)
(1.0356 0.00548458 0)
(0.830584 0.0124283 -1.34693e-20)
(1.02628 -0.00303039 1.62664e-21)
(1.02912 -0.00211206 1.27201e-22)
(1.06415 -0.0233099 -5.72201e-21)
(1.0377 -0.00975974 1.46296e-21)
(1.05769 0.0100894 -1.10521e-20)
(1.05148 0.00379777 1.37833e-20)
(1.02718 -0.0013727 0)
(1.01237 7.20147e-05 0)
(1.03829 0.00246491 0)
(1.03622 0.00705379 0)
(1.03891 -0.0134838 -2.31605e-21)
(1.04163 0.00540688 2.42037e-21)
(1.02978 0.0011655 -2.77035e-22)
(0.843313 -0.000837127 8.66964e-23)
(1.05277 0.00247822 1.82906e-21)
(1.02789 0.00141884 -1.46404e-23)
(1.03081 -0.0200073 2.65818e-23)
(1.03617 -0.0125422 4.62546e-22)
(1.03152 -0.00401954 -2.40624e-22)
(1.05265 0.0135964 0)
(1.02527 0.000298395 -2.15482e-22)
(1.02134 -0.000388776 -3.82991e-22)
(1.0331 0.000101495 1.05067e-21)
(1.05496 -0.0170574 -5.11466e-21)
(1.03429 -0.00329467 0)
(1.03055 0.00108247 3.62942e-22)
(1.02062 0.0016572 1.68897e-21)
(1.05042 -0.0216133 0)
(1.0281 -0.00243431 0)
(1.02131 -0.000369289 4.06214e-22)
(1.02514 0.000278654 0)
(1.04743 -0.0181041 -4.37014e-21)
(0.844356 0.00688011 0)
(1.04576 0.00215628 -4.71195e-21)
(1.05362 0.0142572 0)
(1.03151 0.000145861 0)
(1.03102 0.000354935 0)
(1.02964 0.000288299 5.4413e-23)
(0.978829 -0.0292181 2.2065e-21)
(1.02707 0.000379162 -2.87469e-22)
(1.02398 4.03813e-05 -6.8055e-22)
(1.02665 0.000465004 -4.10522e-22)
(1.02605 0.000174831 1.08782e-22)
(1.03476 -0.00660345 4.8844e-22)
(1.05778 -0.0132206 0)
(1.02744 0.000294915 -1.26405e-21)
(1.05166 0.00729517 0)
(1.0239 3.57654e-05 4.84536e-22)
(1.02837 0.000338501 -3.14396e-22)
(1.02359 -0.000375476 -3.43548e-22)
(1.0267 1.13986e-05 0)
(0.860311 0.0125097 0)
(1.02772 0.000620116 2.41363e-21)
(1.03022 9.25818e-05 4.78076e-24)
(1.02458 -0.000436316 -3.04051e-22)
(1.0226 -0.000136626 -3.04112e-22)
(1.02601 0.000205515 2.3287e-22)
(1.04949 0.004794 0)
(1.04256 -0.00452656 -2.09112e-21)
(1.02748 -0.000172658 9.06993e-24)
(1.02177 -0.000361665 2.81491e-22)
(0.768971 -0.0111402 0)
(1.02702 -0.00125463 1.21005e-21)
(0.626935 0.0222214 -5.23224e-21)
(1.02558 0.000345084 0)
(1.02733 3.95045e-05 4.40449e-22)
(1.03109 0.000253693 8.99421e-24)
(1.02588 0.000192378 -1.33179e-22)
(1.02957 0.00022651 -7.51981e-23)
(1.03398 -0.0317922 4.03752e-22)
(1.01903 0.0157575 0)
(0.806229 0.0125317 0)
(1.02814 -0.00254317 -4.60423e-22)
(1.04644 -0.0196292 9.00626e-22)
(1.0435 -0.0259409 -2.48136e-21)
(1.05626 -0.00647128 9.1395e-21)
(1.03855 -0.00625982 1.85771e-21)
(1.0274 0.000131106 -8.54474e-23)
(1.06108 -0.0252453 0)
(1.03064 0.000807602 -1.31781e-22)
(1.02803 -0.00380658 1.55066e-21)
(1.02763 -0.00437615 6.13711e-23)
(1.02299 -0.000121766 -6.78868e-22)
(1.03784 0.000605997 -6.56078e-23)
(1.02775 0.000698146 -2.4201e-21)
(1.03842 0.00261929 0)
(1.04471 -0.00321916 4.3564e-21)
(1.02582 4.69615e-05 -1.03858e-22)
(1.03511 0.00394086 0)
(1.02943 0.00105127 0)
(1.02847 0.00144888 -4.07885e-22)
(1.02441 -0.000390119 -9.32085e-24)
(1.06415 0.0034971 1.26823e-20)
(0.963374 0.000973582 -2.12144e-21)
(1.0206 0.000266045 0)
(1.05653 0.00152026 -5.79959e-21)
(1.02733 0.00389096 -9.53252e-24)
(1.02704 8.88508e-05 -7.75914e-23)
(1.02832 5.98588e-05 0)
(1.04509 -0.00340615 -5.38767e-21)
(0.665512 0.0183541 6.78794e-21)
(1.02738 0.000515662 -2.83557e-22)
(0.868916 0.00992282 0)
(0.819493 -0.0375837 2.08944e-23)
(1.0236 -0.00038646 3.93405e-22)
(0.689608 0.00117236 -6.92671e-22)
(1.02789 -0.00236318 -1.18266e-21)
(1.02926 -0.00225589 -7.35826e-23)
(1.0413 -0.0243162 -5.02883e-21)
(1.04144 0.00439615 -2.68175e-21)
(1.05543 0.00104191 -1.0747e-20)
(1.02715 0.000182176 -8.73702e-22)
(0.661585 0.0197137 8.23204e-21)
(1.02734 0.000140114 -8.27577e-23)
(1.05035 -0.0107337 -2.38874e-21)
(1.027 9.34798e-05 0)
(1.07085 -0.0027749 1.13275e-20)
(1.03384 -0.00608021 -1.13017e-21)
(1.02946 -0.00529475 -9.63441e-22)
(1.02987 0.000839257 -2.03059e-22)
(1.05673 -0.0013547 3.96232e-21)
(1.02533 0.000314099 -1.00173e-21)
(1.04228 -0.0238097 0)
(1.02978 0.000840243 4.09962e-22)
(1.02537 -0.000442723 2.55939e-22)
(1.02525 0.000289503 -5.96149e-22)
(1.00985 -6.09346e-05 1.52505e-22)
(1.04271 0.00245112 9.45545e-22)
(0.706209 0.0176379 -2.73767e-20)
(1.02725 0.000252603 8.32937e-22)
(0.835316 0.00970672 -9.51429e-21)
(0.656387 0.0218583 -1.09364e-20)
(1.05151 0.00725734 6.67989e-21)
(1.03439 0.00187107 0)
(1.00023 -0.000663284 8.50105e-24)
(0.880697 0.01226 8.34688e-21)
(1.05853 -0.0129037 0)
(1.0548 0.0165267 3.14369e-21)
(0.843809 0.000367695 0)
(1.02675 0.000297592 -6.55544e-23)
(1.02512 0.000270116 4.97233e-22)