/*--------------------------------*- C++ -*----------------------------------*\
| =========                 |                                                 |
| \\      /  F ield         | OpenFOAM: The Open Source CFD Toolbox           |
|  \\    /   O peration     | Version:  v2012                                 |
|   \\  /    A nd           | Website:  www.openfoam.com                      |
|    \\/     M anipulation  |                                                 |
\*---------------------------------------------------------------------------*/
FoamFile
{
    version     2.0;
    format      ascii;
    class       volScalarField;
    location    "100";
    object      ddt0(omega);
}
// * * * * * * * * * * * * * * * * * * * * * * * * * * * * * * * * * * * * * //

dimensions      [0 0 -2 0 0 0 0];


internalField   nonuniform List<scalar> 
14804
(
5.28544e-06
3.8333e-06
-0.000509496
-2.30952e-07
-3.02368e-05
-1.7284e-05
-0.00252078
-4.23475e-05
-0.00052424
2.56583e-05
0.00292614
-0.00474745
-0.0413732
0.0416393
-0.00248815
-1.04021e-05
-0.00605245
0.0409703
-1.0523e-05
4.64677e-06
2.52875e-07
-3.03922e-05
-6.67456e-05
-1.2512e-05
0.0231155
-0.00268719
-0.00303243
-2.31773e-06
-0.00248502
-0.00275718
-0.0135642
-0.00625985
-2.13121e-05
-4.27037e-05
-0.000864502
-2.38278e-07
-5.829e-07
-1.20471e-05
0.00318462
3.96683e-06
0.0040979
-8.48143e-05
-1.15444e-05
-8.02581e-06
0.00187225
0.001826
-0.00286982
-2.34995e-07
-4.91225e-05
-1.45718e-08
-3.3888e-06
8.93033e-06
-3.28533e-05
-0.000238512
-2.20466e-05
-2.27044e-06
-0.00343524
-0.00428979
0.0414649
-0.0425446
-0.00411366
-0.000833844
5.03782e-06
3.56698e-06
-1.14803e-05
-0.0040369
-0.00907384
4.90823e-05
2.69313e-05
-1.59326e-05
-1.8192e-05
-2.76293e-06
-1.08824e-05
-5.53737e-05
-0.000522757
-3.34914e-06
-3.66869e-06
-5.39662e-05
5.29816e-06
-5.1175e-05
-6.58809e-05
0.000610403
-5.40228e-05
-0.00213251
3.83284e-06
-4.02731e-06
7.73929e-06
-3.55973e-07
-3.15239e-05
-3.11627e-05
0.000639076
-3.72219e-07
4.07101e-06
-1.03205e-06
4.36581e-05
-0.00361735
9.51711e-06
0.00733559
-1.89378e-05
7.92738e-07
0.00371602
-0.000785882
-0.000152568
-1.18159e-05
-7.70153e-05
0.0412424
-1.45111e-05
8.96678e-06
-1.89402e-05
-0.00288992
9.5573e-06
-1.44433e-05
-0.03165
-5.06592e-05
-2.42627e-05
-0.000493572
0.00334192
-0.000502882
-1.13833e-05
1.35059e-05
-0.000724084
-5.79847e-05
-9.97025e-07
-5.62098e-05
-1.15166e-05
-5.4379e-05
7.87928e-06
6.5735e-06
-4.09333e-05
-0.00275171
1.8998e-06
-0.00373544
-0.000370802
-0.00881253
-1.97359e-05
-0.00107098
0.0196598
0.000209425
-0.000615095
-0.0248882
-5.87622e-07
-0.000331423
0.00019049
-8.22275e-06
-0.00496099
-1.06263e-05
0.000185001
0.00487983
-0.00205879
-1.44547e-05
-0.0444365
2.18671e-06
-0.0012467
-0.0076468
5.81019e-06
1.98663e-06
0.0219743
-1.32042e-05
-4.56138e-06
-0.00207344
-2.57028e-06
1.6839e-06
6.26928e-06
-0.000382289
-2.51746e-05
0.00595969
7.9426e-06
2.38889e-05
0.00286206
-1.29686e-05
-2.52199e-06
-1.03111e-05
-0.00211835
-8.97088e-06
-0.000372089
-0.00201651
0.020823
-0.00292935
-0.00167489
0.0161608
-1.10051e-05
-5.25359e-05
-2.16765e-06
0.0486254
-1.62521e-05
-0.000589313
-0.000239026
-0.00194868
-0.0060727
6.4865e-06
-4.42373e-06
-0.000751673
-0.00486189
0.00119105
0.0017831
0.0153399
0.00055642
-0.00194519
-2.09864e-06
-0.0027843
-2.59611e-06
-2.72748e-06
-9.93173e-06
-0.000618237
-1.85886e-05
-3.34897e-05
-0.015356
-0.144012
-5.4827e-05
-1.09052e-06
6.69714e-06
-0.000944553
-0.000197296
-1.33492e-07
-0.00284488
-1.08239e-07
-0.00698685
-3.22943e-07
0.00557784
-0.0873383
-1.36562e-05
0.0185724
4.77849e-06
0.0132231
-0.00165289
-3.27818e-05
-0.0020109
-8.9891e-08
-0.138481
0.0288674
-4.91266e-05
0.00198761
-2.60352e-06
-1.15264e-06
-0.012203
-3.91499e-06
-0.000501085
0.000744943
-3.57077e-06
0.00616751
0.00224308
-5.3095e-05
0.0051919
-0.00180532
9.32915e-06
3.23583e-06
-4.3458e-05
-0.0040382
-3.39722e-05
-1.32766e-05
-0.000683966
-0.000407955
-1.7759e-05
-1.5168e-05
9.58289e-06
0.0233736
-0.0021376
-0.000698769
-0.00274269
-0.00184786
-1.55114e-05
-0.00168388
5.97257e-06
-0.0169604
-4.04598e-06
-0.00290409
-4.35107e-07
0.021847
-0.003419
4.46729e-06
-9.06069e-07
0.00357263
0.000878637
0.00105471
-0.00014904
-0.00373546
7.72341e-06
-3.18247e-05
3.97159e-06
0.0185352
-4.62569e-07
-0.00242593
-2.52549e-06
-4.06767e-05
-3.59324e-06
-0.0019207
-1.25808e-05
-0.00209963
-2.97599e-06
-0.00192026
-0.00385256
-3.95693e-05
-0.0422734
-0.000755528
-1.19817e-05
-2.44024e-05
-0.00072728
-8.41624e-07
-2.72684e-05
7.64424e-06
-0.000320299
-2.00598e-05
-2.94552e-06
-4.83613e-05
2.84968e-06
-0.0297922
0.0650652
-1.20467e-06
-0.00412035
-8.03873e-05
9.64183e-06
-3.45262e-07
-0.00102549
-1.23914e-07
0.0161555
1.4997e-05
-7.43155e-05
9.01375e-06
0.00264662
8.36191e-06
-7.21695e-05
-8.89093e-06
-0.000360678
-0.0176132
-9.74071e-07
-1.09466e-06
-4.00268e-06
-0.000678087
-0.000781276
-5.46343e-05
0.000362401
8.5308e-07
-7.78417e-07
-0.00216689
-5.71172e-06
-0.00193873
-0.000218091
-0.00121531
-0.000408114
-0.00193355
-0.00196762
0.000179856
-0.00262083
-0.00065613
-0.000150808
-3.43291e-06
-0.00372389
-0.00403298
-3.18655e-06
-1.34359e-05
-5.40814e-05
-3.60135e-07
6.39681e-07
-0.00959003
-1.97329e-06
6.03756e-05
0.00687152
1.509e-05
-0.0172927
-1.11064e-06
0.00011231
6.99189e-06
0.000750319
-0.00279513
-0.00183511
-1.26326e-05
-1.0623e-06
-0.0561142
-0.0028526
0.000105764
0.000205111
-0.00208789
9.26763e-05
0.0230022
0.000538734
-0.00121366
-0.00276949
0.00350886
-3.99381e-07
-4.47194e-05
8.80294e-06
0.00389304
-0.00591038
-1.30196e-05
5.56154e-05
4.43626e-06
5.66368e-07
-2.38865e-06
-0.00169793
1.0846e-05
-0.00236138
2.18918e-06
-3.3856e-05
7.25001e-06
-1.24721e-06
-0.00182731
-0.000353731
-4.64726e-05
-0.000255327
-7.57758e-05
-2.59317e-05
-0.000119824
-0.00193493
-0.000751256
0.00133052
-3.38923e-05
0.00037118
6.50531e-06
4.7665e-05
-1.15868e-06
1.99008e-06
0.000385871
-0.00554129
-0.00206957
0.0479685
1.01649e-06
0.00772792
-1.86197e-06
-1.86449e-05
-2.63254e-05
-0.0372779
-1.33217e-05
0.000312784
-0.00125018
-1.04866e-05
-4.21928e-08
-6.42149e-05
-0.00175197
-4.93432e-05
-1.05814e-05
-3.45756e-06
1.41576e-05
-0.013787
-0.00270025
-1.06602e-05
-0.0015365
-5.64152e-05
-0.00180176
-6.37498e-08
-0.00150337
-0.00195357
-4.27189e-06
0.000218746
9.05144e-06
-4.71276e-05
-4.63303e-05
-0.00661414
-2.3194e-05
-2.7581e-06
-0.0159477
0.000733446
-0.0375901
-0.00191214
-0.0024141
-0.00204278
2.37935e-06
-0.0193047
1.13032e-06
-0.000579437
-1.17216e-05
-2.43051e-05
-6.68651e-05
-3.33138e-05
0.00854588
-8.34215e-07
-0.0131354
-5.04335e-05
-6.4114e-06
-0.00222201
-4.58878e-06
-9.17218e-07
-3.18674e-07
-0.00191323
-0.0305545
-0.00479983
5.95075e-05
1.67635e-05
0.00168037
0.000162913
-5.36957e-05
-1.35713e-05
-0.00511875
-0.00280551
0.00213186
-0.000435405
-0.00559694
-0.0628683
-6.01001e-06
-0.00278428
-0.00192987
-0.00142856
-0.00191299
-7.67919e-05
0.0322735
-0.00203128
1.52783e-05
-4.01939e-06
-0.17122
5.4868e-06
-2.95936e-05
-4.20127e-05
-1.29852e-05
0.000123642
-0.00185678
-1.70014e-05
0.000249589
-5.86499e-05
-2.29719e-05
9.95756e-06
-0.000674531
-4.78563e-05
-0.00150508
0.000115441
-1.28254e-05
-0.000333322
-0.0385283
-0.00206276
-0.00137667
-3.67039e-07
-6.61517e-05
-3.42257e-06
-4.7324e-05
-0.00276131
0.000373439
-0.00198069
-0.00205594
-0.000209599
-0.00805502
-0.00220677
-0.0302589
-0.0126991
1.94358e-06
-0.00205414
0.0127099
0.0334238
8.69303e-06
-0.0110545
-1.43976e-05
0.0108676
-0.0042055
-1.12309e-05
0.0266289
-5.39114e-08
3.93003e-05
1.08882e-05
-1.68342e-05
-0.00106823
-9.13855e-07
-1.49109e-05
3.328e-06
3.52907e-06
7.5858e-06
-3.43521e-07
1.98709e-06
-8.79021e-05
1.12703e-05
0.0111839
0.0166327
-1.00353e-05
-0.0018471
8.68947e-06
-0.00437398
-7.4279e-07
0.0142432
-6.30804e-06
0.0112607
-1.93739e-05
0.0150059
-0.00268206
-3.84134e-06
-3.4832e-05
0.00726173
-0.000728934
-0.00318865
-0.000421051
-5.44691e-05
-0.0102284
-0.00284956
0.00753534
4.29325e-06
-0.00287109
1.63397e-06
-3.82841e-05
-0.0467774
-0.00193892
-0.00191632
-2.50789e-07
1.37969e-07
9.29301e-07
6.25265e-07
0.00746871
-1.03445e-05
0.0205115
-0.0102667
0.0195461
-0.00218867
-0.00366414
-0.0017303
-8.79927e-05
-1.61343e-05
-0.0032175
-0.000693396
-8.51228e-07
0.000116451
-0.00190329
0.0231281
-1.41947e-05
-0.0235672
-1.41171e-05
2.198e-05
-0.00155888
-1.40581e-06
0.00105466
-0.00200164
-0.00217325
-0.00637792
-0.00249893
-1.48493e-06
-0.00204139
-2.29424e-06
5.0895e-05
0.00100977
0.00710958
-0.00341403
-1.43979e-05
-1.66792e-05
-0.0221569
-1.88195e-05
-0.0100841
-1.40527e-05
1.07264e-06
3.5283e-06
-0.00180732
-1.78519e-07
-1.55818e-05
5.4323e-06
-0.00122769
0.0388635
-5.80047e-05
-2.55346e-05
0.006652
-0.0246389
-2.8747e-06
-5.43138e-05
2.97984e-06
-4.17042e-06
-9.98048e-06
4.09174e-06
-3.67821e-07
-2.55333e-05
-0.00704675
-0.00255966
-6.18826e-06
-4.60421e-06
-0.0028622
0.0169915
-0.000325759
0.000302456
0.000172473
7.35445e-05
0.0273024
-2.21677e-06
-0.00277324
-4.56734e-06
0.000218445
-0.00182856
-0.00156707
-0.000757844
-0.0313691
4.1806e-06
-0.00523547
-4.30556e-05
-5.90491e-06
-0.0272372
-4.32682e-05
-1.08931e-05
0.168268
1.64057e-05
-0.017156
-0.00186691
4.99491e-06
-0.000374358
0.00106571
-0.00159656
0.000149652
-7.32987e-06
-0.000988051
4.65973e-05
7.87667e-06
-2.54219e-05
6.93752e-06
-0.00640053
-0.00356693
-1.54977e-05
-4.72456e-05
-7.95647e-06
-1.16804e-05
0.0351789
-4.86611e-05
-0.00224815
3.18838e-05
-0.000199968
5.37684e-06
6.66543e-06
-0.00204985
-0.00463043
-0.00327479
-0.000569328
-9.32508e-06
-0.00191445
-7.47225e-07
-0.000633798
-0.00200093
-0.00196445
-0.00245529
0.00700868
-1.42237e-06
1.28622e-05
0.000636638
0.0366426
0.00301332
-1.76675e-05
4.06476e-06
-5.86587e-05
-0.00174172
-0.0195225
-9.96399e-06
-5.90445e-06
6.35812e-06
0.115051
-0.00533631
-0.199655
0.0925563
0.00686166
-0.00290604
-1.4594e-07
-7.76875e-06
-2.29074e-07
-0.00106687
-4.86768e-05
0.000164782
0.0209767
-9.26582e-07
-1.68726e-05
-0.00187615
-2.99362e-05
-0.0144755
-1.60338e-06
9.6633e-07
7.27738e-06
-2.70697e-05
-4.06145e-05
0.0161476
-4.42532e-05
-0.00266551
-5.34935e-05
-0.0112138
-1.05677e-05
-0.00071782
-3.23716e-06
0.000146127
-1.18106e-06
-0.00319299
0.000945326
-0.00396221
0.000504128
5.84555e-06
7.57457e-06
-0.0021616
-0.107701
-0.00243063
-0.0033652
-7.19063e-06
-7.09928e-07
-0.00339949
-5.04348e-05
-5.45675e-05
-3.76866e-06
0.00213286
0.00343813
-7.58114e-05
-6.03676e-06
6.67427e-07
-0.00217469
-3.65186e-05
-0.00124181
-0.00259909
0.000776102
-1.08491e-06
-0.00289721
-0.0038724
-6.82083e-05
5.4525e-06
-1.09905e-05
-4.05392e-07
-8.7135e-05
-0.00121791
0.00666409
-7.45611e-07
-1.85059e-06
-0.014973
2.61579e-06
-1.33645e-06
0.00104213
5.38569e-06
-1.8269e-05
-1.69135e-07
3.46088e-05
-3.13503e-06
0.00115574
-0.00205739
4.05779e-06
-0.00161651
-8.38627e-06
-0.00033547
-3.77362e-07
-4.76951e-06
-0.00191258
-0.0118498
-0.00202414
-7.94071e-06
-0.0233982
-0.000170703
-2.27975e-06
-0.000915702
-1.90781e-07
-2.71479e-07
-1.65227e-07
-2.79799e-07
-0.00208273
-6.44799e-06
-9.15288e-06
0.0085473
2.82219e-06
-0.00223665
-1.49313e-05
0.00465006
-2.07607e-07
0.000272506
-0.00271559
0.000655874
-0.0585432
-2.62425e-06
-0.00270184
-0.00388645
-0.00290587
-5.03638e-07
-2.76788e-05
-1.39219e-05
5.02827e-06
1.87367e-06
-9.72086e-07
-0.00217984
-0.000535028
-1.29494e-05
-0.000107703
-4.34365e-06
0.000892943
-0.00385977
0.00391324
-8.78412e-06
-1.3902e-05
0.0109753
-0.000627725
1.1708e-06
-6.62884e-07
-0.000329929
-1.56995e-05
-0.00284517
-0.000222687
-5.07779e-05
-1.74787e-05
6.29829e-06
-0.0985835
8.26894e-06
5.8884e-06
-5.42218e-05
-0.00209714
8.19445e-06
-2.89277e-06
3.27187e-06
6.9375e-07
-5.63935e-05
-1.17808e-05
-2.3104e-08
-0.00284966
0.00185194
-0.0253676
0.00867127
-0.0103071
-7.86468e-07
-2.57925e-05
-0.00202753
-1.38722e-05
-5.37198e-06
-0.00124016
4.53712e-06
4.22202e-05
-0.000512811
-4.30394e-05
8.19496e-07
-1.06454e-07
0.000382339
-8.81457e-06
-8.65357e-05
0.000318974
-1.40123e-05
0.104886
0.034197
-2.73951e-05
-5.5079e-05
1.11116e-06
-0.000769975
0.0259566
-2.44037e-05
-0.0018794
0.00413411
-7.72355e-07
-0.000487703
-0.0027231
1.27339e-05
-1.78868e-05
-1.55244e-05
-6.53183e-06
0.000373925
-0.000758803
-5.60801e-05
0.00118833
-9.82596e-06
-3.4516e-06
6.45653e-06
9.2152e-06
-7.35194e-06
-6.92266e-06
0.0121405
-0.00353355
-9.94013e-06
-0.00291665
-0.00439469
-0.00476828
-4.35659e-05
0.000177212
0.0031137
-0.000594268
-0.00440583
0.159677
-1.10145e-05
-2.64205e-05
-0.00276535
-2.47373e-05
5.49979e-06
-8.23813e-06
5.44962e-06
-0.000564149
-4.22438e-05
-1.59964e-05
-4.74818e-05
-0.00801844
-0.00124209
7.82599e-06
-5.96301e-05
0.000164218
-6.59608e-07
-1.01294e-06
-2.27279e-05
-7.42055e-06
-7.21485e-06
1.264e-05
-0.0179145
-1.42737e-05
-0.013114
-0.00261127
-9.05505e-06
-0.000136131
-9.57872e-05
-0.06508
2.49076e-07
3.25973e-05
-2.64499e-05
-0.00309258
-2.04349e-06
-0.000290273
-0.00288237
-0.0189248
-7.6571e-07
0.00012757
0.0257853
-5.4403e-05
-4.59947e-05
-3.14023e-05
7.22779e-05
-6.36153e-05
-0.00151546
-0.000499542
8.94745e-06
0.0210032
7.01752e-05
-1.20342e-05
-0.00338633
0.0218586
-3.61006e-06
-0.00424913
0.00487948
-1.23036e-06
-0.0895865
-0.00579315
-0.00210403
-1.95295e-06
-3.6847e-06
0.000219206
-2.75142e-06
-0.0024309
7.14832e-06
-0.000484031
-2.04586e-05
-0.00244105
8.26636e-07
-4.26557e-05
-6.56637e-05
-1.9585e-05
-0.00122533
-0.00315878
-0.00272556
-5.63513e-05
-4.04085e-05
-0.00276335
-0.00035293
-1.59942e-07
-1.07027e-05
-5.24006e-06
-2.08028e-06
-0.0447347
-1.63685e-05
2.66348e-05
-0.0019269
-6.9916e-05
-7.13076e-08
1.17374e-08
7.82227e-06
-9.41819e-05
2.17416e-06
-3.93637e-08
-1.02114e-05
-1.68126e-06
0.0779331
-0.000181212
-0.0738356
-5.55594e-05
-0.000714222
0.0463707
-0.0153043
-0.0336379
-6.38877e-06
0.0371944
-0.00053083
0.0064709
3.86283e-06
5.01371e-06
-1.37371e-06
0.0142118
-0.00229561
-1.01391e-05
-0.00294868
-2.30029e-06
-8.42111e-06
0.0122338
-0.0025608
-0.000122258
-1.32771e-05
-1.53656e-05
-7.504e-06
-1.25455e-06
-8.05344e-05
-1.17204e-05
-2.27032e-05
3.98996e-06
-0.00270971
-9.23388e-06
-2.2764e-05
1.2795e-05
0.00262233
-0.000737475
-2.57856e-06
-2.01044e-06
-0.000218464
4.41014e-06
-0.0211936
-0.000177166
-4.24866e-05
-4.64178e-07
0.00243115
-4.23354e-05
0.000494781
1.73407e-07
-0.00196266
0.00040454
-5.01954e-05
-0.00190257
7.9459e-05
-1.78125e-05
-0.000812867
-0.000568273
0.0435315
0.0025467
-1.36652e-05
0.0010751
-0.00220295
-0.000590484
-9.65901e-07
0.000176216
-3.18646e-05
-0.183224
-1.47593e-05
-1.61966e-05
-0.00967681
0.00865944
-6.51831e-06
-1.74423e-05
-0.0028951
0.00836066
-0.00203078
0.00074568
-0.0016365
-2.56272e-05
-3.94085e-05
-9.3549e-06
-0.00259675
-0.00296295
-0.000386685
-5.03943e-05
1.38367e-05
0.0279955
4.28995e-06
-1.15442e-05
-0.00338517
-4.61865e-06
-0.000702572
-2.82931e-06
-1.39665e-06
2.77693e-06
-9.11031e-06
8.93071e-06
-0.0279307
-6.37012e-06
-0.00125791
-0.0110872
1.27788e-05
-4.71362e-05
-0.00279773
-0.0022559
-2.25495e-06
1.04931e-05
-3.48927e-07
-0.0012623
-5.17348e-05
0.0142652
-2.13793e-05
-2.35506e-05
-0.00198628
-0.00059263
0.000349267
-0.113527
-5.46419e-05
-8.80916e-07
-0.00904027
-0.00363893
-0.00158733
6.1893e-06
-0.00227769
-1.35976e-05
2.10124e-07
-8.43828e-06
-1.43082e-05
3.86975e-05
0.000270558
-0.000103297
0.0218499
-0.0474488
-0.00115284
-0.000619463
-2.50886e-05
-9.98702e-06
-0.00701536
-2.04989e-06
-1.39537e-05
-5.82035e-06
-3.67508e-05
0.00127844
6.71518e-06
-0.000104054
-0.0229525
-0.00303177
-7.88113e-05
-1.0484e-05
5.70954e-06
-5.04979e-06
0.0174903
7.02915e-05
-0.0019553
-8.02476e-05
0.00102664
-0.000619562
-0.00144677
-0.000544673
-0.0897502
6.22396e-05
-0.00210477
-0.0339348
-0.000636923
4.70213e-05
-8.36023e-06
0.00478404
-1.72306e-05
-0.00326356
-0.00291051
-0.0788027
-6.54056e-07
-0.00149505
-0.0103177
0.0330766
0.00050297
0.00122541
1.32456e-05
-2.96855e-07
-0.00276988
-7.47032e-05
-1.55517e-06
-1.05431e-07
-8.67366e-06
1.48393e-05
-0.00650814
-0.00154073
-0.00136626
-1.14771e-06
0.0315764
-9.48216e-06
-0.0382815
1.88169e-06
-0.00105282
-0.000172911
-4.21038e-05
-0.0552458
1.69482e-05
-0.00204767
-0.00229643
-4.92143e-05
-6.85101e-06
-8.76191e-08
-8.76532e-06
-3.57716e-05
-4.80072e-05
0.000525664
-0.00680835
-5.7714e-05
-0.00196506
-5.82021e-05
0.0103252
-0.00504817
-0.000189725
0.00647199
-0.000262859
-5.42488e-05
-3.51339e-05
-2.34311e-06
0.000952767
-6.58083e-06
0.0558112
-5.33721e-05
-2.72631e-08
5.96724e-06
-6.45029e-07
-0.000501648
-2.03502e-05
-0.00211294
-6.79058e-05
5.38454e-06
-0.00248263
-0.00204576
-1.70904e-05
0.0001927
-1.23955e-06
2.91865e-06
-2.34951e-07
0.00029216
0.000139821
-0.0022415
-0.00534231
-7.70826e-06
-0.000386087
0.00236265
-1.13843e-06
0.000826124
-0.0157525
0.000979947
-4.32834e-05
-0.00259414
-5.50049e-05
-0.0213369
-6.4238e-07
-3.63058e-05
-0.00199214
3.37086e-05
-1.47706e-05
0.0262533
-0.000708728
1.1614e-05
-0.00062467
6.81922e-05
-7.34083e-06
-1.27702e-07
-8.73182e-07
1.41349e-06
-9.19091e-06
-0.00170116
-0.00204947
-0.00283055
-2.60007e-05
-0.00115635
-0.00224677
-1.42104e-05
-0.00279562
-0.00274036
0.00417108
-2.49416e-07
-3.2224e-05
1.87961e-07
-0.00199934
-8.88464e-05
-5.47777e-05
-0.00827506
-0.000672557
0.000345651
-0.00750533
1.15349e-05
-2.02479e-06
-0.0024437
-0.00217288
-4.69823e-06
-0.00520978
-0.000631921
-0.00275653
-6.33066e-07
-7.3124e-05
-0.000789279
-0.0026078
5.16945e-06
0.00015325
6.38295e-06
-1.88614e-06
-0.0032543
-0.0383573
-5.3329e-07
-1.11478e-05
-0.000128301
-0.00167291
-2.6014e-06
-1.84385e-05
2.89059e-06
0.0187417
-1.39649e-05
0.00909861
-4.37697e-07
-1.73266e-05
0.000347022
1.3141e-05
-0.0114752
-5.47289e-05
-1.25473e-05
-0.0020476
-0.00226481
0.00402133
6.17013e-06
-1.03317e-05
0.00059858
-0.0042223
-0.00414563
-4.78452e-05
-3.8044e-06
-7.7907e-06
-6.86443e-05
-1.422e-06
0.000214807
-0.00266221
5.03972e-06
-0.00167962
4.10965e-07
0.0298728
-0.00236524
1.72637e-05
-0.00229599
0.0326957
-0.00208023
-0.0023649
-3.45887e-05
-0.00035213
-3.20197e-06
0.0336467
-0.00415542
-1.15196e-05
-1.28756e-06
-2.75075e-06
0.000164488
-0.000258203
-0.00153419
-0.000936969
6.59515e-06
6.65565e-06
-0.000717252
1.64854e-05
-1.94769e-06
1.11447e-05
-0.000735125
0.00567954
1.10067e-06
-1.26025e-05
-8.1959e-07
0.000148222
-7.89826e-06
-2.25999e-07
-2.43494e-06
-8.1955e-07
-0.00265337
-0.0018589
-0.00193621
-0.000167354
0.0187115
-1.16677e-06
-8.91852e-06
-0.000211433
-1.72551e-05
0.0187458
5.08326e-05
-0.00317739
0.0723593
-9.46817e-06
-3.05033e-06
1.46051e-06
-2.20459e-06
-1.86901e-05
0.0255737
-0.00141313
-0.000161836
0.000589341
-2.47901e-05
-0.00484418
-0.00150626
0.0510745
-2.23031e-05
5.91116e-06
-5.11962e-06
-5.1345e-06
0.0015342
-0.00283574
-5.48789e-05
-2.47612e-05
-9.27808e-07
4.86626e-06
-7.88412e-05
-1.22714e-05
0.0125193
-1.01442e-06
0.00341593
-0.00242973
0.010978
-5.38888e-05
-0.0034072
-0.00184985
-9.96951e-08
-0.00432993
-0.00562529
0.0195753
-5.7562e-07
-5.50642e-05
-3.00031e-07
-0.00335647
-1.4879e-05
-0.00077304
-8.41382e-06
-0.00195929
-0.000775458
3.71652e-07
-5.45097e-05
0.0037355
-0.0120663
-0.002097
-5.14636e-05
-0.00214282
-4.93372e-07
-0.00144275
1.59046e-05
6.27074e-06
-2.8952e-05
-3.42059e-05
-0.0020015
-0.00371429
-6.09533e-05
-0.00108042
-1.72692e-06
-4.99047e-06
5.44023e-06
-9.66364e-06
-2.54887e-05
7.24648e-05
0.000297957
-0.00364494
-0.00037248
-0.00211412
-0.00094709
-0.000130301
-0.000441158
-4.51682e-05
-4.34983e-05
-4.2511e-06
-2.40805e-06
0.000630993
-0.000107276
-0.00252409
3.44908e-06
-3.31217e-06
5.97779e-06
9.57889e-06
-6.75646e-07
-5.73789e-05
0.094423
-1.54684e-05
-5.25281e-07
-8.35451e-07
-3.73558e-05
-0.00250094
1.90791e-05
-0.000703232
-6.91672e-07
-0.000170584
-0.00332558
-0.00532816
-0.0178818
-0.000396142
0.00969469
0.00229555
0.00169804
-1.7178e-05
0.000211833
0.0793116
-4.48204e-05
7.09992e-06
-0.114134
-0.0064271
-4.66189e-05
-5.29794e-06
1.25266e-05
-5.38025e-06
0.0368989
-0.000445366
-0.000170074
-0.000611355
-0.0032943
0.00792806
-0.00196449
-0.00317066
-0.00219114
-3.07087e-05
-4.74181e-07
-1.94248e-07
-2.97474e-05
-1.11147e-05
-0.00755735
-0.00090833
-1.90592e-06
-2.2642e-05
-9.4739e-05
-1.09799e-05
-4.0611e-05
1.78416e-06
-2.21073e-05
-0.0443441
-0.00259871
-4.78787e-05
-5.69187e-05
-1.9714e-05
-8.40686e-06
-9.59018e-05
-0.0271297
0.0166444
-4.15732e-05
1.16049e-06
-5.44982e-05
-1.68277e-05
1.3018e-05
3.30412e-07
-4.10173e-05
-1.69016e-06
-3.92069e-05
-5.67994e-05
-0.00381215
8.69587e-06
-0.00387095
-7.53181e-05
0.00405784
-0.037102
-7.54525e-05
-2.60178e-06
3.82023e-05
-1.4016e-06
-5.57499e-05
0.067593
0.00212107
-5.06412e-05
-2.78744e-05
-3.91446e-07
-0.000741583
-0.0553304
-1.56185e-05
-3.85826e-05
-0.00203014
0.00543305
-1.47056e-06
-5.73658e-06
9.95343e-06
0.0060083
-0.000761864
1.92206e-05
-0.000239337
-7.35091e-06
-4.23558e-06
-2.02167e-06
-0.00117295
0.0108954
-8.14438e-08
0.00299475
-0.00468253
-0.020417
-6.80586e-06
1.31757e-05
-0.000811088
-0.000229667
-2.28959e-05
-4.44744e-05
-4.47945e-05
-0.000764632
-9.96132e-06
7.98452e-05
-0.00288155
-6.79028e-05
-4.07724e-05
-0.00295444
3.50069e-07
-0.000368182
-0.00439804
-5.51504e-07
-0.00284211
-4.29491e-05
-1.95454e-06
-3.53327e-06
-0.00275802
-2.68256e-05
-6.4366e-06
-2.33441e-05
-1.51819e-05
0.00380881
-3.91423e-05
-0.00499182
6.43279e-05
0.0116818
-5.39505e-05
9.61195e-06
-0.00411821
-3.16524e-05
-1.61607e-05
-0.00212218
-3.27772e-06
5.22814e-06
-2.94176e-05
-3.62598e-06
0.0404107
-0.00444557
-1.37887e-05
-0.0031498
-1.09133e-05
-0.000104919
-0.00473803
8.32115e-05
0.0218729
-4.61959e-05
-3.80163e-07
-8.00137e-06
0.00315988
-2.46159e-05
-4.45022e-05
-0.000148028
-5.59854e-05
-3.25895e-05
0.00692614
0.00310713
-8.70603e-06
-0.000535397
0.000390458
-0.000101322
-6.86303e-06
-0.00396557
0.00951985
-3.21257e-05
0.0120539
-0.000449856
-0.000722593
-0.014137
-2.36901e-05
0.00504318
-9.92331e-05
-8.08861e-05
-0.00188431
-7.25425e-06
-0.000661699
-0.000691629
0.000280066
-0.0314947
-2.16783e-05
-2.29864e-05
-0.0207887
-0.00070718
-0.0043381
0.00174503
-0.00030569
-7.9217e-06
-0.0039633
-0.000827778
-0.00476748
-6.10107e-06
-4.35885e-05
-5.12424e-05
-0.000124858
-4.9569e-05
7.98722e-05
-4.06788e-05
-3.85464e-05
-4.26605e-05
0.00378589
0.0297136
-6.76434e-05
-6.32536e-05
-0.000565139
-0.00163616
-1.70471e-05
-0.00927187
-4.84879e-05
0.00658857
-3.84438e-06
-0.00257785
-6.97299e-06
-9.50991e-08
-3.39255e-07
-6.6914e-06
0.000468127
-3.44358e-06
4.89394e-06
-1.82081e-05
-6.15441e-06
-2.38605e-06
-0.0461411
0.00104727
-0.00290433
0.00858242
-3.40936e-05
-5.72432e-05
0.0001487
-0.000118164
-3.76652e-06
-7.04303e-07
0.0037042
0.0005058
1.77535e-05
-2.92977e-06
-1.36636e-05
-4.19225e-05
-2.56108e-05
-0.373287
-4.2089e-05
-3.11097e-06
0.00132677
-0.262496
-1.23261e-05
-3.44414e-06
-1.82367e-05
-0.000341919
-0.000188081
-3.07795e-05
-0.0434751
-0.0784297
-0.0044619
7.13843e-05
-0.00226301
-2.65315e-06
-0.0106316
-7.20584e-06
-5.6915e-07
-2.52694e-06
8.30361e-06
-4.63814e-05
9.82387e-06
-3.04362e-05
-3.72243e-05
-0.000136412
-0.0790487
7.57085e-05
9.37724e-06
-4.70973e-05
0.015532
-1.03629e-06
-0.00135239
9.39818e-06
-0.00326339
-2.99933e-07
-5.32643e-07
0.00321306
-7.0363e-06
-2.06118e-05
-0.000130558
-1.63477e-06
-0.0023451
-0.0002937
-1.7512e-05
1.53805e-06
-0.0169172
0.0027487
1.34159e-05
-0.00341404
-0.0014618
-0.00100297
-1.57435e-05
0.000879461
-0.000833216
0.00014688
-0.000114875
-1.39774e-05
-0.000118938
-0.00207372
-3.78943e-06
-0.000559227
-2.11456e-06
1.43466e-05
-1.50753e-05
0.0235984
-1.95942e-05
-2.30138e-05
-0.00230482
-0.00171205
-0.000825888
-4.9471e-05
-2.68476e-06
-0.00796487
-0.000662358
-0.00131562
-0.000948473
-0.00775612
-0.0341266
-1.5959e-06
-1.58798e-06
-2.79461e-05
-0.0284318
-0.00245623
0.00871663
-1.67839e-06
-0.000105976
-2.46268e-07
-0.000631345
-0.00799231
-0.00478086
-0.00411059
-0.00284601
-1.35915e-06
-0.0159725
-1.2702e-05
-1.56443e-06
-0.0181334
-1.60863e-05
0.0106395
0.0118405
-0.008216
-0.00043488
-2.731e-05
-0.0031079
-0.000395968
-0.00200927
-1.12571e-05
-2.35345e-06
-0.00228629
-4.71842e-06
-0.00591158
4.81314e-05
-1.09644e-06
1.0645e-05
0.0269388
7.17539e-06
-0.000202064
-0.0119649
0.0287806
-4.29579e-05
0.0126002
-0.00274154
-0.00573612
-0.000305324
-0.00129411
-0.00163799
-1.82156e-05
-5.75854e-07
-5.66656e-05
-0.00695312
-0.000619025
-0.000576657
-5.20032e-07
3.22273e-06
0.000114123
-0.0001768
-2.4954e-05
-6.34805e-05
-7.60204e-06
-6.25717e-07
-5.87716e-05
8.00689e-07
-0.00984805
-2.62291e-07
-0.00233071
2.14903e-05
-3.27724e-06
0.000284257
-5.52655e-05
0.00129942
-5.99634e-07
-0.0120358
-3.0215e-05
-4.96766e-06
0.00197035
-0.00986023
0.00068086
-2.11473e-06
2.65417e-05
5.29767e-06
-2.52237e-05
-0.00503854
-0.00902177
-0.00633371
5.22112e-06
-5.0503e-05
-0.00347159
-0.00265673
-0.00214913
-0.0300199
-0.00937765
3.13026e-06
-2.08154e-05
0.0340065
-0.00294059
-5.08689e-05
-0.00274321
-1.93365e-06
-0.00222076
-0.00817406
-3.09167e-06
-8.97226e-06
-5.74102e-05
0.0402559
-3.29252e-06
-4.07841e-06
-0.00410644
1.83235e-05
-0.00394159
-4.79593e-05
0.000489102
-0.00258702
6.00919e-05
-1.41614e-06
-0.00531782
-0.00287841
-0.00668566
-1.4465e-05
0.00133123
-0.00288825
-7.79431e-06
-0.000127086
-3.26575e-05
-6.10235e-06
-0.00295495
-7.83872e-05
-2.54648e-05
-9.12512e-06
0.00260873
-7.28118e-06
0.00190662
-2.43221e-05
-6.04198e-06
6.83155e-05
-2.32813e-05
-0.000529892
-0.000227845
2.12272e-05
-2.87804e-05
0.000399454
5.03511e-05
0.00110028
-2.96783e-06
-2.54784e-05
-0.00110702
-0.00329246
-0.00234485
-0.00377962
-4.65263e-05
0.0267035
-1.87934e-05
0.00418756
-5.19345e-05
-5.6894e-05
7.5098e-05
-1.62912e-07
-0.00234728
0.0030848
-0.0024895
-0.000404982
-0.00288719
0.00533022
-0.00322364
-0.00204148
-0.000639564
-0.00165025
-0.00843376
-0.001924
-0.000238067
0.000177871
-3.48241e-05
-2.78586e-06
-0.0103652
0.000401814
-4.0624e-06
-0.00203421
-2.52975e-05
-4.59149e-05
9.94016e-06
-0.0039351
-0.00133358
-0.00239482
2.89882e-05
-0.0304017
-9.15372e-06
-0.00293403
-0.00206213
0.004039
-6.39711e-06
-0.00279279
-2.50721e-05
-0.00281122
-1.49461e-05
-0.00444844
-4.22076e-05
-5.04911e-05
-0.0129657
-8.45053e-06
-0.000221492
-0.00237036
-9.38551e-07
-3.75256e-07
-0.00432895
-1.51472e-05
-2.49012e-05
-0.00265765
-0.000194559
-0.0022806
-2.67556e-05
-3.10713e-05
-4.27668e-06
3.52947e-05
-2.7275e-06
0.000101283
-0.00274984
8.86349e-05
-1.48887e-05
-0.0105165
-4.88733e-05
5.95727e-06
-8.24376e-06
-1.21001e-05
-5.81358e-05
0.00129601
0.000296778
-0.00200614
-0.00189789
1.75329e-06
-0.0176542
7.88282e-06
-7.60604e-06
-4.37289e-05
-0.00982372
-0.000820219
-0.012522
7.9019e-06
0.0125619
-7.18711e-06
-0.00423937
0.0278349
-0.0108057
-3.62951e-05
-0.00290912
0.0425181
-2.97475e-06
-0.00208513
0.000299482
4.19609e-06
-1.6096e-06
-0.00137188
-1.89731e-06
-0.000562351
-1.68102e-06
-3.24907e-05
-5.39264e-05
-2.23717e-06
-2.6692e-06
3.11252e-05
-0.000646252
-1.48444e-06
-0.00176812
0.00537696
-4.60252e-05
-0.00152595
-0.00306866
-2.03878e-06
-0.0133458
0.000648386
-2.90286e-07
-0.00250296
-7.48956e-05
-4.6701e-05
-0.00199132
-5.6196e-07
-1.78145e-05
-0.0248283
-5.3132e-05
-0.00345715
-5.21845e-06
-1.43467e-05
-2.55101e-06
0.00614683
-0.00200696
-0.00576281
-2.56781e-06
-0.0245297
-0.000868658
0.00183956
-1.3954e-05
-0.00582674
1.81209e-05
-6.84218e-07
-0.00284421
-0.00191005
0.0003333
-2.8206e-06
-9.30308e-07
-3.36788e-06
-3.96749e-05
-2.25551e-06
-5.38297e-05
-0.00994432
-1.38224e-06
0.00283291
-0.0100133
-0.000506049
0.000698443
-2.25441e-05
-1.7838e-05
-0.00139867
-0.0122949
-0.000446638
0.000100038
0.000536163
-1.73057e-06
-0.0121295
-2.47873e-06
-0.00277256
-7.56805e-07
-5.10759e-05
-8.05253e-07
-0.0942597
0.0415269
-5.29281e-06
-0.00318928
0.00683394
-1.42656e-05
-4.93768e-05
-4.34307e-05
0.000757359
-5.08659e-05
-6.48976e-05
0.000315917
-2.9281e-05
0.00346465
0.00399245
-0.00170677
-0.0114516
-0.0019071
-6.64896e-07
-1.12588e-07
0.0232
0.000244653
-3.01864e-05
0.00157046
5.86027e-05
0.000796685
-0.0133796
-0.21121
-8.69737e-05
-0.0610828
-4.02914e-05
-0.00252781
-4.69571e-06
-0.00884391
-2.06046e-06
2.00202e-06
-5.06871e-05
0.000453509
-5.6862e-05
0.000111176
-3.3174e-05
-7.99232e-07
-0.0498321
-0.000668025
-0.000182325
-0.00865818
-0.00110319
-0.00256276
-3.25605e-06
-6.71581e-07
-0.00248122
-6.56374e-05
0.000442374
-0.00506855
-0.00616261
-0.00132902
-0.000135009
-1.45394e-05
5.76522e-05
-0.00190138
-4.36447e-06
-0.000930649
-0.00277729
-2.25324e-06
-0.00293082
0.000557343
0.00130747
-1.02681e-05
-1.87939e-05
0.0108622
1.33499e-05
0.000100307
-0.00222251
-7.99498e-07
-5.75613e-05
-3.91979e-05
-0.00254592
-0.000563033
0.00421062
-0.00186063
-0.00358877
0.000651149
-2.53867e-06
0.00759267
-0.00223272
-5.30108e-06
-0.027524
-0.00698137
-0.0158835
-3.42445e-07
-0.00253009
-1.16509e-06
-1.79568e-06
-1.5784e-06
-0.00266921
-0.00210351
-5.60322e-05
-0.00295081
-1.95961e-06
-5.25773e-06
-0.000108698
-3.61569e-05
-0.0020454
-9.90405e-06
5.80287e-06
-0.00330118
-2.45778e-05
5.52624e-05
-2.21367e-06
0.000272049
-1.12125e-06
-5.71755e-05
-0.177198
-0.00458233
-0.000104464
3.58871e-05
-4.7018e-05
-0.00491364
0.00118579
-0.00235509
-0.00289124
-4.6784e-06
-0.000117195
-0.00920954
0.0105737
-0.0150802
-0.000536877
-1.91417e-07
0.000805245
-1.8345e-05
-7.44257e-06
-0.00333892
-9.27044e-06
-0.0021844
-1.43508e-05
0.0261833
-2.62045e-05
-0.000407368
-1.19056e-06
-6.44146e-05
9.22538e-06
-0.00226282
0.00764666
-4.94904e-06
-0.00026667
-0.00219841
-8.9401e-07
-0.00198435
-0.00305242
-0.0732772
0.0010842
-0.00446196
-1.25687e-06
-2.60504e-05
-9.32482e-06
-5.51597e-05
-0.000939176
-0.00308764
0.023428
-0.00203532
-4.47323e-05
-0.00840486
-6.2461e-06
0.000189765
-6.3055e-05
-2.80596e-07
-1.37525e-06
-0.000701495
-4.57325e-07
-0.00235652
-8.58726e-07
-5.72034e-06
1.49349e-05
8.51277e-05
-0.00317688
-3.8163e-05
0.000652503
-3.96878e-07
0.000231385
0.000156198
6.16526e-05
-5.12223e-05
-7.15119e-06
-2.37422e-05
0.0161942
9.36758e-06
-5.60286e-05
0.0136379
-0.00282982
-0.00216069
-0.0415045
-5.90721e-05
-5.69507e-06
-5.76602e-05
-2.6075e-05
0.00241121
-6.62587e-05
-0.00404366
-4.72829e-07
0.000672954
-5.10739e-05
-8.9692e-07
-0.00187262
-5.51831e-05
-7.41931e-07
-1.03741e-05
-0.00530441
-0.00261995
-6.80221e-06
-6.43372e-05
0.00269561
-0.0100735
-1.69511e-05
-3.82918e-05
-0.0025363
-5.69727e-05
-0.000425945
-0.000804845
-0.00239565
-0.000520184
-0.00654959
5.02858e-07