/*--------------------------------*- C++ -*----------------------------------*\
| =========                 |                                                 |
| \\      /  F ield         | OpenFOAM: The Open Source CFD Toolbox           |
|  \\    /   O peration     | Version:  v2012                                 |
|   \\  /    A nd           | Website:  www.openfoam.com                      |
|    \\/     M anipulation  |                                                 |
\*---------------------------------------------------------------------------*/
FoamFile
{
    version     2.0;
    format      ascii;
    class       volScalarField;
    location    "100";
    object      ddt0(k);
}
// * * * * * * * * * * * * * * * * * * * * * * * * * * * * * * * * * * * * * //

dimensions      [0 2 -3 0 0 0 0];


internalField   nonuniform List<scalar> 
14804
(
9.96438e-08
3.04001e-08
6.35034e-05
-2.92358e-09
-3.9037e-08
-5.58027e-08
-3.49365e-05
-4.98776e-08
3.56648e-09
1.2398e-07
1.91569e-05
-4.43146e-05
-0.000672348
0.00253778
-5.47197e-05
-3.63072e-08
-2.15436e-05
0.00243001
-3.63971e-08
8.09619e-08
-2.30549e-09
-3.91907e-08
1.21545e-06
-4.0598e-08
-0.00128146
-3.47204e-05
-2.979e-05
-3.19982e-08
-5.51874e-05
-4.83047e-05
-0.000844972
-2.11189e-05
-3.78101e-08
-5.06686e-08
-4.11751e-05
-6.00077e-09
-8.02942e-09
-4.10009e-08
-1.03813e-06
5.38427e-08
2.79398e-06
-1.69908e-06
-8.12823e-08
-2.73618e-08
0.00243517
0.000205067
-9.24573e-06
-5.11255e-09
-1.19705e-07
-4.02354e-09
-4.24111e-08
3.28134e-08
-6.6592e-08
-4.9784e-07
-3.83183e-08
-3.31214e-08
-2.94818e-05
-2.69061e-05
0.00105797
-0.000963321
-2.70765e-05
-3.75548e-05
8.48732e-08
3.18229e-08
-2.98868e-08
-4.22846e-05
-0.00027456
-7.82704e-08
9.5654e-08
-5.09282e-08
-3.94238e-08
-1.93507e-07
-2.80837e-08
-5.75579e-08
7.64468e-05
-4.27961e-08
-2.87263e-08
-8.62222e-08
7.35301e-08
-1.097e-06
-1.15135e-06
4.65522e-06
-4.82265e-08
-4.88349e-05
-3.39257e-08
-3.1067e-08
1.90664e-08
-6.0452e-09
-4.44329e-08
-4.40435e-08
0.000275407
-6.05371e-09
5.63073e-08
-1.40691e-08
1.91447e-08
-3.9176e-05
5.34043e-08
0.00278256
-5.06235e-08
1.9972e-06
0.000216249
0.000111952
-6.67559e-07
-2.97005e-08
-4.00925e-08
-0.000243
-3.62623e-08
3.02307e-08
-4.87507e-08
-1.16821e-05
4.42489e-08
-3.64387e-08
-6.63394e-05
-5.2605e-08
-4.14357e-08
1.95032e-05
1.39958e-06
-6.75137e-07
-3.83207e-08
1.6093e-07
6.25617e-05
-4.68496e-08
-1.35847e-08
-4.4762e-08
-3.83865e-08
-5.42889e-08
4.25827e-08
-7.83037e-09
-4.97872e-08
-4.89073e-05
2.51862e-08
-3.60215e-05
1.00354e-07
-0.000943685
-7.85409e-08
0.000198615
1.34746e-05
-1.158e-06
6.35691e-05
-0.000375444
-8.12537e-09
-1.05702e-07
-7.84297e-07
-2.74629e-08
9.97209e-06
-2.18418e-08
-4.3656e-07
-8.0116e-06
-4.8419e-05
-4.30703e-08
-0.00107278
2.86917e-08
-1.2908e-06
1.55087e-05
9.68765e-08
3.02765e-08
-0.000649509
-3.24141e-08
-3.40038e-08
-4.96372e-05
-3.46143e-08
3.8144e-08
-1.06236e-08
-9.15812e-08
-4.13303e-08
7.23793e-05
8.07845e-09
5.64436e-08
2.32575e-05
-3.2364e-08
-3.43886e-08
-2.75977e-08
3.68389e-05
2.22339e-08
-7.57816e-06
-5.12588e-05
3.75957e-05
-3.82919e-05
5.81981e-05
0.00011442
1.27138e-08
-1.05892e-07
-2.91635e-08
0.000878159
-6.16757e-08
4.20938e-05
0.000247677
-5.3096e-05
-0.000765726
-1.65434e-08
-5.28419e-08
-3.45411e-05
-6.30287e-05
-0.0015338
0.00024885
0.00148865
0.000175748
-5.12407e-05
-2.78977e-08
-3.33696e-05
-3.34156e-08
-2.46214e-08
3.74596e-08
-2.12243e-05
-6.01211e-08
-6.67325e-08
-0.0009104
-0.00967405
-5.61691e-08
-1.50088e-08
-8.43762e-10
2.98699e-05
1.16042e-07
4.95425e-10
-3.20859e-05
-1.15206e-09
-0.000333639
-3.93007e-09
-2.82836e-05
-0.0073504
6.97651e-08
0.0015287
2.90304e-08
0.000187626
-7.41362e-05
-6.60924e-08
-4.97673e-05
-8.91469e-10
-0.00336426
8.2297e-05
-8.45365e-08
0.000238103
-3.24415e-08
-1.5669e-08
0.00115996
-3.16048e-08
-2.16307e-06
0.000199924
-2.37068e-08
-9.45353e-05
1.33721e-06
-9.20929e-08
4.43549e-05
-5.66772e-05
6.56309e-08
3.11245e-08
-6.0349e-08
-2.74218e-05
-4.42906e-08
-2.85386e-08
-5.75692e-06
0.000127294
1.39628e-08
-2.19836e-08
4.91417e-08
0.00160294
-4.7662e-05
-2.47001e-05
-2.85765e-05
-5.42685e-05
1.56615e-08
-0.00286012
4.4164e-08
-5.16698e-05
-4.74761e-08
-3.46281e-05
-6.15153e-09
0.00217805
-4.03429e-05
7.01753e-08
-1.23668e-08
-3.65168e-06
2.74901e-07
6.34596e-06
-4.48178e-08
0.00170138
1.98802e-08
-7.09007e-08
5.83019e-08
0.00157944
-6.23363e-09
-4.77686e-05
-3.33851e-08
-4.70775e-08
-2.42714e-08
-5.54664e-05
-4.02453e-08
-3.58021e-05
-3.94779e-08
-5.50856e-05
-2.91114e-05
-7.13521e-08
-0.000313172
-3.09945e-05
-4.12481e-08
-4.16251e-08
-2.80952e-05
-1.17312e-08
-3.82368e-08
5.04716e-08
-8.02968e-07
5.43404e-09
-3.94059e-08
-8.56378e-08
1.55915e-08
0.000277632
0.00119348
-1.66621e-08
3.78092e-06
-8.49392e-07
4.51452e-08
-4.76016e-09
-1.94236e-05
-3.63111e-09
0.000161801
1.06707e-07
-9.67463e-07
1.92813e-08
-9.84692e-06
6.98896e-09
-8.25638e-07
-3.22986e-08
3.11358e-06
-0.000729741
-1.31767e-08
-1.61252e-08
6.17303e-08
1.20227e-05
-3.6518e-05
-5.74178e-08
8.20876e-07
3.03233e-09
-1.0407e-08
-3.11257e-05
8.26218e-08
-5.31563e-05
-4.36334e-08
-2.86938e-05
5.20731e-05
-5.29746e-05
-5.26733e-05
-1.29999e-06
-1.14474e-05
1.77738e-05
7.86813e-08
-2.96303e-08
-2.30603e-05
-5.45257e-05
-2.14028e-08
-4.38945e-08
-5.64808e-08
-4.57587e-08
1.0593e-08
-0.00111602
-2.58378e-08
-6.02799e-07
0.000191047
1.08356e-07
-0.000907502
-1.5195e-08
-8.5582e-08
4.56401e-08
0.000178814
-1.69834e-05
-3.0856e-05
6.75518e-08
-1.45138e-08
0.000774717
-2.17368e-05
7.66365e-08
-2.92107e-07
-4.9435e-05
6.02629e-08
0.00165754
6.94898e-06
1.97063e-05
-1.56488e-05
1.33087e-05
-5.28951e-09
-1.0206e-07
5.53614e-08
1.60861e-05
-1.98869e-05
-2.88287e-08
2.83149e-08
2.26419e-08
8.7566e-09
-2.69241e-08
-7.26833e-05
5.37883e-08
-4.57736e-05
-8.48291e-08
-4.08929e-08
8.8809e-09
-1.71271e-08
-5.64725e-05
4.72816e-06
-4.56752e-08
-7.88757e-06
-4.01914e-08
-4.10953e-08
1.33314e-06
-5.3461e-05
-3.12611e-05
3.79446e-06
-4.42212e-08
-1.9696e-07
3.69021e-08
1.06678e-06
-1.44616e-08
1.36967e-08
-5.09307e-08
-2.22545e-05
-4.84791e-05
0.000726216
-1.19652e-09
8.90563e-05
-2.52288e-08
-3.90453e-08
-4.13566e-08
0.000345247
-4.3082e-08
-1.62008e-07
2.4584e-05
6.58712e-08
-7.63725e-10
-2.37687e-07
-2.40772e-05
-5.40014e-08
-3.38756e-08
-1.8606e-08
1.03477e-07
0.00109644
-4.95286e-05
-4.65163e-08
1.95928e-06
-7.15967e-08
-2.24537e-05
-5.39759e-10
-7.06231e-05
-5.10423e-05
-2.89034e-08
-1.67947e-07
4.61901e-08
-5.57984e-08
-8.63634e-08
6.20606e-06
1.05569e-07
-3.5491e-08
-0.00103043
1.00541e-06
-0.000617459
-6.10545e-05
4.04063e-06
-5.06912e-05
3.11016e-08
-0.000405158
1.27635e-08
-7.79293e-07
3.89698e-08
-4.17884e-08
-5.99057e-08
-2.64939e-07
5.71276e-05
-1.14902e-08
-3.81624e-05
-5.9033e-08
-1.15964e-07
-4.85734e-05
-2.81495e-08
-1.23561e-08
-6.85891e-09
-5.47374e-05
-6.56282e-05
-1.08113e-05
-4.20377e-08
1.3874e-07
-1.18423e-06
-1.55315e-08
-6.42123e-08
-4.96519e-08
-2.64354e-05
-3.77599e-05
3.55079e-07
5.92663e-05
1.67467e-05
0.000831143
-2.21905e-08
-1.88726e-05
-5.16644e-05
-6.90212e-05
-5.5634e-05
-7.32621e-07
0.00119016
-6.97383e-05
1.42814e-07
-3.11736e-08
-0.00806592
-1.07017e-08
-3.91829e-08
-4.30278e-08
-4.44392e-08
5.82786e-08
-5.41748e-05
-5.67466e-08
1.24705e-06
-7.28551e-07
-1.8633e-07
7.01046e-08
-2.63615e-05
-7.18734e-08
-6.7767e-05
0.0019704
-4.3811e-08
-4.87454e-08
-0.00235183
-4.98289e-05
-7.00134e-05
-4.77005e-09
-5.8749e-07
-3.6752e-08
-2.06611e-08
-4.82311e-05
0.000171641
-5.25331e-05
-5.00429e-05
-1.71165e-06
-2.20984e-05
-6.61284e-05
-6.56886e-05
-0.00054353
2.99326e-08
-4.85681e-05
0.00103031
-3.8217e-06
8.31673e-08
-0.000472053
-4.72196e-08
6.90323e-07
-3.49022e-05
-4.74449e-08
0.00014172
3.56876e-10
-1.55256e-07
5.21254e-08
-5.28305e-08
-3.17639e-05
-1.26238e-08
-9.20769e-08
-4.51951e-08
-4.01227e-08
4.65767e-08
-4.51066e-09
1.63492e-08
-5.35789e-08
1.06397e-07
0.000613878
0.000380537
-4.91325e-08
-5.62874e-05
5.97651e-08
-2.71591e-05
-1.03897e-08
0.000104908
-4.24137e-08
0.000100565
-7.21485e-08
1.52748e-05
-4.7975e-05
-1.60815e-08
-4.12348e-08
4.79754e-06
-1.235e-05
-3.71025e-05
-1.82786e-06
-5.47714e-08
-0.00109029
-2.40957e-05
4.4103e-05
2.6577e-08
-4.39742e-05
4.82485e-08
-5.67478e-08
0.00184997
-5.36323e-05
-5.30107e-05
-4.44433e-09
-3.25133e-10
1.18322e-08
1.38778e-09
3.98719e-05
-4.59524e-08
0.0006508
-0.000943563
0.000135783
-6.52063e-05
-2.52186e-05
-2.82526e-05
-4.91988e-08
-1.01232e-07
-2.43481e-05
-2.1694e-05
-1.17401e-08
6.71976e-07
-3.11986e-05
0.000141184
-3.96337e-08
-0.000566081
-4.67021e-08
1.78227e-08
-6.93539e-05
-2.5416e-08
0.000235729
-6.33339e-05
0.000185854
-2.23523e-05
-5.7744e-05
-2.49924e-08
-6.85171e-05
-6.81262e-08
-5.06473e-08
4.19783e-06
-5.47055e-07
-3.2381e-05
-3.10713e-08
-5.2399e-08
0.00510099
-4.15492e-08
-0.000486642
-9.07963e-08
-3.88227e-08
3.92622e-08
-3.11904e-05
-3.49482e-10
-1.06594e-07
7.53186e-08
5.52142e-07
0.00180943
-6.12048e-08
-4.15012e-08
0.00297933
-0.000675555
-2.225e-08
-8.90144e-08
2.46072e-08
-1.12877e-08
-4.57048e-08
5.7338e-08
-5.26666e-09
-5.71358e-08
-0.000330531
-1.9987e-05
-2.22953e-08
-6.91668e-08
-4.48454e-06
0.00144288
-0.00310581
-2.04597e-07
-5.42627e-08
1.15075e-06
0.00063724
-2.96866e-08
-2.12644e-05
-3.38923e-08
1.09167e-06
-6.24498e-05
-6.71137e-05
-3.66878e-05
-0.000124632
5.63934e-08
-1.04064e-05
-6.02053e-08
-4.14099e-08
-0.000383881
-5.95977e-08
-4.67157e-08
0.00142555
-3.28849e-07
0.000335981
-5.43511e-05
7.55761e-08
-4.06589e-07
0.000283771
-6.92375e-05
8.22379e-07
-5.18887e-08
5.07035e-05
6.40307e-08
1.65735e-08
-3.58188e-08
5.60952e-08
-3.68771e-06
-3.39597e-05
-4.90211e-08
-4.53313e-08
-5.18394e-08
3.37281e-08
0.000250817
-5.99094e-08
-1.43962e-05
9.41504e-08
0.000246691
4.68111e-08
7.61066e-10
-4.56012e-05
-2.7061e-05
-2.93452e-05
-9.39765e-06
-4.51343e-08
-6.38696e-05
-1.03767e-08
-4.13273e-07
-4.75565e-05
-5.11134e-05
-3.64753e-05
3.39568e-06
-2.12742e-08
9.60114e-08
-1.54234e-07
0.000158325
-0.000645845
-3.48281e-08
3.17361e-08
-5.71798e-08
-2.33568e-07
-0.000300113
-3.32107e-08
5.12658e-08
3.52555e-08
0.00105339
-2.20983e-05
-0.00506914
0.00180319
3.54469e-05
-2.02612e-05
-1.8723e-09
-5.76685e-08
-3.98071e-09
3.2654e-05
-8.41009e-08
1.09624e-06
-0.000287171
-1.27387e-08
-3.41761e-08
-2.77751e-05
-1.1717e-07
-3.77657e-05
-2.3364e-08
1.18972e-08
8.99971e-08
-1.14775e-07
-1.26833e-07
0.000114767
-8.49792e-08
-4.20628e-05
-6.37546e-08
-0.00112837
-4.63576e-08
-2.38729e-05
-3.39407e-08
1.29502e-06
-1.61137e-08
-2.04103e-05
0.000215443
-3.02394e-05
0.000105599
3.91907e-08
4.1524e-08
-4.74485e-05
-0.00310449
-2.31445e-05
-2.24733e-05
-5.55487e-08
-1.00303e-08
-1.6607e-07
1.34106e-07
-5.55051e-08
-2.92169e-08
1.04649e-05
0.00111926
4.34553e-05
7.76405e-08
2.0106e-09
-4.86039e-05
-4.04079e-08
7.74836e-05
-6.42315e-06
-2.02786e-07
-1.47283e-08
-4.19461e-05
-5.33482e-06
-6.74744e-07
3.80969e-08
4.41933e-08
-5.44454e-09
-2.30285e-07
3.50427e-05
0.000346589
-9.78436e-09
-2.54781e-08
-3.63708e-05
2.67875e-08
-1.85185e-08
0.000260981
7.41624e-08
-4.15794e-08
-7.09303e-09
-1.84529e-07
-3.89106e-08
1.34061e-06
-6.2158e-05
3.30456e-08
-7.33548e-05
-2.73347e-08
3.28137e-05
-5.01627e-09
-3.52327e-08
-5.41657e-05
-0.001498
-5.93933e-05
-2.48725e-07
0.000369511
1.05925e-07
-3.01416e-08
-1.67187e-05
-4.56631e-09
-3.32598e-09
-2.00521e-09
-4.03855e-09
-5.71298e-05
-4.87779e-08
-3.18076e-08
7.56288e-06
3.48157e-08
-5.10123e-05
-7.97437e-08
6.34647e-05
-3.73291e-09
1.09052e-06
-4.70568e-05
9.72935e-05
-0.00137518
-2.27292e-08
-1.43867e-05
-2.22437e-05
-2.26241e-05
-8.4876e-09
5.48055e-07
-2.15448e-08
6.76671e-08
5.96685e-08
-1.34804e-08
-5.03205e-05
1.0114e-05
-2.84623e-08
-5.57058e-08
-3.62622e-08
2.35245e-07
-3.90018e-05
6.6834e-06
-3.16798e-08
-2.95162e-08
0.000634194
4.8979e-05
1.18599e-08
-9.70661e-09
3.47737e-05
1.897e-07
-1.58453e-05
3.55279e-05
-3.77908e-07
-3.92695e-08
-1.53856e-09
-0.0026019
5.68152e-08
4.40512e-08
-5.68003e-08
-4.93122e-05
4.40046e-08
-3.7991e-08
2.91686e-08
8.10647e-09
-6.3717e-08
8.93828e-08
-2.54446e-10
-4.38934e-05
0.000254112
-9.5028e-05
-0.000589859
-1.48839e-05
-1.06419e-08
-4.23518e-08
-4.94948e-05
-4.96845e-08
-2.13276e-08
2.04434e-05
4.04454e-08
-5.84417e-08
1.07128e-05
-5.3083e-08
1.26794e-08
-1.47338e-09
3.35377e-06
-4.47001e-08
-7.54484e-08
3.19475e-06
-3.79796e-08
0.00220203
0.00524369
-1.88275e-08
-6.48011e-08
1.11705e-08
-3.6553e-05
0.000380246
-4.03352e-08
-5.59992e-05
0.0002638
-1.05994e-08
-5.56032e-08
-2.95411e-05
-4.68043e-08
-4.99684e-08
-4.86963e-08
-3.01579e-08
9.68027e-05
-3.30297e-05
-6.29435e-08
4.68855e-07
1.02726e-07
-2.79915e-08
2.37359e-08
2.86936e-08
-2.64519e-08
-4.90626e-08
-0.000281553
-3.31572e-05
5.64535e-08
-4.17899e-05
0.000464849
9.9175e-06
-5.33721e-08
4.74346e-07
0.000274728
2.14075e-05
-4.05528e-05
0.000982679
-2.77821e-08
-1.63188e-07
-4.77972e-05
-4.20902e-08
-2.30151e-08
-4.43207e-08
-3.16344e-08
-1.5635e-05
-5.17765e-08
-8.4171e-08
-3.64819e-07
-4.49354e-05
8.15437e-05
5.1414e-08
-3.17368e-08
9.60368e-05
-8.59893e-09
-1.98029e-08
-1.22781e-07
-3.1401e-09
-4.35152e-08
8.47247e-08
-4.06063e-05
-4.65933e-08
0.000269597
-4.40166e-05
4.60278e-08
-7.91767e-08
-7.77296e-08
-0.00398312
2.58024e-09
3.35813e-07
-3.63889e-08
-4.23056e-05
-2.8536e-08
3.22231e-05
-4.08699e-05
-0.00013173
-1.0761e-08
-1.16017e-06
-0.000276571
-1.587e-07
-5.5683e-08
-4.32516e-08
1.26219e-06
-1.37132e-07
0.000176143
2.47255e-05
4.29577e-08
0.000520155
-1.2029e-07
-3.08475e-08
1.13421e-05
0.000141172
-3.14208e-08
-4.62969e-05
6.54309e-07
-1.74434e-08
-0.00502028
-2.00722e-05
-1.19455e-05
-2.62928e-08
6.24219e-08
1.79926e-06
-2.71653e-08
-2.0783e-05
3.98949e-08
2.58881e-07
-3.8266e-08
-2.57552e-05
1.23925e-08
-5.26282e-08
-6.64964e-08
-7.82117e-08
-7.42682e-05
-2.88166e-05
-2.20226e-05
8.10537e-08
-4.79936e-08
-2.71877e-05
2.33562e-05
-2.44027e-09
-5.52779e-08
-2.59835e-08
-2.89676e-08
-4.35356e-05
-5.45203e-08
2.72361e-07
4.91935e-05
-7.13629e-08
-9.66611e-10
-8.32125e-11
3.1502e-07
-7.39336e-07
2.00052e-08
-2.20144e-10
-5.15791e-08
-2.31914e-08
0.000359511
-6.92938e-07
7.55323e-06
-2.05276e-07
-7.51788e-06
-3.02402e-05
-0.00101785
-0.00144646
-2.8162e-08
0.000617964
2.33546e-06
2.00583e-05
4.74392e-08
2.11657e-08
-1.90916e-08
6.69187e-05
-6.21898e-05
-3.45e-08
-2.21987e-05
-3.15664e-08
-2.98903e-08
4.75986e-05
-1.23473e-05
-8.71297e-08
-3.93136e-08
-5.05904e-08
4.77805e-08
-1.71089e-08
-6.10838e-08
1.13043e-09
-4.29731e-08
5.43685e-08
-2.44833e-05
-3.07045e-08
-4.26136e-08
8.6213e-08
0.000223775
-2.99102e-05
-3.00507e-08
-1.87863e-08
-5.06087e-08
6.00877e-08
-0.000158727
-4.08316e-07
-4.42729e-08
-6.45786e-09
3.37507e-06
4.56676e-08
-9.70304e-06
-1.26192e-09
-7.00087e-05
0.000157035
-5.10034e-08
-5.2056e-05
0.00016408
9.20963e-09
-9.03374e-07
-1.14219e-05
0.00172935
3.80814e-06
-2.96628e-08
0.000247785
-4.75647e-05
-9.25403e-06
-1.3108e-08
4.26987e-07
-4.29694e-08
-0.000755341
-8.19967e-08
-4.98378e-08
2.83669e-06
3.60237e-05
-2.5094e-08
-4.06317e-08
-4.33826e-05
3.9886e-05
-4.59507e-05
0.000250388
-7.3274e-05
-1.3364e-07
-2.92137e-07
1.02955e-07
-3.31143e-05
-3.52902e-05
2.29784e-05
-7.72368e-08
1.67549e-07
-0.000271008
5.49558e-08
-3.114e-08
-2.61035e-05
-1.06611e-08
-2.82139e-05
-2.92968e-08
-1.87504e-08
6.6867e-08
-3.12204e-08
4.09628e-08
-0.00104315
-4.61239e-08
-7.22834e-05
-0.00125727
1.72961e-07
-4.989e-08
-2.69898e-05
0.000109143
-3.16442e-08
7.30353e-08
-8.38389e-09
-6.63113e-05
8.49871e-09
0.000173986
-3.87173e-08
6.7248e-09
-6.96574e-05
-7.01156e-06
0.000170072
-0.0017306
-5.38772e-08
-1.20787e-08
-0.000494255
-2.59507e-05
8.31469e-06
-2.5417e-08
-6.12687e-05
-4.36073e-08
-5.38351e-10
-5.52729e-08
-3.43441e-08
5.04986e-05
-1.92551e-08
-2.21675e-08
8.85148e-05
-0.0019596
7.43422e-05
-1.61313e-05
-4.47455e-08
-5.31391e-08
-1.66789e-05
-2.74241e-08
3.85315e-07
-2.73323e-08
-4.15702e-08
0.000240512
1.0843e-07
-8.21798e-07
-0.000329762
-1.81505e-05
6.1778e-07
-5.13563e-08
6.21988e-08
-3.67109e-08
0.000370403
3.53655e-07
-6.91399e-05
-5.4051e-08
0.000246321
5.57184e-05
-7.11027e-05
1.75441e-05
-0.00254903
4.16013e-07
-5.1915e-05
-0.000692194
6.99849e-05
2.99557e-07
-1.28248e-08
0.000137101
-1.14742e-07
-2.58283e-05
-3.0069e-05
-0.00233803
-8.80552e-09
7.25249e-05
1.1948e-05
-0.000256362
8.59703e-05
3.06719e-06
1.17601e-07
-4.6767e-09
-2.5171e-05
4.76548e-08
-2.29117e-08
-7.32345e-09
-2.49473e-08
1.28893e-07
-4.39594e-05
-3.44978e-07
4.64438e-05
-1.5651e-08
0.00137497
-5.80055e-08
-0.000100317
1.77743e-08
-2.76899e-05
5.91842e-05
4.15454e-08
-0.000308679
1.84892e-07
-4.88277e-05
-4.89578e-05
-3.71715e-07
-3.02538e-08
-5.39391e-09
-4.17731e-08
-1.20255e-07
-8.71893e-08
1.10924e-06
-2.18284e-05
-6.07591e-08
0.000402313
-6.64234e-08
8.97582e-06
-5.35525e-05
-8.66997e-07
2.12085e-06
1.12409e-05
-5.41048e-08
-1.32074e-07
-3.15963e-08
0.000163301
-5.00184e-08
0.0017163
-4.26456e-08
-4.80336e-10
3.79108e-08
-8.79495e-09
1.49938e-05
1.88211e-08
-4.90179e-05
6.13622e-05
9.54558e-08
-3.825e-05
-5.38792e-05
-3.94696e-08
-0.00197924
-1.42153e-08
2.14893e-08
-2.59196e-08
1.17541e-06
-1.9927e-07
-2.75666e-05
-2.52887e-05
-5.51374e-08
-4.41019e-07
0.000176262
-1.65818e-08
0.000107155
-0.000214766
0.000261018
-5.30086e-08
-2.57468e-05
-6.62187e-08
-0.000344694
-1.05223e-08
8.30969e-08
-5.03621e-05
-7.47646e-08
-5.38885e-08
0.000408107
-3.10323e-05
1.92292e-07
1.32054e-05
1.89995e-07
-2.61283e-08
-1.57134e-09
-1.18108e-08
3.01182e-07
-5.77487e-08
-6.55555e-05
-5.02905e-05
-4.17555e-05
-4.55874e-08
3.87055e-07
-5.01241e-05
-9.99328e-08
-4.35969e-05
-3.06921e-05
1.8028e-06
-3.44975e-09
-1.07013e-07
-7.99506e-10
-6.83776e-05
8.58512e-05
-6.42705e-08
-2.31667e-06
-2.12395e-05
8.21228e-08
-7.81337e-06
1.90827e-07
-2.70805e-08
-3.50294e-05
-2.57855e-05
-3.52672e-08
-1.02204e-05
-1.79081e-05
-2.99218e-05
-8.54647e-09
-5.8918e-07
-4.00021e-05
-4.97291e-05
4.49678e-08
4.91587e-05
4.26632e-08
-2.55503e-08
-2.63145e-05
-0.00348452
-7.46138e-09
-2.75058e-08
-9.86872e-08
-7.19601e-05
-3.47598e-08
-4.78838e-08
1.52459e-08
0.000680901
-4.14758e-08
2.59071e-05
-6.08845e-09
-4.74689e-08
5.93597e-05
4.45558e-08
0.000395167
-7.41584e-08
-3.1121e-08
-5.05004e-05
-1.63729e-05
0.000156213
1.10074e-07
-3.49281e-08
0.000103399
-5.2651e-06
-3.21104e-05
-8.34528e-08
-3.22351e-08
-4.3605e-08
-5.9405e-08
-1.60406e-08
6.94238e-05
-4.67106e-05
4.34808e-08
0.000158063
-1.57227e-08
-0.000159188
-6.10266e-05
-9.39924e-08
-1.86494e-05
7.00546e-05
-5.28444e-05
-5.04896e-05
-3.59367e-07
-1.49883e-06
-2.39762e-08
0.000427026
-0.000132241
-2.99192e-08
-1.69094e-08
-3.67313e-08
9.98059e-07
0.000137087
-6.13807e-05
-2.14672e-05
4.51583e-08
8.51144e-08
-2.66296e-05
1.45828e-07
-1.90605e-08
4.65546e-08
-2.61068e-05
0.000241775
3.73745e-11
3.69061e-08
-1.35067e-08
2.99249e-07
-2.75765e-08
-7.30925e-09
-3.09768e-08
-1.11784e-08
-2.40207e-05
-7.13428e-05
-5.72816e-05
7.61812e-05
6.10648e-05
-1.92114e-08
-6.16389e-08
-3.89559e-08
-8.38387e-08
0.00647657
1.92348e-07
-2.98414e-05
0.00091811
-3.30708e-08
-3.16899e-08
1.05182e-08
-2.99796e-08
-8.58556e-08
0.00274946
6.45288e-05
-5.89437e-08
-4.82805e-08
-5.12643e-08
-2.18197e-05
-2.07633e-05
0.00054846
-4.08208e-08
1.088e-07
-4.26313e-08
-4.24768e-08
1.0845e-06
-2.97238e-05
-2.96983e-07
-4.30381e-08
-1.2647e-08
-2.08701e-08
-6.75543e-07
-3.17757e-08
3.58463e-06
-1.38629e-08
8.92993e-06
-4.10524e-05
-0.00184051
-5.97235e-08
-2.02923e-05
-5.94996e-05
-1.5984e-09
-2.8975e-05
-3.03227e-05
0.00107526
-7.69906e-09
-9.70603e-08
-4.24407e-09
-4.16125e-05
-3.49115e-08
-3.86878e-05
-5.34573e-08
0.000148561
-2.23853e-05
4.74422e-09
-5.80836e-08
1.54291e-06
-0.000634114
-1.6934e-05
-5.33793e-08
-5.08317e-05
-7.5197e-09
5.25951e-05
-2.07455e-06
3.76862e-08
-4.18256e-08
-3.88749e-08
-5.1874e-05
-2.93799e-05
-4.60212e-08
7.19462e-05
-2.3161e-08
-4.54892e-11
3.34107e-08
8.61314e-08
-4.96806e-08
-3.64981e-06
-1.18744e-06
-4.79809e-05
-6.47729e-07
-4.79946e-05
-1.52009e-05
-6.52832e-08
-1.13825e-05
-7.294e-08
-7.12141e-08
-3.16067e-08
-2.89196e-08
-2.88848e-08
-6.77702e-08
-5.27791e-05
-1.12045e-07
-3.07208e-08
6.17093e-08
2.93516e-08
-9.22882e-09
-7.14071e-08
0.0017139
-3.28115e-08
-7.19229e-09
-1.17272e-08
-8.60771e-08
-4.20907e-05
1.73664e-07
-1.62472e-05
-1.10374e-08
6.86022e-05
-9.89911e-06
-5.09597e-05
-0.000418056
8.06296e-06
-0.00110139
2.23265e-05
0.000230115
-5.72696e-08
-1.58322e-06
0.00387218
-5.41685e-08
-7.43498e-08
-0.00109975
-5.82492e-05
-7.49725e-08
-2.13655e-08
1.62617e-07
-3.79127e-08
-7.33872e-05
3.10679e-05
-1.03324e-07
-9.61975e-06
-3.51101e-05
9.89457e-06
-6.02116e-06
-3.40809e-05
-6.06839e-06
-3.31492e-08
-6.85294e-09
-5.89163e-10
-2.92747e-07
-3.0806e-08
-0.000270012
0.000117709
-2.87614e-08
-1.37009e-08
4.00146e-05
-2.85051e-08
-5.07491e-08
3.44658e-09
-3.92989e-08
-0.00138868
-4.99171e-05
-5.81707e-08
-6.77711e-08
-3.72248e-08
-4.14126e-08
-5.50387e-08
-0.00491806
6.87909e-05
-6.47991e-08
6.84534e-08
-4.07857e-08
-5.05822e-08
7.41468e-08
3.927e-09
-4.99687e-08
-2.31814e-08
-5.01505e-08
-1.36378e-07
-4.94665e-05
5.86964e-08
-3.04601e-05
-1.08443e-07
-0.000157373
-0.00141438
-2.5963e-07
-3.57478e-08
-5.11894e-07
-1.79606e-08
-6.65399e-08
0.00201553
0.000253899
2.89132e-07
0.000215186
-7.52995e-09
-4.77811e-06
0.00182355
-4.54197e-08
-4.92853e-08
-4.94062e-05
3.22423e-08
-2.03357e-08
-2.68849e-08
5.85257e-08
2.68091e-06
-2.81428e-05
-7.64446e-08
5.78756e-06
7.89099e-08
-2.95215e-08
-2.78211e-08
-6.87629e-05
4.62556e-07
-1.09799e-09
0.000238549
-2.79292e-05
0.000284836
-4.25323e-08
1.79816e-07
-0.00107133
4.44961e-05
-4.64895e-09
-2.07444e-07
-5.33278e-08
-2.7986e-05
-2.50738e-07
-5.94383e-08
-2.67814e-05
-6.44744e-09
-5.04992e-08
-2.21533e-05
4.06752e-09
-2.59684e-06
-1.74639e-05
-7.41564e-09
-4.2749e-05
-5.28905e-08
-2.71447e-08
-4.46103e-08
-3.80255e-05
-3.71223e-08
5.94761e-08
-1.79375e-07
-4.46293e-08
0.000191009
6.959e-05
-2.73093e-05
9.22681e-07
-0.00184517
-5.73111e-08
5.4532e-08
-2.75641e-05
-3.87813e-08
-3.18102e-08
8.75597e-05
-3.08889e-08
8.83555e-08
-3.12673e-07
-2.97417e-08
-0.000376947
-4.80791e-05
-5.7198e-08
-2.43797e-05
-3.09371e-08
3.22943e-07
-2.69169e-05
1.06167e-06
0.000919535
-5.46049e-08
-5.35793e-09
-2.76494e-08
8.57234e-06
-3.59464e-08
-5.2459e-08
-3.56356e-08
-6.1482e-08
-1.17951e-07
0.00166029
-7.2271e-07
-2.5688e-08
-2.10274e-06
9.43169e-07
-2.09996e-07
-3.23565e-08
7.06339e-06
-9.27716e-05
-1.11062e-07
0.000596697
8.49541e-05
-1.26588e-05
-3.55282e-05
-4.40666e-08
-1.36852e-05
-1.07313e-07
-8.18871e-08
-7.02661e-05
7.19482e-08
-7.139e-07
2.96854e-05
-5.20391e-08
-0.00147479
-1.46741e-07
-4.50366e-08
-2.50983e-06
-2.19369e-05
-3.3194e-05
3.37912e-06
-4.63914e-07
-2.40631e-08
0.00441842
-4.4244e-05
-1.50443e-05
-4.61713e-08
-5.13724e-08
-1.35614e-07
6.68974e-07
-6.5365e-08
2.87344e-07
-5.06474e-08
-4.85064e-08
-4.52716e-08
-0.00020139
-9.45583e-05
-5.86709e-07
-3.43416e-08
8.72669e-05
1.88342e-05
-3.38501e-08
-4.6403e-05
-1.38077e-07
5.15204e-06
1.0771e-07
-1.26001e-05
-3.80037e-08
-9.87599e-10
-5.18202e-09
-5.50184e-08
-2.83164e-07
-3.08022e-08
7.82257e-08
-3.24029e-08
-6.02625e-08
-3.27239e-08
-0.00639012
3.07754e-07
-3.44767e-05
0.000117824
1.07172e-06
-5.37737e-08
-5.96041e-08
-6.14644e-07
-4.59709e-08
-9.49278e-09
0.000245359
-1.16375e-06
9.49738e-08
-3.6945e-08
-9.85726e-08
-4.17306e-08
-4.35178e-08
-0.00146814
-4.40208e-08
-3.53442e-09
7.74819e-06
-0.00805178
-7.91617e-08
-2.73354e-08
-3.6118e-08
2.83418e-05
4.3274e-05
-1.02704e-07
-0.00101652
-0.000198158
-3.62912e-05
-1.96515e-07
-4.74362e-05
-3.74374e-08
-9.55855e-06
-3.18783e-08
-8.02602e-09
-3.51092e-08
1.1501e-07
-4.37071e-08
5.1833e-08
-3.93268e-08
1.02745e-07
-1.08938e-07
-0.000250688
1.73699e-07
2.24736e-08
-5.09906e-08
0.00178948
-1.3921e-08
7.14474e-05
3.17935e-08
-2.32971e-05
-4.69397e-09
-1.01854e-08
-8.33409e-07
-4.35323e-08
-3.83953e-08
8.58908e-08
-2.28861e-08
-1.413e-05
-8.58453e-07
-5.41027e-08
1.59979e-08
-0.000873004
-0.000593705
-2.3529e-07
-1.20612e-05
2.91038e-05
-3.64105e-06
9.50273e-05
0.000223685
-8.69241e-05
8.77689e-08
-4.22269e-08
-5.64914e-08
-4.40948e-08
-4.83715e-05
-4.48097e-08
-9.09146e-07
-2.83213e-08
-6.2058e-08
-3.11979e-08
0.000436084
-3.69714e-08
-1.68672e-07
-4.35963e-05
-1.62307e-05
-9.44421e-07
-1.19689e-07
-3.57504e-08
2.34165e-05
9.70874e-05
-4.44188e-06
1.36668e-07
-4.93842e-05
8.76961e-05
-2.20443e-08
-2.1444e-08
-1.61791e-07
-0.000120288
-4.40995e-05
0.000154137
-2.32964e-08
-5.95294e-08
-3.31156e-09
1.58875e-07
-0.00106251
-2.70777e-05
-4.78481e-06
-3.71587e-05
-1.92113e-08
-0.000475783
-4.13165e-09
-2.15231e-08
-0.000177358
-3.18777e-08
3.62044e-05
2.1693e-07
-0.000382073
1.7869e-05
-3.78563e-08
-2.44954e-05
-1.98018e-05
-5.14819e-05
-3.11962e-08
-2.90906e-08
-4.84691e-05
-2.41285e-08
-1.61964e-05
1.41927e-07
-1.51839e-08
6.20327e-08
-0.000485388
6.65881e-08
5.27653e-05
9.34159e-06
4.90596e-05
-5.09892e-08
-0.00161882
-2.86552e-05
0.000488344
2.45435e-06
-7.12366e-05
-6.6498e-05
-1.12505e-07
-7.80298e-09
-7.73929e-08
-2.20879e-05
-2.00973e-05
-1.97233e-06
-6.85471e-09
2.51923e-08
1.50387e-05
-6.35906e-08
-4.11975e-08
-6.55087e-08
-5.03219e-08
-8.49764e-09
1.0035e-06
2.88061e-09
7.27383e-06
-3.75268e-09
-6.05802e-05
1.37454e-07
-3.33049e-08
8.71841e-05
-5.98678e-08
1.12879e-06
-8.14986e-09
0.000379231
-4.19017e-08
1.31011e-07
2.29053e-06
-0.000520419
0.000196698
-2.26748e-08
1.99891e-07
-3.42717e-08
-4.88264e-08
-3.35238e-05
-0.000290372
-3.47058e-05
3.72012e-08
-8.60387e-08
-0.000136586
-3.0356e-05
-4.47069e-05
-0.00447583
1.18947e-05
2.39319e-08
-2.21946e-08
0.000446539
-3.51029e-05
3.967e-07
-2.94105e-05
-2.8779e-08
-3.98846e-05
-3.58893e-05
-4.13248e-08
1.02656e-07
-5.40623e-08
-0.000390978
-4.37857e-08
1.03145e-07
-2.93666e-05
1.62214e-07
-2.95761e-05
-2.42627e-07
7.85136e-05
-2.66755e-05
-1.71737e-05
-2.06741e-08
-3.46228e-05
-3.10709e-05
-3.59904e-05
-3.03472e-08
8.26014e-05
-4.18237e-05
-4.04601e-08
1.29607e-08
-1.16164e-07
-4.74826e-08
-4.29219e-05
-2.33699e-07
-3.79708e-08
-5.08497e-08
0.000261162
1.42448e-07
3.00662e-06
-4.12305e-08
2.24248e-08
-2.60816e-07
-1.09736e-07
3.65132e-05
5.80502e-05
1.56429e-07
-4.18852e-08
-2.13404e-06
2.58068e-07
0.000234763
-2.65552e-08
-4.29108e-08
6.77209e-05
-1.90563e-05
-3.72448e-05
-1.86079e-05
-6.95338e-08
-0.000370495
-9.31355e-08
0.000162429
-9.80157e-08
-1.89977e-07
-1.51207e-07
-2.04256e-09
-4.72536e-05
-0.000156352
-2.18328e-05
4.45131e-05
-4.59391e-05
1.67237e-05
-2.39636e-05
-4.90554e-05
-1.28392e-05
1.46027e-05
-3.77484e-05
-5.38712e-05
9.44352e-08
-3.80499e-07
-4.65006e-08
-3.08627e-08
-3.75378e-05
-1.27781e-07
-4.41456e-08
-4.92647e-05
-4.78326e-08
-7.98235e-08
5.2421e-08
-3.39199e-05
-7.07573e-05
-2.17e-05
2.06987e-07
-0.000100629
-1.56741e-07
-4.17139e-05
-5.52219e-05
-0.000767234
-2.54283e-08
-2.66809e-05
-5.42907e-08
6.3134e-06
-3.98417e-08
-3.06922e-05
-5.16398e-08
-5.4586e-08
-4.01802e-05
-2.56647e-08
1.94265e-06
-4.8392e-05
-7.28749e-09
-5.7876e-09
-2.91514e-05
-7.7464e-08
-4.76813e-08
-3.20836e-05
-2.89632e-08
-6.2629e-05
1.64683e-07
-1.09895e-07
-2.23032e-08
1.83664e-07
-3.53488e-08
-2.14297e-06
-3.65677e-05
2.06313e-07
-4.01872e-08
-0.0031508
-1.12024e-07
3.55085e-08
4.31942e-08
-3.24152e-08
-6.01617e-08
0.000250194
-3.84389e-08
-3.57705e-05
-5.5868e-05
-3.7662e-08
-0.000801764
7.64696e-08
-2.85926e-08
-8.0513e-08
-0.000723565
-3.4962e-05
3.27306e-06
3.79702e-08
0.000107111
-2.67267e-08
2.54906e-05
0.00108226
-4.06253e-05
-4.16849e-08
2.07344e-05
2.58062e-05
-1.06198e-08
-3.79181e-05
-3.97102e-05
3.59293e-08
-2.0303e-08
-2.75444e-05
-2.26075e-08
-4.58741e-08
3.76767e-08
-4.55793e-08
-5.02343e-08
-2.49369e-08
-2.74521e-08
-1.21287e-07
-1.38829e-05
-1.88743e-08
-6.44124e-05
0.000437497
-7.42151e-08
7.01637e-05
-3.4133e-05
-2.76311e-08
-4.5146e-05
-6.97444e-07
8.02991e-09
-4.24988e-05
-4.30934e-07
-4.43912e-08
-1.89919e-05
-7.34081e-09
1.31648e-07
-0.000688064
-3.99882e-07
-3.8245e-05
-2.16746e-08
-3.53246e-08
-3.53749e-08
7.31647e-06
-4.62002e-05
-1.67552e-05
-3.19693e-08
0.000184749
-4.53575e-05
1.6343e-06
-3.37347e-08
-0.000130862
-1.07648e-07
-9.58688e-09
-2.88538e-05
-5.452e-05
-1.44679e-06
-3.95626e-08
-1.21821e-08
-2.90888e-08
-4.77507e-08
-3.30477e-08
-7.43283e-08
7.92468e-06
-2.02428e-08
0.000233075
2.96715e-06
-6.12797e-06
0.000203185
-4.64961e-08
-1.23594e-07
-7.19187e-05
-0.000227781
-9.6793e-07
-0.000257295
8.75013e-05
-2.37185e-08
-0.000502457
-3.26085e-08
-4.60263e-05
-1.05054e-08
-5.6687e-08
-1.06203e-08
-7.70851e-05
0.000179008
-2.16764e-08
-3.45407e-05
0.00026458
-4.03279e-08
-7.67491e-08
-5.24978e-08
1.73597e-06
-5.94823e-08
-8.26984e-08
0.000161888
-3.81839e-07
-2.96595e-06
0.000206705
0.000588321
-0.000167545
-5.23871e-05
-9.14775e-09
-1.39761e-09
0.00100441
7.87714e-05
1.73634e-08
0.000143069
-1.88493e-07
-1.2117e-06
-0.000777059
-0.00175729
-3.54745e-07
-0.00651366
-5.07397e-08
-2.61994e-05
1.8629e-08
2.25124e-06
-2.03072e-08
7.9528e-08
-5.46796e-08
0.000206567
-4.8069e-07
9.19428e-05
-4.339e-08
-1.08958e-08
-0.00123618
-1.95274e-05
6.10018e-05
-0.00112518
3.39428e-06
-1.78001e-05
-4.36088e-08
-9.31578e-09
-3.71208e-05
3.50965e-08
6.86624e-05
-3.07692e-05
1.58434e-06
1.86872e-06
-5.079e-08
-1.57207e-07
-6.02993e-08
-5.26691e-05
-3.26724e-08
6.78724e-05
-4.56598e-05
-1.92756e-08
-2.85332e-05
-2.27403e-07
4.35966e-06
-4.87957e-08
-3.27882e-07
0.000207216
3.1327e-07
-9.33863e-07
5.06138e-05
-1.08381e-08
-1.80267e-07
-1.84822e-07
-2.56513e-05
-1.22826e-05
1.24141e-05
-5.62086e-05
-1.60147e-05
6.05671e-07
-3.43338e-08
0.000205255
-5.07845e-05
-2.11677e-09
6.0757e-05
1.64095e-06
-4.53599e-05
-1.50642e-08
-2.67303e-05
-1.20392e-08
-2.44925e-08
-2.17737e-08
-4.82228e-05
-4.60695e-05
-6.72036e-08
-3.0704e-05
-1.95332e-08
-2.5081e-08
-4.84386e-08
-1.11627e-07
-2.85129e-05
-3.00426e-08
-3.93354e-08
-3.41424e-05
-8.4168e-08
1.11581e-07
-2.8656e-08
3.98085e-07
-1.50529e-08
-4.08307e-08
-0.00123226
-2.75865e-05
-1.44398e-07
-1.57188e-07
-5.15907e-08
-2.40235e-05
0.00022961
-5.07146e-05
-1.64396e-05
-5.05477e-09
-5.03575e-07
-0.000397826
0.000116452
-0.000543423
1.05417e-05
3.574e-10
0.000211609
-3.1966e-08
2.24727e-08
-2.41928e-05
-5.43089e-08
-5.10924e-05
-6.7097e-08
5.23359e-05
1.52864e-07
6.80774e-05
-1.74492e-08
-7.30478e-08
5.26241e-08
-5.06939e-05
0.00256222
-4.57319e-08
-1.04784e-06
-1.88257e-05
-1.24166e-08