/*--------------------------------*- C++ -*----------------------------------*\
| =========                 |                                                 |
| \\      /  F ield         | OpenFOAM: The Open Source CFD Toolbox           |
|  \\    /   O peration     | Version:  v2012                                 |
|   \\  /    A nd           | Website:  www.openfoam.com                      |
|    \\/     M anipulation  |                                                 |
\*---------------------------------------------------------------------------*/
FoamFile
{
    version     2.0;
    format      ascii;
    class       volVectorField;
    location    "100";
    object      ddtCorrDdt0(U);
}
// * * * * * * * * * * * * * * * * * * * * * * * * * * * * * * * * * * * * * //

dimensions      [0 1 -2 0 0 0 0];


internalField   nonuniform List<vector> 
14804
(
(3.51391e-06 4.20192e-05 -7.61297e-22)
(0.000141747 1.41978e-05 1.21863e-21)
(-0.000975728 -0.000340646 -3.54942e-25)
(0.000161309 6.66301e-06 -1.31363e-21)
(-0.000135244 -0.000173139 -1.85663e-22)
(0.000137256 -0.00018117 0)
(6.12345e-05 -1.06053e-05 0)
(-0.000106771 -0.000226378 0)
(-7.90706e-05 0.000978416 -9.82433e-22)
(1.45398e-05 0.0003561 -8.74636e-23)
(0.00609573 0.00616924 -2.56773e-22)
(0.000888051 0.00010211 8.65773e-22)
(0.00775518 0.0252656 4.64913e-22)
(-0.0140731 -0.0147009 -1.48462e-23)
(-0.000256256 -0.000116368 -4.0321e-22)
(3.92063e-05 -0.000162093 4.02254e-24)
(0.000160825 4.53458e-06 -1.20008e-25)
(-0.0136832 -0.0125108 6.24359e-23)
(3.49763e-05 -0.000161054 0)
(-2.22523e-06 3.6694e-05 2.73981e-23)
(0.000167061 7.71057e-05 -2.05805e-21)
(-0.000132233 -0.000174785 6.44938e-22)
(-0.00376844 0.000912955 1.36897e-21)
(4.56112e-05 -0.000177792 -7.91523e-22)
(-0.00780043 0.0504693 -2.75751e-22)
(4.25595e-05 -1.30394e-05 -3.70757e-22)
(7.19462e-05 -5.90423e-06 0)
(0.000182007 -4.31986e-05 -1.33132e-21)
(-0.000252735 -0.000116258 4.33005e-22)
(-0.000540765 3.06852e-05 0)
(0.00515515 -0.00375646 -1.75993e-21)
(0.000170407 9.15794e-06 -5.52582e-23)
(-6.90863e-05 -0.000174834 -5.84628e-22)
(-0.000102896 -0.000229618 0)
(-0.000294544 -0.000132521 -8.41952e-23)
(0.000163981 6.93875e-06 0)
(0.000138486 -1.27739e-05 4.71961e-22)
(5.08358e-05 -0.000173549 7.74802e-22)
(-0.000282867 -0.000182082 -9.19281e-23)
(-4.04237e-05 0.000106978 -6.54887e-22)
(-0.000299072 -0.000229142 0)
(-0.000275689 -0.000195325 -4.66875e-22)
(2.52851e-06 -0.000558788 0)
(-2.76624e-05 -0.000122939 0)
(-0.0129607 -0.0193802 0)
(-0.00337834 -0.00450223 0)
(-0.000288987 -0.000311877 0)
(0.000160611 5.87318e-06 6.76245e-22)
(0.00016639 -0.000358806 5.944e-22)
(0.000162957 7.83103e-05 1.84195e-21)
(0.000133664 -8.41293e-05 3.70289e-23)
(0.000137329 2.73464e-06 1.14833e-21)
(3.11457e-05 2.15151e-05 1.43587e-21)
(-0.00384341 0.00204425 0)
(-6.91067e-05 -0.000178336 1.31507e-21)
(0.000182515 -3.92043e-05 1.19075e-21)
(5.14773e-05 -8.49399e-06 0)
(0.000147673 3.05402e-06 -8.61813e-23)
(-0.00935662 0.0503551 -9.54295e-23)
(0.0120135 0.0290431 -3.44457e-22)
(0.000155987 6.05539e-06 0)
(-0.000307978 -0.000140175 1.97483e-22)
(-1.44626e-05 9.278e-05 1.0502e-21)
(0.000138328 1.37043e-05 -1.08116e-21)
(-5.39452e-05 -0.000134897 4.58776e-22)
(0.000803237 7.94629e-05 -1.00277e-21)
(0.0241018 0.0937857 2.51088e-21)
(0.00104024 -0.000374175 -1.03288e-21)
(5.5554e-05 0.000358792 5.07348e-23)
(8.73077e-05 -0.000195141 -3.86185e-22)
(2.72583e-06 -0.00018881 -4.36892e-22)
(0.000877584 -0.000247833 -1.08265e-21)
(-6.42654e-05 -0.000126244 -2.56169e-22)
(-0.000121623 -0.000278212 -3.52095e-22)
(-0.00104972 -0.00035083 9.56408e-23)
(0.000136621 -8.40195e-05 6.13615e-22)
(4.1373e-05 -0.00010241 0)
(5.49533e-05 -0.000351678 1.33965e-22)
(-0.000164038 7.57317e-05 0)
(0.00320144 -0.00112284 -5.88121e-22)
(0.00289176 -0.00067664 0)
(0.00170573 0.00575746 1.40299e-22)
(-0.00016598 -0.000244622 4.5969e-22)
(-0.000214042 -6.64401e-05 0)
(1.38089e-05 2.49207e-07 0)
(6.12336e-05 -0.000110769 1.57863e-22)
(9.53471e-05 2.94418e-06 0)
(0.000179683 1.67693e-05 0)
(-6.33546e-05 -0.000210716 -3.95352e-22)
(-6.73372e-05 -0.000208675 -3.92536e-22)
(-0.000944602 -0.00226942 4.56675e-22)
(0.000177348 1.68939e-05 0)
(-3.61811e-05 8.32736e-05 2.11407e-22)
(7.76335e-05 -5.92796e-05 4.74437e-22)
(0.000125998 0.000433063 1.85667e-22)
(-0.000521745 0.000117124 4.89818e-22)
(0.000146298 5.19028e-06 3.10129e-22)
(-0.0151828 -0.0161201 1.90325e-23)
(5.17824e-05 -0.000217049 4.23762e-22)
(0.000444088 0.00497939 0)
(-0.00388336 -0.0040838 0)
(-0.00163234 -0.000349435 1.46019e-24)
(-0.000261629 -0.000315715 -6.09437e-22)
(-5.86236e-05 -0.000136346 -5.99664e-22)
(-0.00023403 -0.000303611 3.34609e-23)
(-0.0214699 0.054042 -2.12239e-22)
(0.000133548 -0.000153553 4.12109e-22)
(0.000117683 4.30345e-06 -1.67978e-22)
(4.38568e-05 -0.000216822 -8.31382e-22)
(3.92106e-05 -0.000155138 -8.19078e-23)
(0.000133627 5.18135e-06 0)
(0.000129635 -0.000159637 -7.82427e-22)
(0.00125929 0.00114897 -6.15129e-22)
(-0.000126793 -0.000252188 5.14769e-22)
(-1.1231e-05 -0.000200298 -2.93748e-22)
(-0.000738438 -0.000284912 8.2108e-22)
(-0.000231289 -0.000395119 -3.65703e-22)
(-3.42097e-05 -0.000585306 0)
(4.19968e-05 -0.000170244 -5.38077e-22)
(0.000139638 2.83281e-05 -1.07553e-21)
(-0.00101404 -0.000327809 0)
(-0.000227965 -0.00030627 0)
(7.60653e-05 -5.7449e-05 -2.58337e-22)
(-0.000171128 -0.000247594 -1.73499e-22)
(3.81526e-05 -0.000168585 9.56221e-22)
(-0.000132792 -0.00025625 -6.75205e-22)
(0.000110432 4.26722e-06 1.52966e-21)
(2.65816e-05 -1.18086e-06 0)
(-0.00010314 -0.000223205 0)
(-0.000497567 2.51332e-05 1.22447e-22)
(7.6583e-05 3.45854e-05 1.47587e-21)
(-0.00054126 0.000137272 -2.80326e-24)
(-8.13031e-05 0.000746805 -9.54182e-22)
(0.0055089 0.0089134 -1.6717e-21)
(4.42848e-05 -5.57318e-05 -2.05534e-21)
(0.000414508 -0.00226376 6.90547e-24)
(-0.000302642 -0.000212958 3.38071e-22)
(0.00337364 0.0022743 0)
(-0.000993029 -0.000329731 0)
(-0.00210813 -0.0340071 -1.76255e-22)
(0.000136374 -1.13788e-05 0)
(-0.000172888 0.000432343 0)
(0.00275148 0.00203194 0)
(-3.18625e-05 -0.000124566 0)
(-0.000291284 -0.000271686 -3.33514e-22)
(0.00040712 0.000249543 -7.89496e-22)
(-0.000215206 -0.000393392 3.19137e-22)
(-0.000276358 -0.000180248 -3.19462e-22)
(-0.000122785 -6.04666e-05 0)
(0.000128532 -0.000187363 6.54361e-22)
(0.0365971 0.0883659 -2.11878e-21)
(8.14936e-05 3.47853e-05 -1.33343e-21)
(-0.000280762 -0.000328079 0)
(-0.00031797 -0.000246178 3.91921e-22)
(8.67492e-06 3.76266e-05 1.11538e-21)
(8.99996e-05 2.53884e-05 -6.77064e-22)
(0.015971 0.0824718 2.62253e-22)
(-4.30248e-05 -0.000149516 5.65784e-22)
(8.30936e-05 -0.000112152 0)
(-0.000136785 -6.73809e-05 0)
(0.000146238 -7.42457e-05 7.23338e-22)
(0.000230996 0.000268723 -1.99004e-21)
(2.72505e-05 6.99323e-07 1.11024e-21)
(-0.000225779 0.000588691 1.69331e-21)
(-3.53474e-05 -0.000196258 -1.15621e-21)
(-0.00316919 0.00272885 -2.08055e-22)
(6.27224e-05 -1.02251e-06 5.85363e-22)
(0.000164044 0.000401553 1.68456e-22)
(0.0170868 0.0149962 1.24769e-21)
(-3.93318e-05 -0.000150031 -9.44295e-22)
(0.000148633 -7.32227e-05 -8.57325e-23)
(-6.43834e-05 -0.000123006 1.64143e-22)
(-0.0010789 -0.000240136 4.00609e-22)
(0.000412443 0.000316721 1.70123e-21)
(0.00150902 0.00212894 0)
(-4.42345e-05 -4.82717e-05 -5.16602e-22)
(-0.000622576 -0.000531238 -4.21915e-22)
(0.000756387 0.000158341 -1.06227e-21)
(-0.0011887 -0.000280726 3.415e-22)
(0.0184261 0.021734 -3.52764e-23)
(7.20747e-05 0.000138234 1.56155e-21)
(0.000175496 -0.000329705 -5.77517e-22)
(6.91742e-05 -8.67569e-05 -1.29768e-24)
(-0.0153179 0.0430521 2.91165e-23)
(0.000104436 -9.27981e-05 -2.05824e-21)
(-0.000867158 -0.000314259 -4.5151e-22)
(-0.000107647 -0.00210489 -7.35644e-22)
(6.76439e-06 -2.99963e-05 -5.66581e-23)
(0.00457902 0.0112866 7.68997e-22)
(4.97481e-05 -6.69024e-07 6.17788e-22)
(0.000274832 -2.04964e-06 1.52048e-21)
(-0.000368555 -0.000147475 -1.06283e-22)
(0.00100987 0.00190374 5.97593e-22)
(0.0249474 0.0497351 -8.88975e-22)
(-0.00288678 -0.00232269 -1.51586e-22)
(-0.0150246 0.00310597 1.85319e-25)
(-0.00257815 -0.0011233 -1.71519e-24)
(1.34661e-05 -2.84677e-05 6.59867e-23)
(6.69116e-05 -8.45087e-05 0)
(-0.000947335 3.32923e-05 -5.82146e-22)
(9.59968e-05 -8.35835e-05 0)
(0.000245287 5.31885e-05 0)
(0.000254328 0.000288068 -5.30828e-22)
(-0.000386145 -0.000167106 0)
(0.000139852 -0.000188988 0)
(-0.000180668 -0.000363658 -1.97308e-22)
(0.00580942 -0.00354766 1.2413e-21)
(0.0355432 0.0453807 6.54143e-22)
(-0.000129127 -0.000279116 0)
(8.45512e-05 -5.85152e-05 0)
(8.03551e-05 2.36896e-06 0)
(-0.00085322 -0.000292051 2.27972e-22)
(-1.42417e-05 0.000442471 0)
(0.000162258 6.89256e-06 6.78884e-22)
(-0.000875794 -2.11709e-05 2.29204e-22)
(5.14067e-05 -1.03375e-05 0)
(0.0266538 0.0406363 1.24794e-22)
(2.12098e-05 -3.3267e-05 5.96667e-22)
(-0.000284461 -0.000233693 -3.64552e-22)
(0.0294874 0.0536684 -5.2571e-22)
(-0.000295157 -0.000136573 7.85043e-22)
(-0.015231 0.00545546 1.70639e-22)
(0.000153511 -9.10334e-07 9.51691e-22)
(0.0108469 0.0221152 -9.61955e-22)
(-8.28192e-05 -3.87545e-05 3.31359e-22)
(-0.000182898 -0.000357525 -2.38711e-22)
(-4.0852e-05 -4.85011e-05 5.02292e-22)
(4.85983e-05 -1.17388e-05 -1.24423e-25)
(0.0487856 0.0603067 3.02997e-21)
(-0.000809475 -0.00076104 0)
(4.04874e-05 -0.000364858 0)
(-0.00304378 -0.00187372 -3.10147e-22)
(8.53339e-05 -8.89433e-05 9.96931e-22)
(8.13483e-05 -6.04442e-05 1.20518e-22)
(-0.00910481 -0.0256368 2.27234e-22)
(6.43269e-05 -0.000108621 -5.23935e-23)
(-0.000527302 -0.000238523 0)
(-0.00248412 -0.00132112 -3.22547e-22)
(1.88549e-05 -9.44662e-05 0)
(-0.00952287 -0.0259187 1.10266e-22)
(0.000440802 0.000408789 5.62116e-22)
(0.00016431 -0.00027486 -1.41029e-22)
(-0.0085973 0.00611984 0)
(6.10933e-05 -1.29398e-05 -5.19689e-23)
(0.00015787 7.16463e-07 2.05604e-21)
(0.000152724 1.0364e-05 6.79647e-22)
(0.000101337 -0.000153828 4.90512e-22)
(0.000156127 3.93363e-06 6.55175e-22)
(-9.83932e-05 -0.000210935 -4.46488e-22)
(-9.38008e-05 -0.000123342 2.86159e-22)
(-0.000565821 -0.00023181 -2.31958e-25)
(-0.00168486 -0.000402685 -4.48086e-22)
(6.35387e-05 7.73023e-05 0)
(0.000321514 0.000176693 2.5863e-22)
(0.000153559 4.23852e-06 -1.31862e-21)
(-0.0215482 -0.0359737 2.03411e-21)
(-0.0002136 -5.92335e-05 0)
(-0.000443045 -0.000175775 -1.15239e-24)
(-0.00100425 3.05223e-05 2.25403e-22)
(6.92724e-05 -1.16533e-05 0)
(0.000296807 0.000241164 0)
(0.00565627 0.0600996 -4.16023e-22)
(0.000161909 5.41379e-06 6.72443e-22)
(-0.00927231 0.00614644 5.12085e-22)
(0.000276578 1.65868e-05 -2.21906e-21)
(-1.97719e-05 -1.99747e-05 2.399e-22)
(8.52228e-05 -3.29154e-05 -3.26468e-25)
(-0.0203834 -0.047404 -1.80911e-21)
(-0.000290881 5.22167e-05 0)
(-2.20244e-05 9.06603e-05 -3.01197e-23)
(7.04008e-05 -5.62588e-05 1.59456e-21)
(8.54322e-05 -0.000587282 2.01846e-22)
(-0.000293522 -0.000238154 0)
(0.000409714 0.000379423 -6.82981e-22)
(-0.000216265 -0.000240953 0)
(-0.0122471 -0.0212609 -2.13069e-22)
(9.40774e-05 3.25296e-06 -1.486e-21)
(-0.000123167 -0.000346608 0)
(-3.23881e-05 0.000110636 -4.6853e-22)
(-0.0159069 0.00240898 -1.53952e-22)
(8.24784e-05 -3.41543e-05 -2.55544e-22)
(-0.00042122 -0.000157676 0)
(8.88603e-05 -8.70776e-05 -9.40057e-22)
(4.7727e-05 -0.000182307 0)
(2.17096e-05 -9.65657e-05 -6.87522e-22)
(3.90618e-05 -1.82159e-05 -5.40797e-22)
(4.11232e-05 -0.000175906 8.53948e-22)
(9.80229e-05 -6.72005e-06 3.98499e-22)
(0.00014301 -7.9317e-05 -8.02692e-22)
(3.42083e-05 -1.93899e-05 -4.49342e-22)
(-9.85839e-06 -1.31886e-05 -5.4253e-22)
(-0.000117365 -0.000351545 4.64421e-22)
(0.0100041 0.0269611 -1.0653e-21)
(-0.00032058 -0.000148423 -4.05615e-22)
(5.56327e-05 -0.00017549 1.16158e-21)
(-1.01763e-05 -0.000202487 2.7676e-22)
(-0.000420988 -0.00016489 2.41431e-22)
(4.74921e-06 -4.8108e-05 1.59696e-22)
(-0.000123818 -0.000170503 1.88874e-22)
(8.81568e-05 -9.17694e-07 6.92997e-22)
(-1.45186e-05 -0.000739418 0)
(-0.0001011 4.03254e-05 -1.06271e-22)
(0.000146302 -7.89579e-05 -1.32882e-21)
(7.6958e-05 -0.000357394 4.60623e-22)
(0.000156556 -1.0042e-06 -5.87744e-22)
(0.00489555 -0.00179655 -1.16278e-22)
(-0.0318115 0.0879832 -1.99655e-21)
(9.00325e-05 -5.92342e-05 9.85379e-22)
(-0.000893496 0.000770747 0)
(0.00192326 -0.00056345 1.74964e-23)
(0.000132614 1.80524e-06 -1.55119e-21)
(2.17779e-05 -3.50327e-05 -9.28583e-22)
(-0.000577608 -0.00019997 2.53663e-22)
(0.000162996 6.44292e-06 6.86754e-22)
(-0.00118 -0.000738367 1.09273e-22)
(-4.78045e-05 5.11527e-06 -5.32019e-22)
(0.00218268 -0.000899044 -5.15733e-22)
(6.4091e-05 6.84302e-07 5.7668e-22)
(-0.000280886 -0.000206772 -4.13512e-23)
(5.34527e-05 2.24188e-06 -9.76601e-22)
(0.000134962 -0.000786739 0)
(2.41362e-05 -0.000146493 -4.6968e-22)
(-0.000534582 -0.000250856 0)
(0.00774943 0.000929303 0)
(7.19784e-05 -5.85597e-05 -8.1454e-22)
(0.000146607 6.29115e-05 -8.40271e-22)
(-0.000264579 -8.72513e-05 -1.26917e-21)
(-0.000717978 -0.000269942 -4.84877e-22)
(-0.000380569 -0.000145297 0)
(-0.000204436 -0.000204576 -2.74221e-22)
(-0.00195304 -0.00146221 -1.26548e-22)
(0.000197143 8.49905e-05 0)
(4.40716e-06 -4.58887e-05 0)
(0.000108405 -3.6084e-06 0)
(5.34625e-06 0.000196661 0)
(4.78522e-05 -1.68191e-05 5.736e-22)
(-0.000217304 -0.000243859 -4.80559e-23)
(0.00012556 -2.622e-06 0)
(-0.000892549 -0.000331818 9.50008e-22)
(4.58232e-05 -1.65498e-05 4.03916e-22)
(-2.13756e-06 -3.38825e-05 -1.17014e-22)
(-0.000157424 -0.000429072 1.74989e-22)
(0.000761811 0.000499819 1.40737e-21)
(-0.000748929 -0.000276943 -7.32417e-22)
(-3.14323e-06 0.000350505 -2.26137e-21)
(4.15141e-05 -9.95422e-05 0)
(-0.000770946 0.00030858 -1.558e-22)
(0.00102193 0.00161931 0)
(0.00024837 6.64221e-05 3.93249e-22)
(5.98861e-05 -0.000183529 -8.33191e-22)
(-0.000117563 -0.000270968 6.0214e-22)
(0.000110102 0.000186359 0)
(0.000158433 4.72584e-05 0)
(0.00472654 0.00681731 2.39615e-23)
(0.000206648 4.73396e-05 1.76378e-21)
(0.00020294 -0.000616001 2.05041e-21)
(0.00100376 -0.000117339 3.65182e-24)
(0.000149664 8.44087e-07 -1.40894e-21)
(0.00729906 -0.00124312 0)
(1.31352e-05 -5.60782e-05 0)
(9.75523e-05 -0.00205352 6.72479e-22)
(0.000110954 6.99147e-06 1.45224e-21)
(-0.00167243 -0.000528772 0)
(-0.000680965 -0.000208829 0)
(0.000122527 -3.76489e-06 -2.98406e-24)
(-0.000147852 8.63487e-05 -2.45719e-22)
(1.58741e-05 -5.61594e-05 3.01484e-22)
(-0.00111663 0.00252302 5.92526e-22)
(-0.000667538 -0.00019482 0)
(-0.000116505 -0.00180021 -8.77305e-22)
(0.00030312 -0.000586537 6.53441e-22)
(-0.000151457 -6.85273e-05 3.30424e-22)
(0.000362618 -0.000244101 0)
(-0.0067781 0.0606629 -1.4759e-21)
(0.00443577 0.00489255 1.5582e-22)
(-0.000817719 -0.000277714 -7.72149e-22)
(5.41738e-05 -0.000249212 4.40171e-23)
(0.00508667 0.00860769 4.29015e-22)
(9.83512e-05 -1.54026e-05 -2.22745e-25)
(-8.38334e-05 -0.000412752 9.49148e-22)
(0.000147464 7.69632e-06 0)
(0.00240591 0.00776666 -2.14992e-24)
(-0.000522602 0.000194511 -9.53346e-22)
(-8.99419e-05 -0.000125026 -8.85149e-22)
(0.000398803 -0.000141074 -1.14071e-21)
(5.38912e-05 1.27641e-05 -1.38044e-22)
(0.000155666 4.93355e-05 0)
(0.000203462 4.70953e-05 -8.36911e-22)
(-6.25879e-05 -3.43906e-05 0)
(0.00013635 4.38829e-06 6.02151e-22)
(-0.000438523 -0.000161394 -7.42574e-23)
(-3.75774e-05 -0.00111059 0)
(-0.000137227 -0.000184049 0)
(6.05701e-05 2.89992e-06 -1.17003e-21)
(8.70609e-05 -6.08814e-05 0)
(5.65597e-05 -1.37764e-05 0)
(-0.000303696 -0.00026481 -9.16217e-23)
(-0.000160408 -0.00020552 -2.61456e-22)
(0.00097529 0.00221623 -4.56959e-23)
(-0.000248939 -0.00023576 -7.14687e-23)
(-6.74691e-05 -0.000192312 0)
(-0.00479088 0.000732978 0)
(1.25682e-05 -2.82176e-05 1.13838e-22)
(-0.00039854 -0.000156335 -6.85635e-24)
(-0.000220259 -0.000373692 0)
(-0.000101726 -0.000207682 4.25621e-22)
(0.000375205 -0.000533036 0)
(7.66261e-05 5.08676e-06 -1.33392e-21)
(-0.0028297 0.000479237 0)
(0.000148608 6.82739e-05 -1.67466e-21)
(0.000169308 -1.22963e-06 0)
(-0.000219387 -0.000234146 7.26088e-22)
(0.00016397 7.60039e-06 -7.61885e-22)
(-0.000137817 -6.32385e-05 -3.83353e-23)
(-0.0309677 0.0733161 9.06014e-22)
(0.000195875 7.32694e-05 -2.56761e-22)
(-0.00856229 -0.000704835 0)
(0.000101358 -6.67494e-05 1.45483e-21)
(-1.15531e-06 -0.000187962 -4.82272e-22)
(-6.48763e-05 -0.00019522 1.83995e-24)
(0.00444618 0.00120245 5.46841e-23)
(5.46432e-05 -0.000181715 -8.43115e-22)
(-5.7552e-05 -0.000514358 0)
(-0.00182676 0.000651942 1.72058e-22)
(0.000282029 0.000498855 0)
(2.70372e-05 -2.02544e-05 4.80745e-22)
(-0.000192708 -0.000419686 -1.45e-22)
(0.000222525 4.25636e-06 -1.54115e-21)
(-0.000210234 -0.000250178 0)
(1.73333e-05 -0.00015556 -1.14977e-25)
(0.000238957 7.34219e-05 -1.96494e-21)
(0.000153115 9.7512e-05 0)
(-0.0218255 0.0701483 0)
(-0.000482466 -4.98811e-05 3.95837e-22)
(0.00014282 -0.000139413 -5.88556e-22)
(-0.00170895 0.000583963 -6.87356e-22)
(-0.000118162 -0.000366646 6.90435e-22)
(0.000184369 -1.4701e-05 1.19987e-21)
(2.95503e-05 -1.98266e-05 -1.30954e-21)
(-0.000217385 -7.16306e-05 6.29749e-22)
(9.50276e-06 -2.94902e-05 0)
(4.67803e-05 -0.000111567 0)
(0.000442274 -0.000544408 0)
(0.000151454 3.4352e-06 -2.99539e-22)
(-9.39314e-06 -0.000259783 4.71699e-22)
(0.00015703 -0.000306268 0)
(0.00369354 0.0158143 2.12481e-22)
(0.000230275 0.000607106 0)
(9.58789e-05 -8.72845e-05 0)
(0.00702965 -0.000508513 9.19618e-22)
(-0.000216855 -0.000380366 -5.17621e-22)
(0.0199226 0.00845545 -6.70959e-23)
(-0.000329145 -0.000108455 5.81646e-22)
(-0.000295167 -0.000276472 3.91314e-25)
(-6.78138e-05 -5.41685e-05 0)
(0.000175545 3.93416e-06 7.08529e-22)
(0.00774183 0.000520072 -3.94834e-22)
(0.000143276 1.7303e-05 -1.40678e-21)
(-5.11921e-05 -0.000578085 -1.71266e-22)
(-0.000250312 -0.000246815 -1.02671e-21)
(-7.36149e-06 -0.000202835 -5.25009e-22)
(-0.000208624 -0.000203471 0)
(0.000949072 4.99966e-05 -1.72713e-23)
(-0.00954717 0.0012232 0)
(6.45176e-05 -5.49821e-05 -9.19855e-22)
(-5.99517e-05 -0.000634139 5.91396e-22)
(-9.3444e-06 -0.000266068 0)
(0.000102039 -0.00102137 0)
(-0.000254426 -5.39996e-05 -7.30214e-23)
(4.50915e-05 -0.000114473 2.40875e-22)
(6.63503e-05 -5.72645e-05 9.2028e-22)
(0.000159732 5.64658e-06 6.70359e-22)
(3.08162e-05 -2.00795e-05 0)
(0.000723574 0.000665426 0)
(0.000732257 0.000572541 -8.49215e-22)
(-0.000220478 -0.000237174 -8.59265e-22)
(0.000152286 5.04355e-05 1.71786e-21)
(-0.000245913 -0.000346318 0)
(0.00031857 -0.000437148 1.30718e-21)
(-0.000221418 -0.000316801 0)
(0.000106948 -0.000173103 -4.03273e-22)
(-0.000517413 0.00017421 5.49465e-22)
(-0.000823782 1.6449e-05 -5.39169e-22)
(-0.000231235 -0.000335827 -3.21081e-22)
(-0.000934933 -0.000338218 -5.87672e-23)
(0.000681356 0.00927868 -9.35849e-23)
(-0.0030109 0.00666425 0)
(-4.87698e-05 -9.68865e-05 -4.74178e-22)
(-0.00064782 -0.00021243 -3.09853e-22)
(1.99198e-05 -2.68462e-05 1.65754e-23)
(-0.000225623 -7.42402e-05 -6.72458e-22)
(4.24844e-05 -1.8117e-05 -2.17612e-22)
(-0.000154153 -0.00046284 -4.51953e-22)
(0.00281126 0.0531966 -3.47025e-22)
(-0.000137029 -5.31956e-05 0)
(-0.000150492 1.70239e-05 1.98746e-22)
(0.000129245 -0.000160619 7.39062e-22)
(0.0565959 0.0586013 1.97566e-21)
(0.000149506 -0.000162651 1.4398e-21)
(-0.000127426 -0.000173737 -7.51243e-22)
(-0.000158941 -0.000201227 -5.17015e-22)
(7.16129e-05 -0.000179952 0)
(0.000382503 -0.000358862 0)
(6.7395e-05 -1.13437e-05 0)
(0.00014193 -0.000173389 0)
(-0.00309042 -0.00171341 3.49349e-22)
(-0.000135212 -0.000461277 5.33564e-22)
(0.000896814 0.000207217 0)
(0.000164316 0.000125582 -5.30485e-22)
(-0.000377669 -0.000158799 -2.46331e-22)
(-0.000122989 -0.00035997 -3.82567e-22)
(-0.000247814 -7.8376e-05 -5.68768e-22)
(-0.010585 0.066299 4.42703e-22)
(6.58088e-05 -0.000178776 7.96596e-22)
(-0.000215069 -0.00024915 1.44933e-22)
(0.0237264 0.00892308 0)
(-0.000116777 -6.38404e-05 0)
(-0.000213863 -7.16509e-05 1.89816e-22)
(7.42374e-05 -3.27943e-05 -1.35392e-21)
(0.00132226 -0.000459013 -7.51729e-22)
(0.000264336 2.48763e-05 7.23001e-22)
(-0.000252373 -0.000235506 3.74214e-22)
(-0.000520466 -5.93475e-05 0)
(-0.00175601 -0.000518247 0)
(-1.04373e-05 -3.62265e-05 5.08647e-22)
(-0.000103924 -6.21891e-05 2.54637e-22)
(-0.000220378 -0.000395807 3.96281e-22)
(-0.00023479 0.000131137 0)
(-0.000171637 -7.12047e-05 -4.18555e-22)
(-0.000213448 -0.000181296 0)
(-0.0278507 0.0141298 0)
(8.74052e-05 3.42245e-05 6.7161e-22)
(-0.00011419 -5.95697e-05 0)
(-0.0128734 0.00369781 0)
(0.00354142 0.0499434 -4.91896e-22)
(0.0001702 1.61205e-06 -1.01839e-21)
(-0.0293163 0.0045767 2.03133e-21)
(7.78824e-05 -0.000187298 0)
(-1.85822e-05 -0.000718124 4.07396e-22)
(-0.000258429 6.3182e-05 0)
(0.000144473 -0.000142019 0)
(-0.00104146 -0.0125892 -4.07476e-22)
(3.47661e-05 -4.8707e-06 2.3249e-23)
(7.14549e-05 -0.00148093 4.67677e-22)
(0.000389969 0.000500927 0)
(0.000150534 -0.000162325 -8.45334e-22)
(-0.000179685 -0.000179184 1.27639e-23)
(0.000158546 -2.43934e-05 6.74036e-22)
(0.000338027 -8.18052e-05 2.63329e-23)
(2.22038e-05 -3.79178e-07 1.4009e-21)
(2.48887e-05 3.61077e-07 0)
(0.000107601 5.45915e-06 -1.23447e-21)
(7.25959e-05 -3.12417e-05 1.0498e-21)
(0.000125043 9.41239e-06 0)
(-0.000246398 -0.000273121 -2.94949e-22)
(-0.000152448 1.92347e-05 0)
(-0.010708 0.00667065 0)
(0.0133558 0.00156254 0)
(0.000153557 -0.000139989 1.15966e-21)
(5.37107e-05 -1.42216e-05 0)
(0.000167255 1.68717e-06 -2.9945e-22)
(0.000145064 6.71284e-07 3.93086e-22)
(0.000139965 -2.97092e-05 -6.05037e-22)
(-0.00908182 -0.00293717 -1.8954e-22)
(0.000121797 -0.000114101 0)
(-0.000857464 -0.000532162 7.91867e-23)
(9.82766e-05 -8.3328e-05 -1.45824e-21)
(0.00128433 -0.000404475 8.58699e-22)
(-0.000387702 -0.000134841 2.17183e-22)
(0.000237552 8.60709e-05 1.61842e-21)
(-0.000142222 -0.000183351 -7.35361e-24)
(-0.000273923 -0.000454752 -9.65463e-22)
(-0.000546704 -0.000217662 -6.40975e-23)
(-0.000235686 3.52661e-06 -8.50716e-22)
(-0.00282912 0.00259753 0)
(-0.000133513 -0.000261686 6.6449e-22)
(0.00560234 0.00719345 -9.08449e-22)
(-0.000636767 -0.00020253 0)
(0.0130172 0.0028611 -1.67907e-21)
(5.98075e-05 1.78804e-05 2.97512e-22)
(-0.000541627 -0.000112804 7.29882e-22)
(3.24664e-05 6.31089e-05 8.54871e-22)
(-0.000228308 -0.000314225 0)
(-0.0270537 0.0741931 0)
(5.08794e-05 -1.68306e-05 6.29216e-23)
(4.21551e-05 -1.78231e-05 0)
(9.11648e-05 -9.96731e-06 -1.26762e-21)
(6.85806e-05 -7.3953e-06 0)
(0.000114416 1.80105e-05 -7.58899e-22)
(7.77048e-05 -6.21244e-06 0)
(0.0150739 0.00581644 0)
(0.000137185 -0.000137724 5.16645e-22)
(0.00868026 0.113746 -2.21919e-21)
(0.00429492 0.00470897 4.39642e-22)
(-0.0322935 0.0363471 3.14342e-22)
(-0.000142578 -6.49551e-05 -4.36932e-22)
(6.65078e-05 -3.69439e-06 0)
(0.000117935 -1.03252e-06 0)
(-0.000247633 -0.000269001 0)
(0.000363706 -6.50666e-05 0)
(-0.0008354 0.000334983 0)
(-0.000465084 -0.000187295 0)
(0.000154611 -2.75619e-05 -6.114e-22)
(-0.00169575 -0.00103876 -8.69366e-23)
(0.00011353 -3.07269e-06 -1.63383e-22)
(0.000398258 -0.000700137 -9.70225e-22)
(0.000123057 -0.000176539 8.8568e-22)
(0.00132304 -0.0372266 8.08835e-23)
(7.12326e-05 -0.000186578 0)
(-8.9834e-05 -0.00129694 0)
(-0.000223072 -7.17808e-05 5.59189e-22)
(0.000217966 -7.7468e-06 4.32794e-22)
(-0.00234455 -0.00180153 3.51877e-22)
(-0.000313275 -0.000104086 -4.69009e-22)
(0.00128377 -0.00041361 -1.62323e-21)
(0.000156558 3.47686e-06 -3.97924e-22)
(0.0270217 0.0454898 1.60326e-22)
(0.000221952 -3.1904e-06 0)
(-0.000112049 -4.83664e-05 -3.81482e-22)
(0.000112753 0.000188616 0)
(-0.000206269 -0.000257752 4.61141e-22)
(-0.000215945 -0.000363964 -2.14107e-22)
(-0.000105569 -0.000501564 4.44311e-22)
(0.000264271 -0.000335866 4.59375e-22)
(9.9598e-05 -0.000204072 -7.35523e-22)
(8.8727e-05 -0.000201383 8.6144e-22)
(-0.0151701 0.0783708 2.2323e-21)
(1.18892e-05 -0.000199048 4.87873e-22)
(-0.0214601 -0.00264984 0)
(0.000308783 -0.000119857 -7.70018e-22)
(4.28403e-05 7.92129e-05 -8.83023e-22)
(-8.94536e-05 0.000130658 -4.49832e-22)
(0.000119731 -3.13427e-06 0)
(3.2626e-05 -5.85482e-06 0)
(0.000336791 -0.000114598 -2.76333e-23)
(-0.000157995 8.13276e-05 -5.36874e-23)
(-0.000323242 -0.000315417 3.22391e-22)
(-0.0266048 0.0292984 1.93353e-22)
(-0.000155335 -0.000317431 9.18241e-22)
(-3.36044e-05 -0.000199336 6.76351e-22)
(0.00543564 0.0757044 -1.44686e-21)
(-0.0278232 -0.0619509 2.38904e-22)
(9.69797e-06 -8.40405e-05 -1.16474e-21)
(8.85003e-05 -0.000336105 5.24974e-24)
(0.000125042 9.28659e-06 3.57228e-22)
(0.000225786 8.65658e-05 1.69406e-21)
(0.000130938 -0.000137378 3.67194e-22)
(-4.27091e-05 8.15692e-05 0)
(7.98821e-05 -3.22218e-05 4.49036e-22)
(-0.000172906 -0.000300151 -7.33396e-22)
(0.0049893 0.0130746 0)
(6.28378e-05 -0.000354038 -4.82095e-23)
(-5.29447e-05 -9.72551e-05 5.98329e-22)
(8.25797e-05 -0.000130943 0)
(-0.000290646 -0.000297547 -1.03119e-22)
(-0.0146924 0.00538336 3.66131e-22)
(0.0308968 0.0669626 1.30476e-21)
(-1.39413e-05 -0.000531155 0)
(-0.000210974 -0.000256005 -5.28211e-23)
(-0.00339962 -0.000483467 1.31449e-22)
(-0.0212557 0.0237417 1.39982e-21)
(7.33538e-05 -8.59519e-05 1.15383e-24)
(-0.000622903 -0.000210348 3.24684e-22)
(7.914e-05 -0.000114104 -1.36059e-24)
(-0.00272604 -0.000753969 -2.25599e-22)
(-0.000315766 -0.000103345 5.85069e-22)
(-0.000259399 -8.19237e-05 0)
(-0.000350988 -0.000138098 2.34577e-22)
(-0.0115994 0.00594344 0)
(-0.000107461 0.000103236 -2.78659e-22)
(-0.000679489 0.00041022 3.42976e-22)
(6.34658e-05 -0.000182347 -4.01152e-22)
(0.000118639 -0.000111999 -1.97681e-22)
(-0.0187616 -0.00188061 0)
(0.000116892 -0.000176454 0)
(0.000139682 -0.000139713 -5.2057e-22)
(0.0267223 -0.00278307 0)
(0.00192425 0.00227395 0)
(0.00110272 0.0208283 -5.75465e-23)
(6.42212e-05 -1.23574e-05 0)
(-0.000109937 9.96762e-05 3.23779e-22)
(0.000941858 0.00101606 8.6388e-22)
(-0.000948313 -0.00193381 0)
(-0.000238291 -7.54985e-05 0)
(-0.00174149 -0.00221997 0)
(0.000168186 -0.000124293 1.4236e-24)
(-0.00217903 -0.000106815 -5.02261e-22)
(0.000365618 -4.96037e-05 0)
(6.55132e-05 1.23893e-06 3.66259e-24)
(-6.52547e-05 -0.00028027 0)
(8.34374e-05 1.67123e-05 5.83492e-22)
(-0.00056697 0.000439969 -7.16961e-22)
(-0.000221324 2.75808e-07 5.79553e-22)
(0.000145053 -0.000158348 0)
(-0.000164187 -0.000206463 8.12893e-22)
(0.00016702 -0.000129301 1.99184e-24)
(0.000212297 0.000223704 0)
(-0.0374518 0.0503533 -1.17892e-21)
(-0.000147981 -0.000318297 -1.19581e-21)
(5.2224e-05 -0.00016319 -3.87996e-22)
(0.000380556 4.40449e-05 -7.25129e-22)
(-0.0005271 -0.00251656 7.70407e-23)
(8.12354e-05 2.31491e-05 -5.38023e-22)
(5.73741e-05 -1.4598e-06 6.55856e-22)
(-0.00047495 -0.00015938 -3.33932e-22)
(0.000139757 -7.86917e-07 0)
(6.39348e-05 -6.86178e-06 0)
(-0.0005102 -0.000220973 0)
(0.000131141 -0.000133381 3.71768e-22)
(-0.000302199 -0.000101281 -6.60274e-22)
(0.000144703 -2.84847e-05 0)
(0.000926983 0.00137148 0)
(-5.65981e-06 -3.42422e-05 -2.28158e-22)
(2.60649e-06 -3.23033e-05 -4.33495e-22)
(0.000798252 0.000256307 1.20173e-21)
(-0.000210486 -0.000448144 7.41169e-22)
(0.000210517 3.99461e-05 0)
(-5.03207e-05 5.58699e-06 -4.81411e-22)
(-0.000287141 -0.000247416 -4.21032e-23)
(-0.0013581 -0.0118904 2.54889e-24)
(-0.0325783 0.0211984 0)
(-7.01388e-05 -0.000160995 3.17766e-22)
(0.000169504 6.55433e-06 0)
(-0.000171932 -0.000304995 8.73499e-22)
(-0.00167036 0.000334651 6.16372e-22)
(0.00715585 -0.00278104 4.12282e-23)
(1.86797e-05 -0.000151856 1.41963e-21)
(-5.47969e-05 0.000188212 6.01425e-22)
(7.96999e-05 7.25602e-06 7.34927e-22)
(0.0330432 0.00811922 -3.65939e-23)
(0.000169533 4.70385e-06 3.92875e-22)
(0.0548323 0.0441007 0)
(-0.0215362 0.112312 -3.67163e-21)
(0.0210281 0.0114374 -8.1529e-23)
(-0.000128403 -0.000408477 -4.88993e-22)
(6.03326e-05 -2.31363e-05 4.21984e-22)
(0.000191734 -0.000126406 3.59843e-22)
(8.8218e-05 -1.15718e-05 8.63683e-22)
(-0.00207478 0.000211371 0)
(-7.86415e-05 -0.000401073 8.8312e-22)
(-0.00222846 -0.00174123 0)
(0.00330493 0.0790431 6.48748e-22)
(0.000153089 -3.05674e-05 2.1431e-21)
(-6.66079e-05 -0.000157568 9.42384e-22)
(0.000122492 -2.85565e-06 0)
(9.57286e-05 -0.000582335 2.40825e-22)
(6.75458e-05 -0.000623546 2.40549e-22)
(0.000206964 4.17547e-05 0)
(0.000114616 1.67601e-05 -2.29612e-21)
(-0.000173668 3.72902e-05 1.36345e-22)
(4.9286e-05 -0.000639777 0)
(5.3059e-05 -0.000444183 3.7825e-22)
(-0.00715244 -0.00391896 -2.60028e-24)
(0.000197839 -0.000259897 0)
(-0.000253935 -4.53334e-06 -6.93733e-22)
(-4.60328e-05 -0.000303658 -3.03213e-22)
(0.00499747 0.00485002 -5.0542e-22)
(0.000133969 -0.000139153 5.5719e-22)
(-0.000470305 -0.000184762 0)
(0.00026117 3.9787e-05 -1.56477e-21)
(-0.00342648 -0.000920721 0)
(2.02164e-05 -5.93861e-05 -3.26153e-22)
(-8.13597e-05 -0.000418882 -6.99597e-25)
(-0.00252357 -0.00160932 -3.81006e-22)
(-7.00703e-05 -1.90412e-05 2.76024e-22)
(-0.0010371 -0.000426941 -3.90776e-22)
(0.00016859 3.98642e-06 1.66969e-21)
(7.58875e-05 7.57703e-06 1.76396e-21)
(-0.000223045 -5.6105e-05 -6.31307e-22)
(0.043238 0.0528528 0)
(0.000134506 -0.000234634 5.69013e-22)
(-3.88802e-05 -0.00043477 0)
(0.000191118 -0.000118928 -1.05366e-21)
(5.36799e-05 -5.09613e-05 1.30957e-21)
(0.000286452 0.00197904 4.74564e-22)
(-0.000372275 0.00120871 -8.21116e-22)
(-0.000129119 -0.000266392 1.36746e-22)
(4.48683e-05 -0.000104773 0)
(0.000279278 0.000160433 1.05301e-21)
(-0.02883 -0.0279205 -8.45038e-22)
(-0.000758576 -0.000341695 2.03467e-22)
(0.000310638 0.000292178 0)
(2.41994e-05 -2.08966e-06 4.19625e-22)
(-0.00023682 -6.17297e-05 4.54202e-22)
(1.96851e-05 -0.000142987 4.0402e-22)
(-0.0015955 -0.000270362 -3.09478e-22)
(-0.00114046 -5.46222e-05 -1.7395e-24)
(0.00439017 0.00147468 -1.78914e-21)
(2.20394e-05 -5.69728e-05 3.4437e-22)
(-0.000570725 -0.000114009 -3.33747e-22)
(0.000103871 0.00274841 1.4968e-22)
(0.00150961 -0.000686186 1.03634e-21)
(0.000172558 3.10395e-06 -3.50423e-22)
(0.000156655 0.000282044 5.82369e-23)
(7.71715e-05 -3.38491e-05 -2.57567e-22)
(0.000340109 -0.000459543 0)
(-0.00205424 4.10477e-05 -2.63277e-22)
(-0.0413468 0.00369731 -9.56885e-22)
(3.65291e-05 -4.89584e-05 -1.39917e-22)
(0.000104581 -6.52529e-05 -1.17641e-21)
(0.000738255 -0.000352272 -9.64531e-22)
(0.000175046 3.21741e-06 6.05119e-22)
(9.60607e-05 -5.95933e-05 0)
(-0.0019811 -0.0023334 3.12968e-22)
(-0.000172712 8.77676e-05 -1.79918e-23)
(1.52384e-05 -0.000196763 -1.09786e-21)
(0.000145457 -5.27762e-06 0)
(-0.00026007 -0.000374471 1.45438e-22)
(0.000192154 -3.86551e-05 -3.79181e-22)