/*--------------------------------*- C++ -*----------------------------------*\
| =========                 |                                                 |
| \\      /  F ield         | OpenFOAM: The Open Source CFD Toolbox           |
|  \\    /   O peration     | Version:  v2012                                 |
|   \\  /    A nd           | Website:  www.openfoam.com                      |
|    \\/     M anipulation  |                                                 |
\*---------------------------------------------------------------------------*/
FoamFile
{
    version     2.0;
    format      ascii;
    class       surfaceScalarField;
    location    "100";
    object      ddtCorrDdt0(phi);
}
// * * * * * * * * * * * * * * * * * * * * * * * * * * * * * * * * * * * * * //

dimensions      [0 3 -2 0 0 0 0];
oriented        oriented;


internalField   nonuniform List<scalar> 
21967
(
-2.45176e-05
1.38535e-05
1.0664e-05
8.93382e-05
-2.58259e-05
-6.35119e-05
-0.00011267
8.85698e-05
2.41001e-05
-6.70925e-05
-1.87568e-05
8.58497e-05
-3.42034e-05
5.16188e-05
-1.74157e-05
-9.65626e-05
8.50645e-05
1.14959e-05
-7.50147e-07
-2.11992e-06
2.86968e-06
-5.71288e-05
5.80169e-05
-8.88921e-07
-0.000527564
0.000265102
0.000262466
0.000201771
-0.000197877
-3.89399e-06
-0.00289943
0.00581877
-0.00291935
-8.94111e-05
7.80902e-05
1.13214e-05
0.0126531
-0.0148347
0.00218156
0.00769958
-0.00507162
-0.00262796
2.20835e-05
-8.56119e-06
-1.35218e-05
-1.32983e-05
-4.32816e-05
5.65796e-05
-7.65334e-06
6.85449e-06
7.98293e-07
0.00441173
0.00328783
-4.67584e-05
3.346e-05
-1.47391e-05
-9.77864e-06
0.000106224
-8.75275e-05
-1.86953e-05
1.17301e-05
-4.59337e-05
0.00210535
-0.00155083
-0.000554446
5.92887e-05
-3.45735e-06
-5.58326e-05
0.0117825
0.00804733
-0.0198298
-5.68339e-07
2.11275e-06
-1.54467e-06
2.74346e-06
-3.49349e-06
0.000115097
-3.60551e-05
-7.90398e-05
1.67536e-05
5.33003e-06
3.99209e-05
-7.46086e-06
-3.2459e-05
0.000399609
-0.00120729
0.00080768
-6.52776e-06
-1.12616e-06
-5.78945e-05
3.88149e-05
1.90797e-05
-8.07087e-06
-4.90581e-05
-1.52251e-05
-5.28417e-06
2.05092e-05
2.45795e-05
-9.20679e-05
6.74871e-05
-5.50983e-05
8.24083e-05
-2.73086e-05
5.38699e-06
5.39024e-05
2.83725e-05
7.12168e-06
-3.54941e-05
-2.87523e-05
7.72827e-05
-4.85299e-05
2.88761e-05
-5.13408e-05
2.24646e-05
-1.55942e-05
4.39666e-05
-0.000114317
6.11611e-05
5.31555e-05
-3.17386e-05
4.53477e-05
-1.36091e-05
0.00752832
-0.00612629
-0.00140202
0.00013615
0.000752448
-0.000888591
4.3293e-05
1.69193e-06
-4.49846e-05
1.87321e-05
-8.58252e-05
6.92588e-05
1.59235e-05
-8.51847e-05
3.97126e-06
0.000102253
8.18066e-05
-1.10616e-05
-7.0748e-05
-8.51254e-05
8.77144e-05
-2.58915e-06
2.72476e-05
-4.36279e-05
1.63844e-05
0.00106919
0.00103613
-3.53071e-05
-2.25871e-05
4.0772e-05
7.43261e-05
-2.53547e-06
1.96718e-06
7.63279e-06
-7.78498e-07
-0.0135806
-0.00972209
0.0233027
0.0190837
-0.00643063
-8.24034e-06
1.71212e-06
1.56816e-05
-3.09066e-05
-5.95494e-05
2.68594e-05
3.26897e-05
6.02974e-05
2.90413e-05
-2.84564e-05
-1.37671e-05
4.22249e-05
-2.94173e-05
-5.99928e-05
-0.00024611
0.0410337
-0.0407877
0.000235473
0.000365016
-0.000600503
0.000228058
-2.62869e-05
-7.44974e-05
-1.08535e-05
8.53495e-05
-2.81389e-05
6.96576e-05
-4.15195e-05
-0.000193726
0.000429189
4.41349e-05
-1.36907e-05
-3.0444e-05
-8.00697e-06
5.37441e-05
-4.57367e-05
5.9872e-05
6.134e-05
-0.000121211
1.32855e-05
6.85202e-05
3.98888e-05
2.55164e-07
-4.01441e-05
-3.83208e-05
-3.37613e-05
7.20813e-05
7.81331e-05
-0.000126594
4.84589e-05
0.000884393
-0.00108006
0.000195663
-0.00021548
0.00109986
-0.00127188
0.00430082
-0.00302895
-4.63438e-05
4.96397e-05
-3.29691e-06
-1.45796e-05
3.35322e-06
1.12259e-05
1.29194e-05
-1.2921e-05
6.04008e-05
-2.01801e-05
-4.022e-05
1.88449e-06
4.55238e-05
-4.74079e-05
2.23234e-05
7.31913e-05
-9.55131e-05
3.92202e-05
1.13041e-05
-5.05239e-05
-1.3571e-05
5.27913e-05
0.000392498
-0.000367774
-2.47265e-05
-6.99377e-05
9.226e-05
-5.95426e-05
3.07898e-05
6.92127e-06
3.36775e-05
-4.05974e-05
-8.01678e-05
-0.000198707
0.000278875
-4.6299e-05
1.19077e-05
3.43957e-05
-7.18135e-05
9.0173e-05
-1.836e-05
0.00245672
-4.43396e-05
8.63713e-05
-4.20294e-05
-0.0020972
0.000825331
0.000834223
-0.000698065
-0.000249252
3.27894e-05
0.000216465
-3.41596e-05
-1.34602e-05
4.76192e-05
-4.47628e-05
1.63064e-05
-3.37553e-06
4.26126e-05
-3.92376e-05
-0.0195952
0.031378
3.7641e-05
3.39054e-05
-7.15427e-05
-6.76134e-05
-4.35548e-06
7.19699e-05
3.37092e-05
-7.80482e-05
-7.81637e-06
8.72076e-06
-9.04771e-07
-6.03982e-05
-7.21437e-06
8.03745e-05
-4.27312e-05
-7.50818e-05
-9.38405e-05
-4.64773e-05
5.07814e-05
-4.30578e-06
-5.3673e-05
-1.95627e-06
5.56305e-05
5.85341e-05
-7.98384e-05
2.13042e-05
5.07528e-05
4.00244e-06
-5.47547e-05
-4.3141e-05
-7.11757e-05
-8.48451e-06
-4.87287e-05
5.72143e-05
8.24194e-05
-7.99627e-05
-2.45684e-06
9.76281e-05
-3.77558e-05
-5.04417e-05
4.70658e-05
-2.89042e-05
3.58251e-05
-5.63694e-05
1.00246e-05
-5.17661e-05
-5.38063e-05
7.32832e-06
-5.37062e-05
5.55905e-05
-1.97473e-05
9.41246e-06
1.03343e-05
2.72509e-05
3.07655e-05
7.96309e-06
3.1959e-05
-4.13494e-05
4.58894e-05
-4.53961e-06
3.43904e-06
-4.9739e-05
-0.00024814
-0.000279424
0.00252947
-0.00246241
-6.70393e-05
4.62951e-05
-1.90464e-05
0.000209053
-0.000489082
0.000280028
3.94374e-05
1.60203e-06
-4.10392e-05
-0.00111697
-0.0009927
0.00210965
-1.50412e-05
-0.00800186
-0.00114257
0.0091444
-7.24463e-05
1.73494e-05
0.000368803
-0.000159754
-0.000209046
0.000326209
-0.00144318
3.31444e-07
-3.20703e-05
1.13836e-05
-4.54507e-05
3.40667e-05
0.000293183
-0.000243079
-5.01021e-05
-9.95717e-08
5.08529e-05
3.71398e-05
-3.00184e-05
-3.81519e-06
7.59171e-06
-3.77635e-06
-7.62604e-05
-1.1329e-05
8.75934e-05
-0.051122
0.0508756
-4.8847e-05
7.49878e-06
-4.4315e-05
1.01553e-05
4.00796e-05
-2.86959e-05
1.9636e-05
-5.78132e-06
4.91725e-05
4.3413e-08
-4.92147e-05
-0.0337155
-0.00414299
0.0378592
5.66838e-06
3.52837e-05
-4.09535e-05
-4.92101e-05
-1.36005e-06
5.05703e-05
-8.81294e-06
4.99808e-06
9.08298e-05
-6.50539e-05
-2.57745e-05
-0.000106161
0.000205418
-9.92579e-05
-1.0847e-05
-8.90047e-06
0.000120663
-4.98678e-05
3.83495e-06
4.60318e-05
0.000407717
0.000167813
-0.000575418
-2.66372e-05
-1.35868e-05
4.0225e-05
-0.00022747
0.000147303
0.0150811
-0.0122599
-0.00282118
3.77583e-05
-3.20898e-05
2.08879e-05
6.99425e-05
8.70588e-06
3.54286e-05
-2.08831e-06
-8.83508e-05
9.04409e-05
9.86919e-05
0.00019449
5.6267e-06
-0.000523315
0.000517684
-4.46257e-06
3.36894e-06
1.09323e-06
5.71456e-05
8.78767e-05
-0.000145022
3.16175e-05
-6.10352e-05
-0.000123495
0.000121409
0.00834982
0.00673123
2.28864e-05
6.7887e-05
-9.07695e-05
7.26479e-05
-3.39005e-06
1.30414e-05
3.01566e-05
-4.31977e-05
0.00328029
-0.0168608
-7.28e-05
8.03061e-05
-7.50502e-06
-2.48952e-05
-6.84649e-05
9.3361e-05
-0.000214012
0.000423066
-1.13975e-06
-9.98638e-07
2.13836e-06
0.00300857
-0.000479102
-2.96935e-05
3.05694e-06
0.000163725
-8.14222e-05
-8.23033e-05
-3.83394e-05
1.12231e-05
2.71154e-05
-0.00018333
-2.69156e-05
0.000210249
0.028217
-0.0101456
-0.0180707
0.000313427
-0.000604487
0.000291062
0.00194431
0.00310139
-0.0050457
-0.000273076
0.000439833
-0.000166755
4.62503e-07
-1.6022e-06
-3.38988e-05
4.69398e-05
-0.000115497
7.74163e-05
3.80795e-05
-4.8553e-05
5.74555e-05
-8.90373e-06
0.000128129
-0.000140114
1.19856e-05
0.000116847
-0.000223008
-1.63473e-05
-2.34205e-05
3.97675e-05
-6.41575e-05
-3.24054e-05
6.36085e-05
-1.49039e-05
-4.87045e-05
0.00147171
-0.0010721
0.0272139
-0.00575672
-0.0214571
-5.18076e-05
4.38003e-05
-6.62371e-05
2.95648e-05
3.66729e-05
-4.46952e-05
4.54347e-05
-7.38399e-07
6.08703e-05
-8.57654e-05
-0.00022936
6.96074e-05
-8.66036e-05
6.7846e-05
2.43607e-05
-9.36188e-05
6.92584e-05
-3.09436e-05
3.2447e-06
2.77006e-05
0.0323239
-0.022952
-0.00937193
-9.1428e-06
-1.07251e-05
1.98681e-05
1.5419e-06
3.78952e-05
0.0256806
0.00153334
9.26679e-05
1.80037e-05
-0.000110668
-0.00435876
0.00044695
0.00391183
9.64414e-05
-6.87875e-05
-2.7654e-05
0.0173444
-0.00899448
-3.04734e-06
6.8691e-06
-3.82219e-06
4.63128e-06
5.89769e-05
-1.67028e-06
-2.79269e-06
-2.42074e-05
-6.73599e-06
0.0166706
0.0212049
-0.0378767
7.08482e-05
0.000123229
-0.000194076
3.48887e-05
-7.321e-05
-0.000217677
0.000531104
5.69696e-05
-8.92451e-06
-4.80432e-05
-3.25592e-05
0.00780126
-0.00785574
5.44702e-05
2.18804e-05
3.85209e-05
3.37294e-05
2.09705e-05
-5.47001e-05
-0.000480938
0.000207863
5.42752e-07
3.17758e-05
-3.23191e-05
-0.00790709
0.00702945
0.000877661
-5.14755e-05
1.82532e-05
3.32216e-05
-6.31426e-05
2.11978e-06
6.10214e-05
-0.000551151
-0.00184766
0.0023988
2.70713e-06
1.23972e-06
-6.67291e-05
-2.41922e-05
9.09195e-05
-8.34901e-05
1.72499e-05
6.62396e-05
-4.32051e-05
3.94188e-05
3.78589e-06
8.37379e-06
-8.55253e-06
1.78139e-07
4.58355e-05
2.82472e-06
-4.86607e-05
-1.33556e-05
3.83991e-05
-6.12168e-05
2.28182e-05
3.91968e-05
-0.000288448
-2.07404e-05
0.00017727
-0.000128497
-4.87709e-05
-6.76281e-07
6.95624e-05
-6.88866e-05
-0.0258848
0.0113373
0.0145477
-1.393e-05
-6.49308e-07
2.7657e-05
1.64446e-05
-4.41022e-05
-1.90348e-05
-9.64628e-05
4.21963e-06
-1.51287e-06
9.90536e-05
7.82184e-05
0.0285374
-0.0204897
6.95648e-05
-7.02414e-05
-0.00069863
0.00513403
-0.00443543
5.77571e-05
0.000105968
-8.05236e-07
-6.82671e-07
1.4874e-06
-5.46993e-05
2.32201e-05
3.14793e-05
-0.0198894
-0.00599525
6.47174e-06
1.32115e-05
-1.96844e-05
-3.92566e-05
-2.02927e-05
-6.66667e-06
-2.99547e-05
3.66219e-05
0.000115243
-8.1329e-05
-3.39113e-05
4.4787e-05
-1.5911e-05
-1.47552e-05
-3.67207e-05
-6.51622e-05
2.84664e-05
3.66969e-05
0.00167498
5.5058e-07
-4.52454e-05
-4.71651e-05
-1.16462e-05
5.88098e-05
3.80259e-05
0.000162278
-0.00452097
-2.87334e-05
-2.59659e-05
3.91003e-05
-3.41354e-05
-4.96408e-06
5.60927e-06
5.13602e-05
-5.17177e-05
3.39633e-05
1.77518e-05
3.5018e-05
-3.44753e-05
1.31527e-06
-2.78396e-06
1.46848e-06
-5.21862e-05
-4.19702e-07
4.60568e-06
-4.1862e-06
7.85671e-05
-7.04093e-05
-8.15507e-06
-3.36161e-06
1.95179e-06
1.41005e-06
-7.53423e-07
-5.18961e-08
-5.98283e-05
1.26622e-05
0.014422
0.00292237
-1.84962e-05
3.41778e-05
-5.69405e-05
6.23279e-05
6.94328e-06
-6.06157e-05
2.5263e-05
-4.0162e-05
1.48989e-05
1.60497e-05
5.35695e-06
-2.14075e-05
-4.93613e-05
4.98557e-05
-4.93979e-07
4.86947e-05
-3.36463e-05
-1.50483e-05
0.00012424
0.000279359
-0.000403599
-1.32476e-05
2.01173e-05
-6.86977e-06
1.35139e-05
5.09426e-05
-8.47042e-05
5.34519e-05
4.29898e-05
0.00117441
-0.000218599
-0.000955827
-0.0460147
0.0328318
0.0131829
-6.78438e-05
2.69804e-05
4.08636e-05
0.000127268
-0.000141434
1.41635e-05
-0.000509522
-0.000193666
0.000703166
-7.32349e-06
6.10917e-05
-5.37676e-05
6.85027e-06
-1.59927e-05
6.27948e-05
-4.90043e-05
-1.37895e-05
-6.20245e-05
0.000169389
-9.854e-05
3.10207e-05
-2.84542e-05
-2.56632e-06
-0.000725004
-4.57099e-05
1.81839e-05
2.75264e-05
3.86814e-05
-4.02296e-05
4.74859e-06
3.54798e-05
0.000388865
-0.000264624
1.05659e-05
-5.27147e-05
4.21485e-05
-3.26389e-05
6.6368e-05
-0.00139456
0.000107666
0.00128691
-3.55707e-05
1.17615e-05
7.12161e-05
-8.29775e-05
6.59921e-05
2.66756e-05
8.18457e-05
-2.33111e-05
-1.99334e-05
3.43588e-05
-1.44258e-05
1.60984e-05
-4.85111e-05
3.24124e-05
0.000679184
-0.000314283
-0.000364902
-0.000111827
7.54108e-05
3.64169e-05
2.20512e-05
-5.1394e-06
4.71947e-06
7.77643e-05
5.80798e-06
-8.35731e-05
2.877e-06
-1.56169e-06
-3.70453e-05
-2.81162e-05
-5.53013e-06
6.0448e-06
-5.15036e-07
-9.72751e-05
2.88109e-05
-4.84615e-07
-1.86737e-06
-5.31743e-07
2.39971e-06
7.02258e-05
-4.23305e-05
-2.78952e-05
5.88138e-05
1.24856e-05
-7.12952e-05
-6.35374e-05
-1.63009e-05
-0.000153441
-7.59186e-05
-4.44062e-06
4.43296e-05
-9.1999e-05
4.81945e-05
4.38002e-05
-3.16025e-05
-0.000151727
0.000125814
2.31308e-06
-3.74178e-06
6.38942e-05
-6.0151e-05
7.27854e-06
4.64656e-05
0.000136562
-8.56539e-05
-5.09085e-05
8.7722e-05
-1.97291e-05
-6.79925e-05
0.00156026
-0.00177345
0.000213191
9.45067e-05
-9.06691e-05
-3.83723e-06
0.000251711
0.000137153
-6.09896e-05
-0.000144948
0.000205936
-8.41803e-05
1.74506e-05
0.000291628
-0.00168617
1.77158e-05
8.10255e-06
-2.58184e-05
0.000413059
-0.000682389
0.000269323
-6.86208e-05
5.38848e-05
1.47354e-05
-0.000265376
0.00019277
7.2607e-05
-6.46094e-05
5.03312e-05
1.42778e-05
-5.82952e-06
2.99163e-07
2.85508e-05
-4.17978e-05
2.76432e-05
-9.92715e-06
-0.000436277
-0.000206218
-5.28224e-05
-1.17872e-05
0.00050141
-8.83519e-05
0.00034142
-8.97076e-05
6.12004e-06
-1.01713e-05
4.05209e-06
0.00029331
-0.000253652
-3.96593e-05
-0.0147064
0.025654
-0.0109475
0.000876674
-0.00377611
-2.23119e-05
8.31823e-05
1.39062e-05
-1.28482e-05
-1.05927e-06
0.000604418
0.00521435
-6.02882e-05
3.32081e-05
2.70811e-05
7.13408e-05
-2.50249e-05
-4.63138e-05
5.69204e-05
-6.42438e-05
0.00490523
3.30081e-05
-5.00765e-05
1.70663e-05
-4.20928e-05
2.87376e-05
0.000135397
0.000157914
-2.56864e-05
-8.34785e-06
3.40348e-05
7.78613e-05
9.86107e-06
0.000103569
-9.0626e-06
1.12541e-06
-4.17288e-06
-7.90914e-05
7.27768e-06
2.64161e-05
1.26846e-05
0.000394457
-0.000360696
-3.37665e-05
1.64981e-06
4.191e-05
-4.356e-05
-8.01163e-06
-3.22194e-05
-3.82786e-05
-4.30027e-06
3.25124e-06
1.04864e-06
2.67794e-07
3.37878e-05
-3.40555e-05
4.30703e-05
-8.25995e-07
-4.22445e-05
0.000495177
-0.000489556
-2.77886e-05
-1.59024e-05
4.36911e-05
-3.92797e-05
-8.51378e-06
4.77933e-05
0.00113178
-0.00206964
0.000937881
-3.79831e-07
-1.58917e-06
1.96871e-06
-3.66477e-05
1.67146e-05
-3.90569e-05
5.00168e-05
-1.09592e-05
-7.33051e-06
5.31655e-05
3.40324e-05
7.28823e-05
-0.000106915
-4.74829e-05
3.94711e-05
0.000811621
0.000338643
-0.00115024
-7.44441e-05
8.62061e-05
-8.62224e-05
0.00010749
-2.12671e-05
-6.10124e-05
2.23063e-05
3.87079e-05
1.33164e-07
-2.69292e-06
-0.0309227
-0.0150919
-2.56395e-05
-8.61871e-05
0.00070321
-0.00238743
0.00168421
5.89396e-05
-1.66751e-05
-4.22635e-05
-5.90767e-05
3.09377e-05
1.21575e-05
-5.14371e-05
0.000738131
-6.06826e-05
-6.53879e-05
9.3047e-05
-2.76583e-05
0.000223688
-0.000285397
6.1713e-05
0.000332763
-0.000212489
-0.000120282
2.01049e-05
-7.27574e-06
-1.28299e-05
5.69594e-05
1.32663e-05
-1.23694e-05
3.71922e-07
1.19965e-05
-2.27576e-06
-3.93876e-05
4.16647e-05
5.64394e-05
-1.80047e-05
-3.84351e-05
0.000130721
-4.90637e-06
-8.84189e-05
0.000123136
-3.47165e-05
-0.017363
0.0335924
-0.0162292
-3.88645e-05
4.2373e-05
-3.50868e-06
9.47214e-08
-6.82095e-05
6.8113e-05
4.25268e-05
0.000181161
5.16369e-05
1.29023e-05
-6.45405e-05
-4.75735e-06
-7.61258e-06
5.9085e-06
1.41959e-05
1.96756e-05
-1.79376e-05
-1.73719e-06
-1.40481e-06
-5.04325e-05
4.24542e-05
7.97883e-06
-0.000103295
0.000137326
-7.74162e-05
-7.70932e-06
-6.61324e-05
2.00077e-05
4.61251e-05
9.5048e-06
-0.00280164
0.00400421
-0.0012026
0.000268074
6.46825e-05
-5.68956e-05
8.34391e-06
-0.00109517
0.00138683
8.82385e-06
-4.78806e-05
0.00775942
-0.00589119
-0.00186822
-2.76469e-05
2.25296e-05
5.11697e-06
-3.35835e-05
3.38515e-05
1.18651e-06
3.77404e-06
-4.96116e-06
5.65004e-05
-0.000104706
4.82037e-05
-0.00175112
0.00185878
5.15868e-05
-7.7414e-05
7.21025e-05
5.9743e-05
-0.000127416
6.76742e-05
-5.76989e-05
6.4643e-05
-3.15519e-05
0.000455058
-0.000178322
-0.000276741
-0.00186297
0.00256617
-3.77145e-06
-3.20741e-05
3.58461e-05
1.28504e-05
3.02415e-05
-5.40672e-05
-1.2065e-05
0.000224554
0.000169901
1.1972e-05
3.24546e-06
-1.52182e-05
-1.97977e-05
-3.06348e-05
-3.37259e-05
8.57743e-05
-6.7042e-05
-3.03927e-06
1.51041e-06
1.52907e-06
-0.000106826
9.52572e-05
-3.64443e-05
-3.25459e-05
-6.00006e-06
-4.35934e-05
-7.21646e-07
0.000301568
3.98526e-05
8.2746e-06
-5.1605e-05
4.33302e-05
-6.23368e-05
-1.43677e-05
7.6706e-05
3.64444e-05
6.78185e-05
-4.34571e-05
2.49594e-06
-4.60893e-05
7.29555e-05
-0.000104351
3.13963e-05
0.0058462
-0.000940964
-0.00117655
-1.47347e-05
3.57552e-05
-2.10204e-05
-6.37995e-05
2.33457e-05
4.04534e-05
-1.37856e-06
1.39341e-05
5.7414e-06
1.82355e-06
-3.12757e-06
1.30407e-06
-2.37634e-05
-5.44655e-05
7.8231e-05
-0.0206095
0.00590311
-4.32026e-06
1.07185e-05
-6.39874e-06
-1.53843e-05
7.63876e-05
-6.10041e-05
0.000103627
1.15642e-05
-0.000115191
-0.0194934
-0.0190192
0.0385128
-3.09154e-06
0.000106719
-3.76312e-05
-5.93486e-06
4.90051e-05
-7.52204e-06
-5.8128e-05
6.56531e-05
4.7917e-05
-8.08091e-08
3.83817e-06
8.12272e-05
0.000310178
0.00129884
-0.001609
3.91061e-05
-6.28686e-05
0.000411977
4.30799e-05
3.97768e-05
8.33585e-05
-3.49428e-05
1.85954e-05
-8.19123e-06
1.15905e-05
-1.90488e-05
7.45903e-06
0.00829103
5.63733e-05
-3.93208e-05
0.00772391
3.54987e-05
-9.48478e-06
5.83146e-06
3.65309e-06
4.71973e-06
-1.75102e-05
1.27906e-05
-8.16676e-06
3.5525e-05
-2.73575e-05
-0.000329962
-0.000136996
0.000466957
0.000160292
-0.000102535
-4.304e-05
1.52516e-05
-3.97273e-05
8.62473e-07
-5.4059e-05
-0.000211317
-1.02059e-06
2.40537e-06
-1.38448e-06
4.17827e-06
-8.45899e-06
4.2803e-06
5.26e-05
-5.26995e-05
-1.06668e-05
-4.58301e-07
1.11243e-05
-3.55063e-06
-8.70578e-06
1.22564e-05
2.97675e-05
-1.36542e-05
-1.61138e-05
-0.0187349
0.0167702
0.00196472
5.89666e-06
4.32769e-05
-1.89304e-06
0.0038484
-0.0019041
-0.00572096
-0.0148885
-0.000110266
5.81199e-05
5.21457e-05
-0.00964848
-0.00908644
-9.26659e-06
-6.11435e-05
7.04124e-05
8.16889e-05
4.15399e-05
-7.65812e-06
1.41289e-05
-6.98875e-05
6.99825e-05
-0.000755195
-0.00137802
0.0021332
-1.93406e-05
1.63732e-06
1.77036e-05
0.000251836
0.00024957
0.000162979
-0.000375656
0.000212677
7.24791e-05
-8.08814e-05
8.40403e-06
2.0866e-05
-8.63663e-05
2.86364e-05
5.77342e-05
7.87195e-05
-0.000148133
6.94153e-05
5.96267e-06
6.95701e-06
-8.17271e-06
-6.61227e-05
-2.49741e-06
-3.25963e-05
2.44297e-05
-5.43216e-05
-1.77987e-05
7.21219e-05
3.58419e-05
4.77723e-06
-4.06196e-05
5.8794e-05
-7.41786e-05
0.00329726
0.00430742
-0.000589575
-0.00371786
2.45215e-07
-7.2509e-05
7.22633e-05
-4.14928e-06
1.22303e-06
2.92614e-06
-4.12474e-05
-6.90191e-05
-7.60683e-06
7.22606e-06
3.80488e-07
4.00116e-05
3.37074e-05
-7.37199e-05
0.000465466
-0.00285288
-1.03762e-05
-5.43268e-05
6.47043e-05
0.000106584
-4.94375e-05
-9.13451e-06
-6.36654e-05
-0.000143827
0.000306479
-0.000162654
-2.87197e-05
4.20613e-06
2.4514e-05
0.000109523
2.11966e-05
-3.73365e-05
3.89867e-05
3.60331e-05
2.82287e-05
-6.42616e-05
-1.54413e-05
5.38404e-05
1.10873e-05
8.48713e-07
-1.19349e-05
0.00152757
-0.000458424
-3.72267e-05
-1.65798e-05
-0.000902146
-1.34682e-05
0.00678969
0.000593223
-0.0073829
-3.39665e-05
8.2794e-06
-5.21578e-05
4.06908e-05
1.14667e-05
1.10137e-05
-3.17009e-05
2.0689e-05
-4.21672e-05
0.0159301
-9.60417e-07
-1.08745e-06
-5.30594e-05
9.57377e-06
4.34848e-05
-7.13431e-06
3.68706e-05
-2.97372e-05
4.72077e-06
-5.84937e-05
5.37735e-05
4.39315e-05
-4.79716e-05
4.04014e-06
0.00723913
-0.000449457
-1.36934e-06
-6.65751e-05
6.79422e-05
-0.0212846
0.0623182
0.00112511
-0.00138358
0.000258465
-0.0166296
-0.00296561
-9.4621e-06
5.91114e-06
-2.1752e-06
2.8795e-06
-7.0464e-07
5.48517e-06
-5.87201e-06
3.863e-07
-3.00227e-06
3.88442e-05
0.00015755
-7.88296e-05
-4.84411e-05
-4.35591e-05
-4.36261e-05
3.15817e-05
1.20436e-05
-8.90176e-05
5.65833e-05
3.24385e-05
0.000195054
0.000484138
4.67481e-07
5.01744e-06
-4.01308e-05
-0.000103696
4.08986e-06
-8.03485e-05
0.00372391
-0.0117258
-6.73936e-05
-0.000108861
-6.34673e-06
7.20688e-05
-0.000101415
2.93464e-05
0.000246414
-0.000530464
0.000284052
-2.55557e-05
-2.09185e-06
-0.000318563
0.000257571
2.59008e-08
0.0117533
0.0205706
-3.22435e-05
0.000104312
2.86986e-06
-7.1904e-06
5.24137e-05
8.41488e-05
4.33562e-06
-4.52579e-05
4.09237e-05
4.20216e-05
7.99475e-06
5.76504e-05
3.02271e-05
2.74467e-05
-2.84493e-05
1.00395e-06
-2.2858e-05
9.1045e-05
-6.81881e-05
-6.40756e-05
-1.04229e-05
-0.037184
7.60011e-05
-2.88595e-05
-4.71424e-05
0.00635019
0.00526177
-0.0116121
5.69642e-05
8.37829e-05
-0.000140746
-2.96033e-05
4.06184e-05
2.11217e-05
-8.17865e-05
6.06659e-05
4.85613e-06
1.18825e-06
-1.59927e-05
-3.34805e-06
-9.11683e-05
9.87892e-05
-2.06563e-05
-9.20162e-06
5.24944e-05
0.0147549
-0.0137108
-0.0010441
1.01667e-05
3.96309e-05
-4.97958e-05
-5.55299e-05
5.66173e-06
-0.00896713
-0.0275831
-0.00121068
0.0287937
3.39121e-05
-2.53054e-05
-8.6072e-06
-1.7904e-05
6.88457e-05
-6.84047e-05
1.40838e-05
0.000122769
-1.32474e-05
6.41667e-05
4.04228e-07
-6.45703e-05
-4.62969e-05
-1.32458e-05
-5.2821e-05
2.40873e-05
-6.61859e-05
5.52011e-05
1.09846e-05
0.000206931
1.87586e-05
-1.3079e-06
-1.74504e-05
-3.69701e-05
-6.11134e-05
9.98203e-05
-3.87076e-05
-3.18912e-05
0.00354834
-0.00803485
-3.2893e-05
9.40543e-05
-3.5052e-05
9.05152e-05
-0.000932653
0.000842134
-0.0107604
0.000522216
0.0102381
-2.12718e-05
5.14285e-05
4.28476e-05
7.62095e-06
-5.04687e-05
1.52903e-06
-5.07388e-05
-0.000647702
0.000738213
-2.79122e-05
9.80912e-06
1.81029e-05
1.47587e-05
-1.95569e-05
4.7977e-06
1.51534e-05
-3.57282e-05
2.0574e-05
-0.00531898
0.00462032
3.85456e-06
6.26247e-05
-6.64785e-05
6.21595e-05
1.96244e-05
-8.1785e-05
-5.4017e-06
-4.63148e-05
-6.01067e-05
4.97306e-05
0.00884031
-0.00249014
-4.17215e-05
-1.48364e-06
-6.95788e-05
0.00978892
-0.00193561
-0.00785389
-0.0013008
0.00162701
-0.00306429
-0.00216456
0.00522881
-8.98136e-07
-6.68245e-05
7.0679e-05
0.000323928
-0.000260409
-6.35254e-05
0.000328359
6.41391e-05
-4.28962e-06
0.00060624
-0.00129198
0.000685757
-9.6801e-05
-7.95272e-06
0.000104755
0.000286773
-0.000288327
1.55995e-06
0.000243019
-0.000107623
-1.02305e-05
-8.2925e-05
9.65101e-05
-1.35857e-05
4.77657e-05
-4.48582e-05
-2.90694e-06
-4.45987e-06
6.66189e-05
1.22012e-05
-1.11319e-06
-4.69985e-06
7.71792e-05
2.62738e-05
-2.71004e-05
-8.72115e-06
-8.80786e-05
0.000167059
-6.80023e-05
-0.00201731
-0.0289053
5.44068e-05
-4.4241e-05
5.87925e-07
-8.40392e-06
0.000163804
7.92146e-05
-0.000581786
4.89551e-05
-1.18896e-06
-2.29203e-05
-6.77276e-06
-9.50113e-06
-3.09602e-05
4.04613e-05
-7.33651e-06
3.9514e-07
6.94105e-06
8.8981e-07
-3.06526e-06
4.99358e-05
-2.89656e-05
-3.92842e-06
6.80948e-05
-5.38281e-06
2.74923e-05
-6.94914e-05
4.19983e-05
0.000353506
-2.95832e-05
-1.33281e-06
2.16185e-06
-8.29214e-07
-1.55213e-06
6.91186e-05
-3.7502e-05
5.74899e-05
-2.14565e-05
8.36689e-05
1.68262e-05
-0.000100495
7.74554e-06
2.32751e-05
2.90582e-05
1.57288e-05
0.00139359
-0.0021488
-0.019245
0.00261545
4.30889e-05
-4.20655e-05
-1.02486e-06
-6.64769e-05
-2.56396e-05
9.21162e-05
-2.93088e-05
-3.68763e-05
-0.00027665
0.000154347
0.000122303
-0.00107491
-0.000676217
4.32674e-05
1.31719e-05
-2.51734e-05
0.000102938
-3.98872e-05
-7.59515e-06
0.0129843
-0.00319618
-1.44961e-08
-0.0279615
0.00846815
-0.0320634
0.064895
-0.00667043
-0.0055895
1.78947e-05
3.19831e-06
2.5751e-05
-3.34929e-05
7.74151e-06
8.10335e-05
-0.000112007
3.09721e-05
-4.02963e-05
-1.27637e-05
-4.52849e-05
0.000292963
-0.000247672
2.57744e-05
4.55666e-05
0.000916423
0.0243947
-3.27606e-05
-5.62555e-05
2.18068e-06
4.0908e-05
-1.01594e-06
-0.000204367
9.7787e-05
0.000106582
5.60189e-05
-7.00049e-06
-5.13814e-05
5.61012e-05
-6.89201e-05
9.85804e-05
-2.96611e-05
-0.000145058
-5.931e-05
2.92433e-05
5.32066e-05
-8.24494e-05
0.0019147
-0.00144924
-6.25409e-05
6.46604e-05
-1.51925e-05
1.6042e-05
1.7443e-05
4.01252e-05
-5.75693e-05
-0.000648334
-6.61707e-05
-1.09498e-05
-3.26765e-05
4.22949e-05
0.000117997
0.000174495
0.00112435
2.68166e-05
-8.4552e-06
-1.8361e-05
2.4836e-05
-6.94093e-06
-0.000234523
1.02531e-06
2.08081e-06
-3.10606e-06
-4.56157e-05
0.00012652
-8.09044e-05
8.87857e-05
-6.95817e-05
-1.92048e-05
-4.24543e-05
2.56777e-06
-9.92937e-06
-4.00064e-06
0.0312729
-0.0146033
-2.05502e-07
-1.41863e-05
1.43922e-05
1.63055e-05
8.53081e-06
0.000103005
-2.19712e-05
3.02606e-05
-1.66718e-07
-3.00931e-05
8.55241e-05
0.000151457
-0.000236969
-0.000507893
0.00049388
1.40233e-05
1.53708e-05
-5.25975e-05
4.2867e-05
-4.26114e-05
-1.22046e-05
2.17611e-05
-9.55823e-06
0.0196859
-0.00834851
-1.90937e-05
-6.71556e-05
8.62494e-05
0.000152046
5.78593e-05
-0.000209906
3.64493e-06
7.78416e-06
-1.38465e-05
3.91661e-06
-2.64376e-05
4.07381e-05
-1.43013e-05
-0.00017846
0.000211252
0.000125483
-0.000117774
-7.71031e-06
0.00114611
-0.0021388
7.74457e-06
1.90725e-05
-4.904e-05
-3.11845e-06
0.000231298
-0.000646342
0.000415011
-0.000523626
7.83572e-05
-2.1857e-05
4.55363e-05
0.000121525
-1.72961e-05
-4.57589e-05
0.000118641
0.00024149
-0.0147362
-0.00450876
-3.98234e-07
2.44509e-05
-2.40522e-05
4.18815e-05
1.70591e-05
3.32332e-05
-6.68684e-05
3.36345e-05
-7.81703e-05
-2.65355e-05
-6.56002e-05
4.13489e-05
2.42513e-05
0.000156563
0.000382567
-0.000539129
-5.86422e-05
-6.79527e-05
4.41595e-05
3.18411e-05
6.9942e-05
3.78027e-06
-7.37214e-05
5.59504e-05
-1.39293e-05
-6.70965e-05
-3.55543e-05
0.000102652
0.0025899
-0.00440994
0.00182019
-1.64706e-05
-9.08547e-06
-1.45357e-05
8.30079e-05
-6.84725e-05
-3.28038e-06
3.49944e-06
-3.13909e-05
3.17223e-05
-8.32409e-05
7.72573e-05
5.98363e-06
-2.18708e-05
-3.84171e-05
5.10813e-05
-5.24409e-05
1.65815e-06
5.41256e-07
-2.19961e-06
-0.0125586
0.00241371
-2.68112e-05
1.03408e-05
-0.000319755
-0.000981032
-0.00158377
-0.000390363
0.000655464
2.1216e-05
-4.24872e-05
2.48413e-05
3.79542e-05
1.4621e-05
7.11531e-05
-6.6994e-06
-9.4088e-06
1.61082e-05
2.54151e-05
-3.25504e-05
-1.74244e-05
9.32356e-06
1.87958e-05
-2.81196e-05
-7.04663e-05
-1.45305e-05
8.49979e-05
3.70511e-05
1.60038e-05
-5.30544e-05
4.97596e-05
0.000256719
5.0036e-05
-4.9992e-05
-3.27764e-05
2.32754e-05
9.49538e-05
6.25994e-05
-6.43179e-05
0.000472146
8.14139e-05
-6.67924e-05
-0.000961983
3.57622e-07
-2.90768e-05
-0.000124072
7.39467e-05
5.01263e-05
-0.00285322
-0.0340235
0.0368757
3.80983e-06
3.01022e-05
0.000106448
-3.40257e-06
1.97103e-05
5.22135e-05
-5.77435e-05
5.52936e-06
7.34982e-05
-9.10152e-05
1.75182e-05
0.000861086
-4.94541e-05
5.91519e-05
5.24354e-05
-0.000111589
-6.61631e-05
0.000114583
-4.84192e-05
2.26812e-05
-8.88439e-05
-2.9782e-05
-1.21821e-05
1.5535e-05
-6.94573e-05
5.49124e-05
1.45455e-05
-6.70688e-05
0.000126222
4.59879e-05
-5.70818e-05
1.10939e-05
-5.59486e-05
5.12652e-05
4.68398e-06
-0.000620336
0.00321031
5.1469e-05
-4.45164e-05
-6.95334e-06
-1.75529e-05
4.76172e-05
-1.15828e-05
-3.05094e-05
-0.00376707
-2.43193e-05
-8.51603e-05
7.06246e-05
8.57672e-05
-1.22693e-05
-3.9818e-05
-4.34226e-05
-0.000198828
-0.000309061
-6.09002e-07
5.81633e-05
0.000284679
-0.000292939
8.26977e-06
1.69383e-05
5.2719e-05
2.41464e-05
-0.0299171
3.77346e-05
1.096e-05
2.23086e-05
-4.63923e-05
5.36711e-05
4.31953e-06
6.6201e-06
-1.09392e-05
-4.72328e-05
2.29229e-05
-9.00185e-05
-6.73536e-05
-1.61367e-05
-3.45541e-05
8.61421e-05
-5.58576e-05
5.43342e-05
1.52285e-06
0.000268893
4.13718e-06
8.06435e-06
-4.77221e-05
4.77588e-05
-3.73917e-08
-0.000156851
-0.000447634
0.00132764
-0.000808514
-0.000519134
-0.0250428
0.0230256
1.09772e-05
-2.16446e-05
6.83675e-05
-4.08747e-05
8.22709e-05
-5.58181e-05
-2.64538e-05
-2.39673e-06
3.5829e-06
3.85508e-06
-6.61928e-05
1.57677e-05
0.000215893
7.70724e-05
8.7751e-06
-5.11467e-05
-2.22969e-06
5.33762e-05
-2.99756e-05
-3.94815e-05
1.18962e-05
5.45703e-05
-6.64679e-05
9.8478e-05
-8.81452e-05
-1.03325e-05
3.95441e-05
-1.37934e-05
0.00240918
-0.00258465
0.000175492
6.08556e-05
-6.47831e-05
-9.82807e-05
0.000858355
-9.64054e-05
7.35483e-05
-0.0320273
-0.0483708
0.0291983
0.0257682
-0.0549665
-7.14907e-07
3.47991e-06
-2.76646e-06
-6.07446e-05
4.88605e-06
-1.33394e-05
-7.18205e-05
-3.98108e-06
0.0160827
0.00360308
-9.79454e-05
1.50204e-05
1.23738e-06
2.12193e-06
-3.35927e-06
0.000232333
-0.000639384
0.000407058
-2.94796e-05
-5.25732e-05
3.3863e-05
1.87121e-05
5.36759e-07
5.66712e-06
-6.20394e-06
-5.55869e-05
0.000130969
-7.53837e-05
6.37473e-05
2.26245e-05
-7.19962e-05
-4.66158e-05
3.95759e-05
7.04025e-06
-7.6507e-05
-4.75651e-05
-1.13848e-05
1.07501e-05
-6.02425e-05
4.94917e-05
-0.00149574
0.00264186
-0.000219852
0.000277711
-7.14269e-06
4.28057e-05
-3.56629e-05
9.38107e-06
-2.02284e-05
6.93486e-07
1.9094e-05
2.62542e-05
-7.84182e-05
-0.00914938
0.00124229
3.67409e-06
2.37726e-05
-7.46188e-05
9.3847e-05
-1.92211e-05
-6.68436e-05
0.000109533
-4.26886e-05
-0.00095644
0.00798588
5.71315e-05
7.0136e-05
4.76851e-05
-5.65009e-05
8.81522e-06
6.79322e-05
-0.000458282
-0.000336761
0.000569095
-5.75537e-05
-8.52439e-06
0.0109999
-0.00627517
-0.00472472
1.09803e-05
3.21293e-05
-4.31094e-05
0.000111847
-4.9504e-05
-6.2343e-05
-5.06045e-05
4.31434e-05
-7.01164e-06
-5.06872e-05
1.22678e-06
-7.36267e-06
6.82197e-05
-1.24435e-05
-1.77819e-07
1.26223e-05
1.90075e-05
-4.24278e-05
3.40171e-05
-5.78319e-05
0.000152787
0.000194989
8.9692e-05
-7.75849e-05
9.1692e-05
-1.41057e-05
-0.000244201
5.8382e-05
0.000185821
1.28468e-05
-8.16338e-05
1.46403e-05
-4.82989e-05
3.36594e-05
7.96674e-05
-0.000125283
2.05197e-05
-2.09181e-05
8.31981e-05
1.97434e-05
-0.000102942
-0.000270052
0.000124991
5.19173e-05
-0.000126536
-5.54032e-05
-1.20788e-05
6.7483e-05
-7.35136e-05
-1.06666e-05
7.73582e-05
7.9717e-05
0.000939907
-1.43966e-05
-7.96171e-07
7.77469e-05
5.51463e-05
-2.54633e-06
3.99916e-06
-0.00184045
0.012026
-0.0101856
-7.54267e-05
9.89903e-06
6.55291e-05
-5.40048e-05
6.31167e-05
-9.10877e-06
3.3109e-05
-4.16425e-05
1.89593e-05
-8.5802e-05
-8.12138e-05
-1.12033e-07
8.13248e-05
-3.08367e-05
-4.47339e-05
7.55709e-05
-5.05355e-05
2.81363e-06
0.00881218
-0.00995479
-7.72426e-07
-3.08688e-05
3.16415e-05
2.8185e-05
-4.37788e-05
-0.000217956
-0.000192203
9.31814e-05
1.86641e-05
2.48274e-05
-6.01477e-05
3.53181e-05
-6.70523e-06
4.9318e-05
-4.26135e-05
0.00147043
-0.00165975
-0.000102317
0.00176207
-0.00017084
-0.000147726
-1.63773e-05
-5.12836e-05
6.76607e-05
3.38495e-05
5.38648e-05
-0.00590533
-0.00586894
0.0117742
0.000110454
-2.24282e-05
-8.80225e-05
-5.16911e-05
3.92228e-05
1.2469e-05
-3.15717e-05
-0.000109863
0.00869362
-0.01425
0.00555648
-9.80366e-05
1.87844e-05
7.92537e-05
9.70511e-05
-4.6727e-05
0.000128416
-8.66818e-05
5.68876e-05
2.97945e-05
0.020988
-0.0228287
-2.04935e-05
1.70905e-05
-0.000209202
0.000130361
7.88338e-05
-1.03139e-05
-3.12675e-05
4.15811e-05
-7.08202e-05
-5.65952e-05
-0.00189514
-9.78196e-05
8.34803e-06
1.04107e-05
-2.01502e-06
-4.04382e-05
-0.000431865
0.000235729
0.000196135
-2.27891e-05
5.13728e-05
-2.85841e-05
-1.28884e-05
-3.75174e-05
5.04056e-05
7.87488e-05
5.95814e-05
6.99573e-06
-5.21043e-05
4.51086e-05
-1.4818e-05
-1.33505e-05
2.76675e-05
-2.73011e-05
-3.66465e-07
3.42305e-05
-5.02714e-05
1.60405e-05
-0.000265817
-0.000166048