/*--------------------------------*- C++ -*----------------------------------*\
| =========                 |                                                 |
| \\      /  F ield         | OpenFOAM: The Open Source CFD Toolbox           |
|  \\    /   O peration     | Version:  v2012                                 |
|   \\  /    A nd           | Website:  www.openfoam.com                      |
|    \\/     M anipulation  |                                                 |
\*---------------------------------------------------------------------------*/
FoamFile
{
    version     2.0;
    format      ascii;
    class       volScalarField;
    location    "100";
    object      k;
}
// * * * * * * * * * * * * * * * * * * * * * * * * * * * * * * * * * * * * * //

dimensions      [0 2 -2 0 0 0 0];


internalField   nonuniform List<scalar> 
14804
(
0.000132607
0.000142202
0.0400369
0.000138819
0.00017178
0.000164524
0.0244519
0.000178531
0.000153299
0.000140675
0.000212105
0.0133604
0.00168204
0.0159195
0.0516657
0.000159723
0.0190654
0.0129194
0.000159777
0.000132271
0.000145871
0.00017179
0.000178627
0.000161454
0.0155588
0.0239184
0.0199279
0.000149537
0.0520589
0.0394099
0.0413371
0.019167
0.000166658
0.000178755
0.0532484
0.000139612
0.000141761
0.000161076
0.000194783
0.00013139
4.38191e-05
0.00025056
0.000220794
0.000157651
0.0272185
0.039109
7.31557e-05
0.000138774
0.000205422
0.000145696
0.000151305
0.00015751
0.000148002
0.000180416
0.000167081
0.000149284
0.019423
0.0227971
0.0256665
0.00190304
0.0229636
0.0502058
0.000131952
0.0001417
0.000160163
0.0125864
0.00519117
0.000159976
0.000141369
0.000163711
0.000165158
0.000159111
0.000159701
0.000190349
0.0385964
0.000151265
0.000153964
0.00020087
0.00013011
0.000197271
0.000195772
0.000185172
0.000189525
0.0358176
0.000171961
0.000154585
0.000154355
0.000141322
0.000172858
0.000172552
0.0314189
0.000140943
0.000131384
0.000146059
0.000142622
0.0322563
0.000153383
0.0258281
0.00016621
0.000184401
0.0380507
0.0364104
0.000249191
0.000160404
0.000212726
0.0155803
0.000163595
0.000157086
0.000166416
0.00361821
0.000154417
0.000163715
0.0230986
0.00018584
0.000169455
0.0432728
0.000159958
0.000224711
0.000160557
0.000139269
0.0421213
0.000211679
0.000145945
0.000191121
0.00016059
0.000187203
0.00014759
0.000152223
0.000177593
0.0385849
0.000134269
0.0314054
0.000152463
0.0406538
0.000147812
0.0310841
0.000403524
0.000167587
0.0415556
0.0275575
0.000141896
0.000151229
0.000166567
0.000157906
0.000130365
0.000158341
0.000156255
0.000179749
0.0355767
0.000163792
0.00500987
0.000134416
0.000259448
7.05481e-05
0.000133109
0.000134443
0.0164027
0.00016143
0.000155138
0.0372343
0.000149367
0.000143797
0.000153569
0.000151907
0.000169259
0.0302207
0.000154115
0.000142638
0.000267016
0.000161292
0.000149373
0.000159375
0.0461542
0.000158534
0.000280226
0.0397577
0.00181921
0.0122673
0.0439084
0.000354164
0.000147828
0.000204379
0.000150949
0.025386
0.000145199
0.0427814
0.0292563
0.0415258
0.0402772
0.000159455
0.000154662
0.0529725
0.0222122
0.016129
0.0414258
0.0349321
0.0405866
0.0397805
0.000150626
0.0440893
0.000151026
0.000153042
0.000143971
0.039376
0.000165329
0.000211608
0.040939
0.00781019
0.000191246
0.000145986
0.000159637
0.0471932
0.000150675
0.000139105
0.0453506
0.000144997
0.00379437
0.00014524
8.89913e-05
0.0110453
0.000191283
0.0357942
0.00015636
0.000272147
0.062981
0.000211146
0.0381315
0.000144371
0.00341211
0.00163832
0.000201462
0.0412192
0.000151708
0.000146339
0.0297065
0.000154452
0.0402654
0.0392666
0.000153792
0.0269997
0.00894058
0.00020121
0.0307216
0.0460598
0.00015918
0.000142041
0.00019495
0.023494
0.000174651
0.000161271
0.0467931
0.0339385
0.000147596
0.000163293
0.000156464
0.00376223
0.0341016
0.0507187
0.0444364
0.0440345
0.000163723
0.0149504
0.000150332
0.000184356
0.000154499
0.02266
0.000143237
0.00405725
0.0275103
0.000131672
0.000145774
5.15208e-05
0.000209533
0.00900436
0.000199809
0.0302975
0.000153849
0.000202469
0.000131509
0.0345925
0.000143395
0.0582499
0.000151476
0.000189904
0.000153892
0.0438966
0.0001614
0.0259403
0.000150341
0.0434404
0.0182192
0.000202806
0.000382245
0.0439429
0.000161152
0.000169948
0.0515928
0.000147848
0.000170078
0.000140668
0.000150778
0.000195385
0.000150396
0.000201862
0.000156165
0.0301224
0.00356175
0.000146142
0.0287154
0.000191911
0.000155386
0.00014533
0.0543663
0.000139349
0.00330131
0.000164323
0.000193723
0.000149069
0.000180982
0.000154025
0.000150816
0.000158349
0.0339236
0.0371315
0.000146009
0.000144134
0.000191357
0.0460581
0.0554911
0.000189742
0.000203993
0.000149905
0.000147641
0.0213935
0.000157402
0.0419424
0.000200194
0.0196844
0.040151
0.0416695
0.0410735
0.000198064
0.0130528
0.0455635
0.000150223
0.000153638
0.0316563
0.0216753
0.000153268
0.000162155
0.000188579
0.00013726
0.000141029
0.0397256
0.00014903
0.00014994
0.00792975
0.000165053
0.0387324
0.000148404
0.000196162
0.000144392
0.0231752
0.0518558
0.0226228
0.000196504
0.000148131
0.0314799
0.0515106
0.000195921
0.000149936
0.0369452
0.000147967
0.0226755
0.000185803
0.0492078
0.00450075
0.000237721
0.00014227
0.000209409
0.000150534
0.000211745
0.026404
0.000161133
0.000147809
0.000137386
0.000140828
0.000148917
0.0608469
0.000156477
0.0586505
0.000189793
0.000173864
0.000154101
0.000146429
0.0456167
4.16531e-05
0.000181253
0.000270068
0.000211108
0.000169571
0.000192836
0.0418684
0.0523904
0.000149469
0.000174626
0.000216339
0.000142428
0.000187691
0.000144983
0.000147147
0.000199678
0.020137
0.0356101
0.00430374
0.000149686
0.00806296
0.00014781
0.000165407
0.000169807
0.029923
0.000162007
0.00022092
0.0375158
0.000159448
0.000144083
0.000233609
0.00635311
0.000199829
0.00015958
0.0001531
0.000139474
0.0172923
0.0432037
0.000159292
0.0378341
0.000205082
0.00585614
0.000143962
0.0675244
0.039485
0.000154752
0.000216744
0.000155577
0.000186061
0.000202061
0.0360372
0.000160147
0.00015178
0.0406646
0.000139933
0.00894609
0.0633357
0.000107812
0.0388432
0.000145526
0.0339538
0.000138814
0.00022688
0.000187926
0.000170002
0.000189983
0.000162402
0.0184334
0.000145647
0.0146836
0.000187492
0.000188453
0.0350119
0.000155056
0.000145911
0.000138702
0.0430908
0.0229654
0.0145755
0.000200021
0.00013976
0.000136283
0.000148957
0.000211615
0.000162068
0.0278022
0.04384
0.000118033
0.0397321
0.000238291
0.0316074
0.000156008
0.052472
0.0401922
0.0680282
0.0441549
0.00022742
0.0256548
0.0590298
0.000144949
0.000145479
0.00499404
0.000145346
0.000171226
0.000179861
0.000161822
0.000148839
0.043785
0.000164303
0.000186454
0.000228768
0.000161997
0.000139927
0.044964
0.000205028
0.0671496
0.0199167
0.000161678
0.000200492
0.0130662
0.0375941
0.0686937
0.000143371
0.000188231
0.000153897
0.000214088
0.0441945
0.0264243
0.0409288
0.037934
0.000163995
0.0197185
0.057151
0.000824207
0.00357783
0.000134405
0.0358805
0.0329084
0.0269268
0.000155322
0.0036981
0.000162793
0.000132096
0.0241878
0.000159727
0.0308672
0.000155197
0.00019267
0.000144392
0.000164369
0.000411153
0.000143166
0.000161257
0.000174111
0.000172508
0.000145417
0.000143308
0.000139683
0.000212294
0.00013837
0.0334219
0.00675625
0.000158664
0.0452982
0.000155685
0.0230686
0.000142557
0.00519315
0.000156019
0.0030451
0.000145909
0.000302833
0.0486753
0.000153335
0.000174382
7.9889e-05
0.0496399
0.0245738
0.000178624
0.000188452
0.0411167
0.0520702
0.000231049
0.000136469
0.0475445
0.000134551
0.000212441
0.0158327
0.0424411
0.0416316
0.000146247
0.000152492
0.000136354
0.000156981
0.000250268
0.000159149
0.00510683
0.0333194
0.0154711
0.0553207
0.0163492
0.0182548
0.000212369
0.000161647
0.0329632
0.0502296
0.000143117
0.000202673
0.0214514
0.00245611
0.000163975
0.0261309
0.000162591
0.000192646
0.06715
0.000150407
0.0388077
0.0629387
0.0169548
0.0200383
0.00388378
0.000150758
0.0570726
0.00013782
0.000199986
0.000131817
5.55787e-05
0.00874597
0.000165263
0.000164374
0.0117883
0.000166049
0.00165436
0.00016094
0.000134736
0.000131211
0.0221617
0.000152454
0.000161425
0.000130232
0.000224712
0.0235937
0.000200864
0.000169746
0.0143846
0.00785224
0.000153075
0.00020094
0.000141003
0.000153119
0.000158993
0.000131384
0.000143242
0.00020044
0.0375734
0.00519705
0.000156205
0.000146988
3.6201e-05
0.0366725
0.0160614
0.00022006
0.000200427
0.000207476
0.0244288
0.000151009
0.0531651
0.000155179
0.000207328
0.0639556
0.066552
0.0533043
0.000229573
0.000131173
0.0275186
0.000192129
0.000155761
0.000809107
0.000196027
0.000159532
0.0018066
0.000164861
0.0306712
0.043781
0.000131435
0.000220491
0.0258733
0.0666157
0.000182678
0.00015669
0.0422312
0.000146962
0.000150101
0.000178588
0.000137633
0.0249235
0.0222743
0.000163516
0.000181898
0.000157142
0.000163519
0.00430204
0.000200395
0.00426678
0.000146827
0.0334754
0.000136504
0.000156593
0.0597534
0.0229778
0.0195826
0.0447113
0.000158437
0.0635174
0.000142583
0.000216141
0.0357896
0.0395359
0.0126938
9.95736e-05
0.000148988
0.000162047
0.000210478
0.0311807
0.0138969
0.000164255
0.000147413
0.000200897
0.0409194
0.0327744
0.000159111
0.000157568
0.000142818
0.00149388
0.0199729
0.00299093
0.00398484
0.000287781
0.00707651
0.000143124
0.000157332
0.000145652
0.0412282
0.000207642
0.00018389
0.0163705
0.000143353
0.000163704
0.0187944
0.000181667
0.0156265
0.000148656
0.000136433
0.000131148
0.000183218
0.000208813
0.00171574
0.000202255
0.0282066
0.000192089
0.0376498
0.000159401
0.0523005
0.000153795
0.000187862
0.000148373
0.00682002
0.0400323
0.0185586
0.0234343
0.000150537
0.000144724
0.0337437
0.00389368
0.00622712
0.00697187
0.000156885
0.000145436
0.0259294
0.000184208
0.000188749
0.000154072
0.00391714
0.00444907
0.0288984
0.000145058
0.000175497
0.035259
0.000188988
0.0407557
0.04576
0.000169042
0.000147968
0.047853
0.00022874
0.000190056
0.000150204
0.000163857
0.000143429
0.000212809
0.0422763
0.0139939
0.000146003
0.00014755
0.0155749
0.000145953
0.000146291
0.0384296
0.000130039
0.000165598
0.000146384
0.000231542
0.000151
0.000192243
0.0624981
0.000143916
0.06206
0.000157914
0.0383871
0.000142449
0.000155315
0.0425302
0.0156596
0.0624391
0.000163639
0.0105285
0.000154007
0.000151179
0.0530475
0.000138548
0.000145225
0.000145477
0.000145301
0.061807
0.00015586
0.000158491
0.000240149
0.000134822
0.0599388
0.000161494
0.0298482
0.0001387
0.000206856
0.0488562
0.0211191
0.00518056
0.000152769
0.0458064
0.0066075
0.0507989
0.000141398
0.000186713
0.000167772
0.000150038
0.00014982
0.000143381
0.0383718
0.0410473
0.000167193
0.000200306
0.000154717
0.000189292
0.0112756
0.000209429
0.000158203
0.00016171
0.0242362
0.0424106
0.0001399
0.000141699
0.0386223
0.000183466
0.0512038
0.0349726
0.000183936
0.000164689
0.000158257
0.00437992
0.00014049
0.000150361
0.000187968
0.036764
0.000142766
0.000150732
0.000142212
0.000138197
0.000196745
0.000144875
0.000144174
0.0455972
0.0413674
0.000975694
0.0037699
0.018343
0.000142697
0.000174847
0.0374255
0.000162313
0.00015555
0.0405568
0.000148267
0.000225561
0.0414246
0.000179798
0.00014171
0.000142926
0.000178386
0.000158095
0.000221538
0.000180671
0.000165883
0.00421477
0.00898714
0.000195342
0.000198014
0.000139997
0.0549822
0.00334648
0.000179172
0.044762
0.0395702
0.000142655
0.000199476
0.0225176
0.000147938
0.000165426
0.000163608
0.000156621
0.0242053
0.0543562
0.000194107
0.000170472
0.000145791
0.000153668
0.000142063
0.000158781
0.000157155
0.000156311
0.0258062
0.00906938
0.000158494
0.0156083
0.02895
0.0270272
0.000180088
0.000153275
0.0403452
0.0441822
0.0119568
0.00124423
0.000159848
0.000210351
0.0418669
0.000170357
0.000162103
0.000157545
0.000162849
0.0355419
0.000192792
0.000161869
0.000183219
0.014145
0.0401361
0.00016282
0.00018983
0.0295805
0.000145759
0.000149577
0.000184831
0.000159156
0.000156751
0.000163379
0.0171358
0.000164238
0.0324409
0.0298139
0.000188266
0.000233622
0.000233973
0.00743163
0.000137557
0.000169811
0.000169049
0.0144279
0.000148612
0.0296758
0.046125
0.0274095
0.000145541
0.000248958
0.0361326
0.00020874
0.000189609
0.000172422
0.000190838
0.000163563
0.0221472
0.0318695
0.000156098
0.00224149
0.000149703
0.000160605
0.0300898
0.000353239
0.000149578
0.0142762
0.00013778
0.000143888
0.00702029
0.00590089
0.0416442
0.000150056
0.000188428
0.000190964
0.000153141
0.00548792
0.000144458
0.000213937
0.000166342
0.055758
0.000141557
0.00017956
0.000211494
0.000147117
0.0711612
0.00782818
0.0538015
0.000213724
0.000188828
0.0539934
0.0359704
0.000138525
0.000159248
0.00015547
0.000148632
0.000386084
0.000167361
0.000160251
0.0439849
0.000211405
0.000142954
0.000144184
0.000164501
0.000229331
0.000139968
0.00014406
0.000158847
0.000147377
0.000580673
0.000242093
0.000350373
0.000212931
0.0486558
0.025681
0.0411107
0.0071445
0.000156343
0.00212042
0.0268151
0.00241118
0.000131462
0.000138999
0.000146589
0.00184801
0.0541717
0.000159357
0.00748179
0.000150201
0.000157941
0.000295591
0.00374078
0.000229541
0.000145085
0.000163335
0.000148204
0.000144184
0.000200327
0.000141854
0.000169894
0.000131216
0.0544149
0.000158477
0.000170048
0.00016408
0.0159778
0.0535367
0.000149009
0.00015198
0.000200067
0.000131317
0.00212141
0.000227152
0.000179316
0.000142492
0.000197654
0.000151919
0.000447014
0.000152601
0.0582979
0.0265195
0.000184805
0.0617044
0.0360616
0.000141633
0.000228102
0.0446544
0.0236267
0.00026074
0.000161554
0.0397863
0.0337666
0.0366887
0.000147949
0.000154087
0.000172694
0.000440006
0.000223157
0.000164093
0.020647
0.000259037
0.000156522
0.000164848
0.0294161
0.000316421
0.034107
0.0409721
0.061843
0.000247714
0.000163432
0.000145909
0.0559497
0.0225199
0.0382073
0.000211218
0.000134934
0.0333345
0.000131178
0.000160299
0.00805925
0.000153399
0.0477101
0.000149342
0.000145938
0.000141986
0.000158394
0.000155439
0.00906341
0.000154453
0.0705355
0.00410322
0.000133938
0.000183224
0.0533604
0.040435
0.000150126
0.000161531
0.000139826
0.0685867
0.000144943
0.0048002
0.000166805
0.000145175
0.058057
0.0338778
0.0371589
0.00119786
0.000191017
0.000147851
0.0226367
0.00828918
0.0413997
0.000158218
0.0527391
0.000162151
0.000152814
0.000157592
0.000162159
0.0277049
0.00019968
0.000247823
0.000489746
0.00797337
0.0410136
0.0426654
0.000174174
0.000162577
0.000266741
0.00015051
0.000244943
0.000155959
0.000190039
0.0415083
0.000131434
0.000180267
0.00537257
0.0242841
0.000171296
0.000159023
0.000131832
0.000155474
0.0198725
0.000198351
0.0569874
0.000198349
0.0413658
0.04195
0.0681555
0.0424174
0.00469586
0.000199218
0.0406495
0.00811354
0.0419857
0.000195151
0.000163005
0.00833478
0.000186458
0.00714857
0.0357995
0.00391603
0.000145114
0.0419755
0.0165753
0.0330079
0.0384447
0.000163906
0.000143583
0.000140692
0.0355906
0.000149058
0.000144073
0.000144854
0.000158106
0.000146694
0.0134188
0.000228161
0.0426476
0.000147815
0.0240218
0.000158466
0.0259089
0.000139541
0.056178
0.0353702
0.000148766
0.0014475
0.000135275
0.0363134
0.0593244
0.000185784
0.000156876
0.000143117
0.00015863
0.000208282
0.000201868
0.000160116
0.0199298
0.000193364
0.00335525
0.000195525
0.000433621
0.0161437
0.00017855
0.000195942
0.0296781
0.000190054
0.000178232
0.000151213
0.023503
0.000154633
0.00489379
0.000190218
0.000144181
0.000146131
0.000141114
0.0377912
0.000196318
0.0362286
0.0323064
0.000132224
0.0572436
0.0426208
0.000164437
0.0148431
0.000144176
0.000149395
0.000151388
0.000180205
0.000222207
0.00732881
0.0151842
0.000157175
0.000228757
0.0157028
0.0001438
0.0203617
0.0015226
0.0353032
0.000179518
0.00680707
0.000212367
0.00116564
0.000140231
0.000151669
0.0387105
0.000224531
0.000167923
0.000475499
0.0481841
0.000136018
0.0447555
0.0001538
0.00015708
0.000143819
0.000145847
0.000145021
0.00015823
0.065261
0.0382885
0.0507506
0.000173661
0.000213913
0.0376202
0.000159374
0.0504717
0.0545197
0.00230859
0.000145315
0.000226482
0.000143435
0.0564707
0.0331752
0.000191621
0.022884
0.0459747
0.000213346
0.0224684
0.000135624
0.000150363
0.0270478
0.0067748
0.000155166
0.0237732
0.0452909
0.0370077
0.000141215
0.000229878
0.0544992
0.0473194
0.000133
0.0255078
0.000146968
0.000149799
0.00716541
0.0138222
0.000145402
0.000159895
0.000233243
0.0601443
0.000150245
0.000165928
0.000132742
0.0299881
0.000162598
0.000235217
0.000142697
0.000163648
0.0236573
0.00014967
0.029006
0.000198203
0.000160927
0.0385801
0.00470333
0.0352871
0.000133657
0.000159511
0.0393814
0.00221405
0.00921653
0.000212188
0.000149719
0.000157267
0.000201081
0.000144503
0.0260076
0.0322767
0.000136165
0.0384032
0.000150864
0.0244678
0.0550302
0.000223742
0.00515307
0.000375931
0.0416421
0.0588746
0.000163657
0.000195913
0.000153478
0.0135515
0.00312946
0.000160163
0.000143992
0.000150998
0.000207464
0.0330753
0.0651431
0.0540962
0.000138311
0.000130751
0.0526896
0.00019209
0.000151774
0.0001588
0.0400331
0.0367753
0.000155158
0.000159612
0.000145261
0.000199543
0.000157542
0.000145385
0.000151499
0.000145751
0.0368278
0.0593657
0.0453712
0.0344927
0.00031219
0.000149852
0.000146337
0.000199228
0.000224173
0.0103136
0.000196079
0.00803691
0.0154012
0.000158782
0.000148554
0.000146448
0.000148182
0.000224594
0.00475324
0.0418639
0.000209754
0.000199012
0.000198119
0.00564041
0.00541513
0.0134223
0.000168655
0.000133887
0.000154256
0.000154104
0.000193196
0.0456187
0.000181337
0.00017662
0.000148019
0.000177784
0.000228232
0.000160729
0.000172109
0.000148234
0.000207259
0.057818
0.0275443
0.000191541
0.0235538
0.047699
0.000143958
0.0177835
0.0230399
0.0317665
0.000144853
0.000204121
0.000143417
0.0286824
0.000162597
0.0553878
0.000157527
0.0361503
0.0387358
0.000137786
0.000188155
7.19279e-05
0.0413364
0.00451297
0.000185452
0.0393582
0.000141247
0.0426517
0.000245809
0.00015909
0.000171245
0.000180164
0.0403065
0.00852763
0.00019006
0.0419316
0.000149143
0.000154345
0.000137797
0.000163799
0.000174095
4.5188e-05
0.000154098
0.0164578
0.0315985
0.0347171
0.0531797
0.00020879
0.0285833
0.00021197
0.000180525
0.000154865
0.00015054
0.000203718
0.000230315
0.0502323
0.000148215
0.000153463
0.000131802
0.000160744
0.00014327
0.000245544
0.00365005
0.000144063
0.000143269
0.00014299
0.000210944
0.0574034
0.000136786
0.0503473
0.00014037
0.0345626
0.00267079
0.0032674
0.00393858
0.0223543
0.012204
0.00177662
0.0403639
0.000162897
0.000155004
0.0061357
0.000188239
0.000147417
0.00258066
0.0168766
0.000210974
0.000155414
0.000133904
0.000155807
0.0360965
0.0283809
0.000228189
0.0474172
0.022897
0.000225828
0.0421269
0.0277491
0.0263313
0.000187168
0.000145271
0.000144605
0.000169441
0.000159912
0.00293278
0.0405568
0.000150222
0.000227174
0.0259223
0.000159803
0.000178621
0.000160618
0.00016731
0.00473093
0.0489891
0.000190633
0.000199044
0.000165691
0.000158335
0.000208614
0.0179859
0.000410133
0.000213611
0.0001546
0.00018763
0.000164577
0.000170298
0.000137702
0.000186796
0.000149277
0.000178134
0.000227798
0.0235567
0.000164582
0.0188368
0.000150082
0.0201843
0.00458946
0.000212375
0.000151201
0.000245476
0.000144347
0.000199528
0.00505264
0.0173807
0.00020967
0.0412939
0.0001396
0.0490882
0.0161643
0.00016376
0.000178226
0.0372597
0.000105115
0.000146365
0.000155828
0.000153093
0.000163389
0.0411246
0.000149181
0.0246313
0.000191119
0.000154699
0.000147716
0.0705211
0.00377216
0.000142996
0.0132464
0.0169534
0.00470604
0.000156512
0.000139668
0.0118773
0.0360527
0.000228664
0.000178432
0.000185286
0.0425906
0.00024441
0.000200035
0.00023623
0.000213157
0.000178132
0.00767336
0.000137689
0.000158448
0.0312351
0.000143442
0.0447831
0.000180166
0.000150593
0.000149525
0.0247444
0.000169302
0.000150866
0.000165054
0.000163365
0.011459
0.0318733
0.0227121
0.000185945
0.0273335
0.000188759
0.000146774
0.00870083
0.000184225
0.000163179
0.0410983
0.000149282
0.000131166
0.00017048
0.000153987
0.0269095
0.0401339
0.00016234
0.00767794
0.000159769
0.000163533
0.0162841
0.000183228
0.00381049
0.000186401
0.000143291
0.000157733
0.000209884
0.00016833
0.000185395
0.00021055
0.000190282
0.000174087
0.0139608
0.000355695
0.000158159
0.000184011
0.000218595
0.000211886
0.00015706
0.0111231
0.0011719
0.000178827
0.0143269
0.0375244
0.031781
0.0148671
0.000171647
0.00433769
0.0002251
0.000210989
0.0580356
0.000150788
0.000176983
0.0455276
0.000197491
0.00411922
0.000216708
0.000170798
0.0309247
0.0339922
0.00957189
0.000190172
0.000232255
0.000157544
0.00894617
0.0573467
0.0287732
0.000155456
0.000185661
0.000231051
0.000173386
0.000199569
0.000205194
0.000178916
0.00018387
0.000179563
0.0309977
0.0302189
0.000173785
0.000190389
0.0387543
0.0277161
0.000163836
0.000232935
0.000205643
0.0292073
0.000155004
0.0450647
0.000157344
0.000143885
0.000140709
0.000156618
0.000216367
0.000149641
0.000132038
0.000164422
0.000141339
0.000149186
0.012565
0.000193598
0.028526
0.0316859
0.000175105
0.000191116
0.000199572
0.000151016
0.000150377
0.000143451
0.0130337
0.000186647
0.000141727
0.000149766
0.000160405
0.000179277
0.000175187
0.00116073
0.000180055
0.000143961
0.000184113
0.00330717
0.000160768
0.000153583
0.000164709
0.0375398
0.034449
0.000173637
0.00429382
0.000235739
0.0262203
0.000223227
0.0334453
0.000146926
0.0191549
0.000157313
0.000142
0.000149924
0.000192306
0.000180982
0.000149626
0.000172374
0.000146159
0.000234543
0.000287057
0.000149927
0.000164186
0.000183444
0.0340169
0.000145069
0.0421688
0.000158909
0.0059797
0.000140882
0.000144626
8.74179e-05
0.000156544
0.000166482
0.0001459
0.000146564
0.00370531
0.000194736
0.000164754
0.00013718
0.0390927
0.0151827
0.000159623
0.0317375
0.0426722
0.000173313
0.0321693
0.0339383
0.0360295
0.000148063
0.000208019
0.000162689
0.000208555
0.0354162
0.000150598
0.000230769
0.000150771
0.000208264
0.000162498
0.00396721
0.000165616
0.000165508
0.0295431
0.00425663
0.000228333
0.000204706
0.000151262
0.000196478
0.0380748
0.000163932
0.000214122
0.0149507
0.00015184
0.000144376
0.000149308
0.000208001
0.0233389
0.0299125
0.0327509
0.000146881
0.000208795
0.000144948
0.0459792
0.0318939
0.0228108
0.0294221
0.01142
0.000143027
0.00308203
0.00016699
0.000149032
0.00470173
0.000163218
0.000769603
0.000100136
0.0365362
0.03912
0.000169667
0.00744037
0.00520813
0.0399206
0.000160091
0.000146395
0.0346237
0.000155058
0.0217195
0.000149633
0.000145464
0.000164917
0.0264625
0.000133343
0.0355477
0.0135205
0.000348419
0.000178782
0.0157092
0.00752573
0.0318721
0.0317399
0.0699363
0.065893
0.000221453
0.000142266
0.000199417
0.0198979
0.0366483
0.000183936
0.000144585
0.000140738
0.0227563
0.000233872
0.000169242
0.000212241
0.000142618
0.000141211
0.000251343
0.000159359
0.0157132
0.000143267
0.0532513
0.000185307
0.000148758
0.0248987
0.000190723
0.000210326
0.000143262
0.0299218
0.000214301
0.000164311
0.00019752
0.0184849
0.0283589
0.000151974
0.000176655
0.000163826
0.000173666
0.0100365
0.00828981
0.0110046
0.000136902
0.00021427
0.00794972
0.0552744
0.0308768
0.00962619
0.0141289
0.000141441
0.000182109
0.00234388
0.0484849
0.000244803
0.00774757
0.000145066
0.0584733
0.0121491
0.000148206
0.000164278
0.000191059
0.0356837
0.000149
0.000163982
0.00882034
0.000136299
0.0183252
0.000180087
0.0222631
0.00703679
0.00458126
0.000143388
0.0104781
0.00824313
0.0115251
0.000162092
0.0375056
0.0469249
0.000143391
0.000230177
0.000174761
0.000155567
0.0366701
0.000230268
0.000169028
0.00015791
0.0407208
0.000156294
0.000202322
0.000169528
0.000144108
0.000216908
0.000223275
0.0424334
0.0388649
0.000137537
0.000171084
0.000192271
0.00017732
0.0284773
0.000153097
0.000175047
0.0426874
0.0328292
0.0266024
0.0314823
0.000211431
0.0264397
0.000159319
0.0361577
0.0002013
0.000208874
0.0002155
0.000143778
0.0330565
0.0320443
0.00590181
0.0404593
0.037301
0.000223544
0.00810065
0.0366826
0.0375671
0.0426668
0.012755
0.0422495
0.000248928
0.000156135
0.000176939
0.000147746
0.0134979
0.000159538
0.000150989
0.037013
0.000172778
0.000204449
0.000150556
0.00951141
0.0693087
0.00594086
0.000167907
0.0232203
0.000157658
0.0280818
0.0441054
0.0123423
0.000156448
0.00692532
0.000172233
0.000241456
0.000163461
0.00921
0.000180254
0.000198483
0.015072
0.000157962
0.000161726
0.0342543
0.000144412
0.00014126
0.0176069
0.000223688
0.000172899
0.0395837
0.000149646
0.0543488
0.000156992
0.000172869
0.000154604
0.000176533
0.000151195
0.000164817
0.03991
0.00015434
0.000144798
0.0106453
0.000205259
0.000145158
0.000187847
0.00016066
0.000198646
0.041117
0.000199798
0.0261129
0.0444969
0.000224196
0.0375376
0.00015108
0.000157337
0.000210592
0.0297317
0.0484461
0.01178
0.000183738
0.00308213
0.000157057
0.0269023
0.00330646
0.0141754
0.000185986
0.029972
0.0354201
0.000144273
0.027822
0.000104276
0.000143896
0.000150798
0.0197992
0.000151345
0.000199945
0.000152919
0.000173769
0.000187164
0.000151913
0.000152452
0.00022378
0.0296298
0.000150518
0.0646131
0.00412513
0.000226032
0.0414421
0.0278888
0.000148015
0.0157844
0.000188457
0.000149668
0.0285214
0.000173126
0.000181335
0.00502368
0.000146692
0.000144012
0.00403554
0.00016011
0.0334867
0.000155362
0.000162215
0.000146581
0.00022038
0.0346166
0.0267548
0.000147154
0.00326131
0.0570022
0.000185624
0.000161985
0.0267998
0.000220944
0.000140933
0.00753258
0.0428705
0.000194581
0.000147642
0.000144977
0.000153478
0.00018305
0.00014593
0.000197463
0.0178773
0.000143989
0.0122992
0.0174193
0.035729
0.0362903
0.000170377
0.000247005
0.068785
0.00397
0.000224986
0.0398836
0.021914
0.000149046
0.00357253
0.000149986
0.0426285
0.000143066
0.000186379
0.000147045
0.000409948
0.00182495
0.000155511
0.0220274
0.0365711
0.000162746
0.000202278
0.00018657
0.000161382
0.000187416
0.000209199
0.0267956
0.000159718
7.78966e-05
0.0378201
0.0307424
0.00478541
0.0409092
0.000141022
0.000143586
0.00294872
0.0254692
0.000224729
0.0390585
0.000222687
0.000201784
0.00531286
0.00100459
0.000186028
0.00724152
0.000183702
0.0149493
0.000152591
0.021438
0.000152002
0.000188629
0.000186209
0.0409082
0.000186486
0.0406301
0.000154598
0.000145168
0.0041868
0.0434506
0.0349472
0.0388669
0.000257385
0.0356613
0.000225223
0.000140926
0.0258972
0.000145227
0.022968
0.00957314
0.0246433
0.000205318
0.000207621
0.000229324
0.000224175
0.0412112
0.000154981
0.042062
0.0410627
0.000152331
0.00743468
0.000214625
0.000181849
0.000158854
0.000159393
0.00759482
0.000168714
0.000247383
0.0290305
0.000144677
0.000209017
0.000181912
0.0426673
0.0416683
0.000233941
0.0450844
0.0153313
0.000214719
0.000150783
0.0345607
0.0393816
0.000154034
0.000430739
0.0240115
0.0168565
0.000138211
0.0393252
0.000144735
0.000149518
0.000148625
0.0504063
0.0324524
0.000196998
0.0486933
0.000148217
0.000155441
0.000208778
0.000223872
0.0185996
0.000159136
0.000168143
0.0273181
0.000222719
0.000147073
0.000145801
0.000202217
0.000145705
0.00018712
0.000580873
0.00901934
0.000225596
0.000155602
0.000183608
0.0284398
0.0254447
0.0382792
0.0502037
0.000153979
0.000173991
0.00844437
0.0318709
0.00416926
0.0382408
0.000159706
0.0288729
0.000164572
0.000188067
0.00839615
0.000200825
0.0400942
0.000162902
0.0015874
0.000157885
0.0410721
0.000142444
0.000204447
0.000143964
0.0390357
0.0250448
0.000154201
0.00014705
0.00524839
0.000143161
0.0390341
0.00445443
0.0203631
0.0333666
0.0266309
0.000145834
0.000181165
0.000158603
0.000188563
0.0390606
0.0222389
0.0144489
0.0429946
0.000177718
0.00027041
0.000156255
0.0203161
0.000202172
0.000138848
0.000147871
0.00909336
0.000141451
0.00620577
0.000142089
0.000142096
0.000140861
0.000154218
0.028571
0.000227366
0.000199046
0.000145312
0.000184361
0.000216523
0.0249597
0.000187464
0.000206212
0.000167985
0.00394742
0.000152125
0.000198009
0.00592581
0.0382582
0.0407631
0.00161019
0.000195459
0.000154949
0.000193206
0.000217755
0.0398864
0.000224694
0.040647
0.000141613
0.000191111
0.000185377
0.000144751
0.0286699
0.000201368
0.000144814
0.000159177
0.0145843
0.0158983
0.000156723
0.000146789
0.0379408
0.0308831
0.000162288
0.000212048
0.040598
0.000208858
0.0353533
0.0400572
0.0544116
0.03508
0.0130779
0.000224802
0.0267165
0.000170289
0.00501119
0.018074
0.0548524
0.0563923
0.000172262
0.063082
0.0267304
0.000172968
0.000211512
0.0386766
0.000136031
0.0379354
0.0151089
0.000180572
0.0523317
0.000185864
0.0431025
0.0081816
0.000148087
0.000195982
0.0404446
0.000149044
0.000160073
0.00018798
0.0039576
0.0413725
0.000182634
0.0153307
0.000162681
0.000131616
0.000166207
0.000156817
0.000190573
0.000188128
0.000147052
0.000187895
0.000205091
0.00559599
0.0590956
0.0417649
0.0424053
0.000141961
0.000226773
0.00017463
0.00992604
0.00019395
0.00661464
0.0176445
0.0619104
0.000218188
0.000191372
0.00366852
0.00657479
0.000196321
0.000160343
0.000168585
0.0376604
0.000147545
0.000161751
0.000178127
0.0279046
0.00850881
0.0577406
0.000160293
0.0239174
0.000138699
0.000150034
0.000155947
0.000143764
0.000158133
0.000131369
0.0288302
0.000210444
0.000199392
0.0597171
0.0430942
0.00260945
0.0273441
0.000191657
0.00027939
0.000217118
0.000162029
0.00305061
0.000247467
3.6148e-05
0.00024643
0.000225573
0.0351611
0.000158113
0.026742
0.000142927
0.000157788
0.000162271
0.000149277
0.000153543
0.00991706
0.0584412
0.000186501
0.000148544
0.0434846
0.0273387
0.043386
0.000176427
0.012667
0.000214177
0.0333673
0.000226691
0.000152683
0.0409953
0.000184304
0.000186072
0.000194403
0.0300178
0.00926479
0.0437589
0.000144913
0.00141613
0.000230952
0.0194648
0.0001595
0.000169968
0.000227513
0.000197938
0.0294906
0.0623849
0.000181417
0.025851
0.0448482
0.000198564
0.000188941
0.000220087
0.000197737
0.0314468
0.000168618
0.000229511
0.0705512
0.00015969
0.0462957
0.000141486
0.0617172
0.0413811
0.000158621
0.0213881
0.000218562
0.00018309
0.000225107
0.0360672
0.0560978
0.000203186
0.038033
0.000160304
0.000174473
0.0604087
0.026239
0.000153427
0.0233793
0.0520647
0.000197612
0.00706361
0.00022671
0.0455031
0.000249008
0.000166216
0.044501
0.0348372
0.0319468
0.000144196
0.000165796
0.000227959
0.0410184
0.000186361
0.0570286
0.0293358
0.000228244
0.000149473
0.000143661
0.0315054
0.000147089
0.000183556
0.00017073
0.000233465
0.0332736
0.00671003
0.032618
0.000156912
0.000228616
0.000197325
0.000190973
0.0397019
0.000814094
0.0155959
0.000161338
0.0166169
0.00899712
0.000163675
0.046242
0.000154673
0.0416137
0.000183988
0.0356141
0.000147984
0.000214885
0.000195492
0.000212285
0.0472662