/*--------------------------------*- C++ -*----------------------------------*\
| =========                 |                                                 |
| \\      /  F ield         | OpenFOAM: The Open Source CFD Toolbox           |
|  \\    /   O peration     | Version:  v2012                                 |
|   \\  /    A nd           | Website:  www.openfoam.com                      |
|    \\/     M anipulation  |                                                 |
\*---------------------------------------------------------------------------*/
FoamFile
{
    version     2.0;
    format      ascii;
    class       volScalarField;
    location    "100";
    object      k_0;
}
// * * * * * * * * * * * * * * * * * * * * * * * * * * * * * * * * * * * * * //

dimensions      [0 2 -2 0 0 0 0];


internalField   nonuniform List<scalar> 
14804
(
0.000132606
0.000142202
0.040036
0.000138819
0.00017178
0.000164525
0.0244524
0.000178532
0.000153299
0.000140674
0.000211832
0.0133611
0.00169156
0.0158838
0.0516665
0.000159723
0.0190657
0.0128853
0.000159777
0.000132269
0.000145871
0.000171791
0.000178611
0.000161454
0.0155774
0.0239189
0.0199283
0.000149537
0.0520597
0.0394106
0.041349
0.0191673
0.000166658
0.000178756
0.0532489
0.000139612
0.000141761
0.000161077
0.000194808
0.000131389
4.37877e-05
0.000250584
0.000220795
0.000157651
0.0271841
0.0391061
7.32741e-05
0.000138774
0.000205424
0.000145696
0.000151306
0.000157509
0.000148003
0.000180423
0.000167081
0.000149285
0.0194235
0.0227974
0.0256517
0.00191671
0.022964
0.0502064
0.000131951
0.0001417
0.000160163
0.012587
0.0051952
0.000159977
0.000141368
0.000163712
0.000165158
0.000159113
0.000159702
0.00019035
0.0385953
0.000151266
0.000153964
0.000200871
0.000130109
0.000197286
0.000195789
0.000185106
0.000189526
0.0358183
0.000171961
0.000154586
0.000154355
0.000141322
0.000172858
0.000172553
0.031415
0.000140944
0.000131383
0.00014606
0.000142621
0.0322568
0.000153382
0.0257888
0.00016621
0.000184372
0.0380476
0.0364088
0.000249199
0.000160405
0.000212727
0.0155837
0.000163595
0.000157086
0.000166417
0.00361837
0.000154417
0.000163715
0.0230995
0.000185841
0.000169455
0.0432726
0.000159938
0.00022472
0.000160557
0.000139266
0.0421204
0.00021168
0.000145945
0.000191122
0.00016059
0.000187204
0.000147589
0.000152223
0.000177594
0.0385855
0.000134268
0.0314059
0.000152461
0.0406671
0.000147813
0.0310812
0.000403396
0.000167603
0.0415547
0.0275627
0.000141896
0.000151231
0.000166578
0.000157907
0.000130206
0.000158342
0.000156258
0.000179874
0.0355774
0.000163793
0.00502536
0.000134416
0.000259464
7.03043e-05
0.000133107
0.000134443
0.0164123
0.000161431
0.000155138
0.037235
0.000149367
0.000143797
0.000153569
0.000151908
0.00016926
0.0302197
0.000154115
0.000142638
0.000266693
0.000161292
0.000149374
0.000159375
0.0461537
0.000158533
0.000280328
0.0397585
0.00181868
0.0122678
0.0439076
0.000352574
0.000147828
0.00020438
0.000150949
0.0253739
0.000145199
0.0427808
0.0292528
0.0415265
0.0402881
0.000159455
0.000154663
0.052973
0.0222131
0.0161512
0.0414223
0.0349113
0.0405841
0.0397813
0.000150626
0.0440898
0.000151026
0.000153043
0.000143971
0.0393763
0.00016533
0.000211609
0.0409518
0.0079469
0.000191247
0.000145986
0.000159637
0.0471928
0.000150673
0.000139105
0.045351
0.000144997
0.0037992
0.00014524
8.94122e-05
0.0111494
0.000191282
0.0357727
0.00015636
0.000269502
0.0629821
0.000211147
0.0381322
0.000144371
0.00345944
0.00163716
0.000201463
0.0412158
0.000151709
0.000146339
0.02969
0.000154453
0.0402654
0.0392638
0.000153793
0.0270009
0.00894056
0.000201212
0.0307211
0.0460606
0.000159179
0.000142041
0.000194951
0.0234944
0.000174652
0.000161271
0.0467932
0.0339367
0.000147596
0.000163293
0.000156463
0.00373982
0.0341023
0.050719
0.0444368
0.0440353
0.000163723
0.0149913
0.000150332
0.000185072
0.000154499
0.0226605
0.000143237
0.00402666
0.0275108
0.000131671
0.000145775
5.15725e-05
0.00020953
0.00900427
0.00019981
0.0302735
0.000153849
0.00020247
0.000131508
0.0345702
0.000143396
0.0582506
0.000151477
0.000189905
0.000153892
0.0438974
0.000161401
0.0259408
0.000150341
0.0434412
0.0182197
0.000202807
0.000386508
0.0439433
0.000161153
0.000169949
0.0515932
0.000147848
0.000170078
0.000140668
0.00015079
0.000195385
0.000150397
0.000201863
0.000156165
0.0301185
0.0035447
0.000146142
0.0287153
0.000191923
0.000155385
0.00014533
0.0543665
0.000139349
0.00329903
0.000164321
0.000193736
0.000149069
0.000181128
0.000154025
0.000150827
0.000158349
0.0339235
0.0371419
0.000146009
0.000144135
0.000191356
0.0460579
0.0554916
0.000189743
0.000203981
0.000149905
0.000147641
0.0213939
0.000157401
0.0419432
0.000200194
0.0196848
0.0401503
0.0416703
0.0410742
0.000198084
0.0130529
0.0455632
0.000150222
0.000153638
0.0316566
0.021676
0.000153268
0.000162155
0.00018858
0.000137261
0.000141028
0.0397414
0.000149031
0.000149948
0.00792704
0.000165051
0.0387452
0.000148405
0.000196163
0.000144391
0.0231726
0.051856
0.0226233
0.000196503
0.000148131
0.031469
0.0515109
0.00019592
0.00014994
0.0369459
0.000147966
0.0226522
0.000185703
0.0492076
0.00450098
0.000237532
0.00014227
0.000209411
0.000150533
0.000211518
0.0264043
0.000161133
0.000147808
0.000137385
0.000140828
0.000148917
0.0608479
0.000156476
0.0586512
0.000189794
0.000173865
0.000154101
0.000146429
0.0456175
4.15824e-05
0.000181253
0.000270178
0.000211108
0.000169571
0.000192817
0.0418691
0.0523908
0.000149412
0.000174627
0.000216342
0.000142428
0.000187676
0.000144984
0.000147147
0.000199678
0.0201373
0.0356108
0.00429336
0.000149687
0.00806181
0.00014781
0.000165407
0.000169807
0.0299181
0.000162008
0.000220923
0.0375155
0.000159447
0.000144083
0.000233612
0.00635345
0.00019983
0.000159581
0.0001531
0.000139473
0.0172765
0.0432044
0.000159292
0.0378341
0.000205083
0.00585645
0.000143962
0.0675254
0.0394858
0.000154752
0.000216746
0.000155577
0.000186062
0.000202062
0.0360373
0.000160146
0.000151781
0.0406791
0.000139916
0.00895422
0.0633365
0.000107746
0.0388439
0.000145526
0.0339596
0.000138814
0.000226891
0.000187925
0.000170002
0.000189984
0.000162406
0.0184328
0.000145647
0.0146841
0.000187493
0.000188455
0.0350125
0.000155056
0.000145911
0.000138703
0.0430916
0.0229663
0.0145757
0.000200021
0.000139758
0.000136305
0.000148957
0.000211616
0.000162069
0.0278025
0.0438406
0.000118034
0.0397313
0.000238049
0.0315957
0.000156009
0.0524723
0.0401929
0.0680292
0.0441557
0.00022743
0.0256382
0.0590308
0.000144947
0.000145479
0.00510801
0.000145346
0.000171226
0.000179861
0.000161822
0.000148838
0.0437857
0.000164304
0.000186436
0.000228779
0.000162
0.000139926
0.0449644
0.000205029
0.0671505
0.0198888
0.000161679
0.000200492
0.0130991
0.0375948
0.0686947
0.000143371
0.000188239
0.000153898
0.000214088
0.0441952
0.0264219
0.0409295
0.0379347
0.000164019
0.0197188
0.0571519
0.000825101
0.00358553
0.000134405
0.0358812
0.0328941
0.0269271
0.000155321
0.0037048
0.000162794
0.000132086
0.0241883
0.000159728
0.0308652
0.000155197
0.000192672
0.000144391
0.000164369
0.000411555
0.000143166
0.000161259
0.000174111
0.000172509
0.000145417
0.000143308
0.000139682
0.000212295
0.000138368
0.0334134
0.00675059
0.000158664
0.045299
0.000155684
0.023069
0.000142557
0.00519175
0.000156019
0.00304368
0.00014591
0.000302617
0.048676
0.000153336
0.000174382
7.98259e-05
0.0496401
0.0245744
0.00017865
0.000188453
0.0411321
0.0520705
0.000230417
0.000136468
0.0475451
0.000134551
0.000212442
0.0158063
0.0424418
0.0416323
0.000146247
0.000152492
0.000136354
0.000156981
0.000249698
0.00015915
0.00509792
0.0333326
0.0154693
0.0553216
0.0163495
0.0182552
0.00021237
0.000161648
0.0329635
0.0502299
0.000143118
0.000202664
0.0214519
0.00245411
0.000163975
0.0261388
0.000162592
0.000192646
0.067151
0.000150408
0.0388044
0.0629396
0.0169522
0.0200386
0.00388464
0.000150758
0.0570736
0.000137821
0.000199987
0.000131755
5.55848e-05
0.00874643
0.000165263
0.000164375
0.0117168
0.00016605
0.00166131
0.000160942
0.000134736
0.000131211
0.0221621
0.000152454
0.000161426
0.00013023
0.000224704
0.0235683
0.000200865
0.000169746
0.0143433
0.00786192
0.000153076
0.000200941
0.000141003
0.000153119
0.000158994
0.000131383
0.000143243
0.000200441
0.0375781
0.00519733
0.000156206
0.000146989
3.62538e-05
0.0366523
0.016106
0.000220063
0.000200428
0.000207459
0.0244201
0.000151009
0.0531654
0.000155179
0.000207313
0.0639565
0.066553
0.0533048
0.000231322
0.000131172
0.0275187
0.00019213
0.000155761
0.00081456
0.000196028
0.000159532
0.00178631
0.000164866
0.0306665
0.0437818
0.000131434
0.000220496
0.0258693
0.0666167
0.000182666
0.000156691
0.0422305
0.000146961
0.000150101
0.000178588
0.000137632
0.0249235
0.0222748
0.000163517
0.000181899
0.000157142
0.000163518
0.00429825
0.000200396
0.00426699
0.000146826
0.0334719
0.000136503
0.000156593
0.059754
0.0229782
0.019583
0.0447114
0.000158437
0.0635183
0.000142583
0.000216147
0.0357903
0.0395367
0.0126943
9.95287e-05
0.000148989
0.000162046
0.000210479
0.0311785
0.0139064
0.000164256
0.000147412
0.000200898
0.0409194
0.0327786
0.000159112
0.000157567
0.000142818
0.00147881
0.0199732
0.00305975
0.00395932
0.000287275
0.00707679
0.000143124
0.000157333
0.000145652
0.0412277
0.000207643
0.000183874
0.0163748
0.000143354
0.000163704
0.0187948
0.000181668
0.015627
0.000148656
0.000136433
0.000131147
0.00018322
0.000208815
0.00171415
0.000202256
0.0282072
0.00019209
0.0376657
0.000159402
0.0523009
0.000153795
0.000187844
0.000148373
0.00682031
0.0400293
0.018559
0.0234328
0.000150537
0.000144723
0.0337443
0.00393879
0.00622744
0.00697219
0.000156886
0.000145436
0.0259294
0.000184206
0.00018875
0.000154072
0.00391699
0.00443358
0.0288978
0.000145057
0.000175497
0.0352596
0.000188988
0.0407546
0.0457601
0.000169044
0.000147968
0.0478536
0.000228817
0.000190066
0.000150204
0.000163856
0.000143429
0.000212812
0.0422758
0.0139894
0.000146003
0.00014755
0.0155754
0.000145953
0.000146291
0.0384259
0.000130038
0.000165599
0.000146384
0.000231545
0.000151001
0.000192224
0.062499
0.000143916
0.062061
0.000157915
0.0383867
0.000142449
0.000155316
0.0425309
0.015681
0.06244
0.000163642
0.0105231
0.000154006
0.000151179
0.0530477
0.000138548
0.000145225
0.000145477
0.000145301
0.0618078
0.000155861
0.000158492
0.000240042
0.000134821
0.0599395
0.000161495
0.0298473
0.0001387
0.00020684
0.0488569
0.0211177
0.00520043
0.00015277
0.0458066
0.00660781
0.0507992
0.000141398
0.000186705
0.000167772
0.000150037
0.00014982
0.000143381
0.0383725
0.0410472
0.000167193
0.000200306
0.000154717
0.000189289
0.0112762
0.000209341
0.000158203
0.00016171
0.0242275
0.0424099
0.0001399
0.000141699
0.0386218
0.000183463
0.051204
0.0349721
0.000183941
0.000164689
0.000158257
0.0044169
0.000140489
0.00015036
0.000187969
0.0367647
0.000142766
0.000150733
0.000142211
0.000138197
0.000196746
0.000144873
0.000144174
0.0455978
0.0413638
0.000977043
0.00377786
0.0183432
0.000142697
0.000174847
0.0374262
0.000162314
0.000155551
0.0405566
0.000148266
0.000225562
0.0414244
0.000179799
0.00014171
0.000142926
0.000178337
0.000158096
0.00022154
0.000180626
0.000165884
0.00418373
0.00891267
0.000195342
0.000198014
0.000139997
0.0549827
0.00334125
0.000179172
0.0447628
0.0395665
0.000142655
0.000199476
0.022518
0.000147939
0.000165427
0.000163609
0.000156621
0.0242039
0.0543566
0.000194107
0.000170464
0.000145789
0.000153668
0.000142062
0.00015878
0.000157155
0.000156312
0.0258101
0.00906985
0.000158493
0.0156089
0.0289433
0.0270271
0.000180088
0.000153269
0.0403413
0.0441819
0.0119574
0.00123032
0.000159848
0.000210353
0.0418676
0.000170358
0.000162103
0.000157546
0.00016285
0.0355421
0.000192793
0.00016187
0.000183224
0.0141457
0.040135
0.000162819
0.000189831
0.0295792
0.000145759
0.000149577
0.000184833
0.000159156
0.000156752
0.000163378
0.0171364
0.000164239
0.0324371
0.0298145
0.000188265
0.000233623
0.000233974
0.0074881
0.000137557
0.000169806
0.000169049
0.0144285
0.000148613
0.0296753
0.0461256
0.0274112
0.000145541
0.000248976
0.0361365
0.000208742
0.00018961
0.000172423
0.00019082
0.000163564
0.0221447
0.0318691
0.000156097
0.00223425
0.000149705
0.000160605
0.0300897
0.000351248
0.000149578
0.0142769
0.000137771
0.000143888
0.00709146
0.00590117
0.0416444
0.000150056
0.000188427
0.000190939
0.000153141
0.00548821
0.000144457
0.000213933
0.000166342
0.0557583
0.000141557
0.000179561
0.000211495
0.000147119
0.0711623
0.00782859
0.0538019
0.000213723
0.000188828
0.0539938
0.0359701
0.000138525
0.000159249
0.00015547
0.000148632
0.000386641
0.000167361
0.000160247
0.0439842
0.000211406
0.000142954
0.000144184
0.000164496
0.000229341
0.000139968
0.00014406
0.000158848
0.000147377
0.000575574
0.000242103
0.000350209
0.000212934
0.0486559
0.0256815
0.041125
0.00716508
0.000156343
0.00211178
0.026815
0.00241093
0.000131461
0.000138999
0.000146589
0.00184707
0.0541726
0.000159357
0.0074821
0.000150202
0.000157941
0.000294924
0.00374095
0.000229543
0.000145086
0.000163336
0.000148203
0.000144184
0.000200327
0.000141854
0.000169894
0.000131215
0.0544152
0.000158477
0.000170048
0.000164079
0.0159746
0.0535372
0.000149009
0.000151981
0.000200068
0.000131317
0.00212367
0.000227158
0.000179316
0.000142492
0.000197607
0.000151918
0.000447156
0.000152601
0.0582989
0.0265173
0.000184805
0.0617052
0.0360592
0.000141633
0.000228114
0.0446545
0.0236023
0.000260687
0.000161554
0.0397828
0.0337672
0.0366888
0.000147949
0.000154081
0.000172694
0.000450281
0.000223159
0.000164093
0.020647
0.000258532
0.000156522
0.000164849
0.0294167
0.000315859
0.0341077
0.0409686
0.061844
0.000247716
0.000163436
0.000145907
0.0559502
0.0225204
0.038207
0.000211219
0.000134932
0.0333383
0.000131177
0.000160299
0.00805961
0.000153399
0.0477105
0.000149343
0.000145938
0.000141985
0.000158394
0.000155438
0.00907853
0.000154454
0.0705365
0.00412079
0.000133935
0.000183225
0.0533608
0.0404334
0.000150127
0.00016153
0.000139827
0.0685876
0.000144943
0.00479774
0.000166806
0.000145175
0.0580579
0.0338779
0.0371565
0.00122227
0.000191018
0.000147851
0.0226436
0.00828954
0.0413996
0.000158218
0.05274
0.000162152
0.000152814
0.000157593
0.00016216
0.0277042
0.00019968
0.000247823
0.000488508
0.00800133
0.0410125
0.0426656
0.000174174
0.000162578
0.000266976
0.000150511
0.000244937
0.000155959
0.00019004
0.0415049
0.000131433
0.000180277
0.00537743
0.0242843
0.000171287
0.000159023
0.000131831
0.000155474
0.0198678
0.000198346
0.0569884
0.00019835
0.0413623
0.0419492
0.0681565
0.0424172
0.00473217
0.000199213
0.0406502
0.00812353
0.0419847
0.000195147
0.000163005
0.00833285
0.00018646
0.00714894
0.0357999
0.00394889
0.000145114
0.0419745
0.0165751
0.0330115
0.0384435
0.000163863
0.000143581
0.000140692
0.0355909
0.000149058
0.000144074
0.000144854
0.000158106
0.000146692
0.0134194
0.000228165
0.042647
0.000147815
0.0240027
0.000158467
0.0259103
0.000139541
0.0561784
0.0353694
0.000148766
0.00145191
0.000135272
0.0363141
0.0593251
0.000185789
0.000156877
0.000143117
0.000158631
0.000208283
0.000201869
0.000160101
0.0199301
0.000193365
0.00334975
0.000195526
0.00043352
0.0161444
0.000178563
0.000195912
0.0296779
0.000190055
0.000178233
0.000151213
0.0235007
0.000154634
0.00486994
0.000190219
0.000144181
0.000146131
0.000141115
0.037791
0.000196318
0.0362293
0.0323055
0.000132222
0.0572442
0.0426216
0.000164437
0.0148716
0.000144176
0.000149395
0.000151388
0.000180189
0.00022221
0.0073292
0.0151846
0.000157175
0.000228763
0.0157003
0.0001438
0.0203602
0.00152567
0.0352995
0.000179518
0.00680743
0.000212368
0.00117053
0.000140231
0.000151668
0.0387112
0.000224532
0.000167924
0.000469805
0.0481846
0.000136016
0.0447553
0.000153797
0.000157081
0.000143819
0.000145847
0.000145017
0.000158231
0.065262
0.0382893
0.0507512
0.000173662
0.000213907
0.0376209
0.000159376
0.0504723
0.0545202
0.00230857
0.000145315
0.000226484
0.000143435
0.0564717
0.033174
0.000191622
0.0228841
0.045975
0.000213344
0.0224685
0.000135621
0.000150364
0.0270483
0.00677516
0.000155167
0.0237733
0.0452912
0.0370081
0.000141215
0.000229887
0.0544998
0.0473201
0.000132999
0.0255071
0.000146968
0.000149799
0.00716578
0.0138707
0.000145402
0.000159896
0.000233244
0.0601453
0.000150245
0.000165928
0.000132742
0.0299784
0.000162598
0.000234852
0.000142697
0.000163649
0.0236565
0.000149669
0.0290003
0.000198204
0.000160927
0.0385808
0.00470356
0.035285
0.000133655
0.000159511
0.0393799
0.00221413
0.00921698
0.00021219
0.000149719
0.000157267
0.000201082
0.000144503
0.0260066
0.0322774
0.000136165
0.0384009
0.000150864
0.0244702
0.0550311
0.000223743
0.00515333
0.000374945
0.0416428
0.0588753
0.000163662
0.000195934
0.000153479
0.0135453
0.00313136
0.000160163
0.000143992
0.000150999
0.00020745
0.0330734
0.0651439
0.0540965
0.00013831
0.000130749
0.05269
0.000192088
0.000151774
0.000158799
0.0400335
0.0367719
0.000155158
0.000159611
0.000145261
0.000199538
0.000157542
0.000145385
0.000151499
0.000145751
0.0368281
0.0593667
0.045372
0.0344916
0.000311333
0.000149852
0.000146337
0.000199229
0.000224174
0.0102224
0.000196076
0.00803733
0.0153884
0.000158783
0.000148554
0.000146448
0.000148182
0.000224595
0.00471351
0.041863
0.000209755
0.000199013
0.00019812
0.00564072
0.00541543
0.0134143
0.000168656
0.000133885
0.000154256
0.000154105
0.000193181
0.0456191
0.000181342
0.00017662
0.00014802
0.000177784
0.000228242
0.000160729
0.000172059
0.000148234
0.000207134
0.0578186
0.0275705
0.000191542
0.0235541
0.0476998
0.000143958
0.0177839
0.0230403
0.0317514
0.000144853
0.000204122
0.000143417
0.028683
0.000162598
0.0553884
0.000157528
0.0361482
0.0387361
0.000137786
0.000188156
7.19052e-05
0.0413452
0.00451321
0.000185453
0.0393589
0.000141247
0.042651
0.000245836
0.000159089
0.000171245
0.000180165
0.0403072
0.00852804
0.000190061
0.0419306
0.000149144
0.000154345
0.000137797
0.000163798
0.000174096
4.52177e-05
0.000154115
0.0164585
0.0315985
0.0347178
0.0531799
0.000208791
0.0285835
0.000211971
0.000180526
0.000154865
0.00015054
0.000203718
0.000230316
0.0502331
0.000148216
0.000153464
0.000131802
0.000160743
0.000143271
0.000245545
0.00362573
0.000144063
0.000143269
0.00014299
0.000210945
0.057404
0.000136783
0.0503475
0.00014037
0.0345617
0.00267093
0.00326825
0.00394453
0.0223542
0.0122195
0.00177632
0.0403606
0.000162898
0.000155027
0.00608032
0.00018824
0.000147418
0.00259626
0.0168774
0.000210975
0.000155414
0.000133901
0.000155807
0.0360976
0.0283804
0.000228191
0.0474173
0.0228975
0.000225688
0.042127
0.0277496
0.0263314
0.000187168
0.000145271
0.000144605
0.000169445
0.000159913
0.00293663
0.0405551
0.000150222
0.000227174
0.0259218
0.000159803
0.000178621
0.000160618
0.00016731
0.00475061
0.0489898
0.000190634
0.000199045
0.000165691
0.000158335
0.000208615
0.0180547
0.000409171
0.000213612
0.000154599
0.000187631
0.000164577
0.000170297
0.000137702
0.000186797
0.000149278
0.000178134
0.000227799
0.0235574
0.000164581
0.0188372
0.000150084
0.0201867
0.00460941
0.000212379
0.000151202
0.000245483
0.000144348
0.000199529
0.00502474
0.0173772
0.000209666
0.0412908
0.0001396
0.0490882
0.0161379
0.000163761
0.000178226
0.0372604
0.000105115
0.000146365
0.000155829
0.000153093
0.000163352
0.041125
0.000149182
0.0246312
0.000191118
0.000154699
0.000147717
0.0705221
0.00377216
0.000142996
0.013243
0.0169538
0.00470112
0.000156513
0.000139665
0.0118927
0.0360521
0.000228664
0.000178435
0.000185287
0.042591
0.000244416
0.000200035
0.000236614
0.000213157
0.000178133
0.00767367
0.000137689
0.000158484
0.0312353
0.000143442
0.0447837
0.000180167
0.000150593
0.000149526
0.024745
0.000169303
0.000150865
0.000165057
0.000163365
0.0114564
0.0318723
0.0227125
0.000185932
0.0273599
0.000188759
0.000146774
0.00870122
0.000184226
0.00016318
0.0410971
0.000149282
0.000131165
0.000170484
0.000153987
0.0269152
0.0401345
0.000162341
0.00767828
0.000159769
0.000163529
0.0162845
0.000183215
0.00379768
0.000186402
0.000143291
0.000157733
0.000209761
0.000168331
0.000185396
0.000210551
0.000190283
0.000174088
0.0139378
0.000355703
0.000158159
0.000184041
0.000218582
0.000211889
0.00015706
0.011123
0.0011733
0.000178828
0.0143187
0.0375232
0.0317812
0.0148676
0.000171647
0.00433788
0.000225102
0.00021099
0.0580366
0.000150787
0.000176994
0.0455272
0.000197491
0.00413995
0.00021671
0.000170799
0.0309248
0.0339925
0.00957236
0.000190124
0.000232261
0.000157545
0.00888407
0.0573473
0.0287734
0.000155456
0.000185662
0.000231053
0.000173377
0.00019957
0.00020519
0.000178917
0.000183871
0.000179563
0.0310007
0.0302203
0.000173793
0.000190389
0.0387531
0.0277159
0.000163836
0.00023359
0.000205645
0.0292072
0.000155002
0.0450648
0.000157345
0.000143885
0.000140709
0.000156619
0.000216371
0.000149641
0.000132037
0.000164422
0.00014134
0.000149187
0.0126558
0.000193595
0.0285265
0.0316843
0.00017509
0.000191117
0.000199573
0.000151025
0.000150377
0.000143451
0.0130303
0.000186663
0.000141726
0.000149767
0.000160406
0.000179277
0.000175188
0.00118068
0.000180056
0.000143961
0.000184004
0.00342039
0.00016077
0.000153583
0.00016471
0.0375394
0.0344484
0.000173638
0.0043083
0.000238457
0.0262208
0.00022323
0.033446
0.000146926
0.019155
0.000157314
0.000142
0.000149924
0.000192305
0.000180983
0.000149625
0.000172374
0.000146157
0.000234545
0.000290514
0.000149924
0.000164186
0.000183445
0.0339918
0.000145069
0.0421678
0.000158908
0.00598002
0.000140882
0.000144626
8.74278e-05
0.000156545
0.000166482
0.000145898
0.000146564
0.00370551
0.000194748
0.000164755
0.00013718
0.0391049
0.0151904
0.000159627
0.0317376
0.0426718
0.000173365
0.032168
0.0339352
0.0360307
0.000148061
0.000208019
0.00016269
0.000208556
0.0354169
0.000150598
0.000230782
0.000150771
0.000208265
0.000162498
0.00396107
0.000165617
0.00016551
0.0295437
0.00425686
0.000228346
0.000204708
0.000151262
0.000196143
0.0380734
0.000163994
0.00021412
0.0149514
0.000150523
0.000144376
0.000149308
0.000208003
0.0233406
0.0299132
0.0327487
0.000146881
0.000208796
0.000144948
0.0459792
0.031909
0.0228112
0.0294221
0.0114205
0.000143028
0.00308883
0.000166991
0.000149033
0.00470421
0.000163219
0.000769113
0.000100133
0.0365415
0.0391197
0.000169668
0.00744071
0.00520841
0.0399214
0.000160092
0.000146396
0.0346244
0.000155058
0.0217198
0.000149631
0.000145464
0.000164916
0.0264694
0.000133342
0.035547
0.0135204
0.000347729
0.000178783
0.0157315
0.00752613
0.0318653
0.0317399
0.0699373
0.0658939
0.000221454
0.000142266
0.000199418
0.0198982
0.0366486
0.000183963
0.000144585
0.000140738
0.0227561
0.000233873
0.000169243
0.000212242
0.000142619
0.000141211
0.000251325
0.000159359
0.0157131
0.000143267
0.0532521
0.000185305
0.000148758
0.0248975
0.000190724
0.00021031
0.000143262
0.0299165
0.000214302
0.000164309
0.000197487
0.0184922
0.0283561
0.000151975
0.000176652
0.000163826
0.000173667
0.010037
0.00829388
0.0110051
0.000136902
0.000214272
0.00795161
0.0552748
0.0308774
0.00968939
0.0141287
0.000141441
0.00018211
0.00233765
0.0484854
0.000244797
0.00774798
0.000145066
0.0584739
0.0121496
0.000148207
0.000164276
0.00019106
0.0356892
0.000149001
0.000163981
0.00882075
0.000136297
0.0183256
0.00018009
0.022262
0.00703716
0.0045815
0.000143388
0.0104786
0.00824357
0.0115257
0.000162093
0.0375046
0.0469255
0.000143392
0.000230176
0.000174763
0.000155568
0.0366707
0.000230271
0.000169029
0.000157911
0.0407171
0.000156292
0.000202279
0.000169528
0.000144108
0.000216912
0.000223277
0.0424328
0.0388641
0.000137535
0.000171084
0.000192302
0.000177316
0.028474
0.000153098
0.000175047
0.0426865
0.0328295
0.0266029
0.0314826
0.000211432
0.0264449
0.00015932
0.0361554
0.000201302
0.000208877
0.000215502
0.000143778
0.0330572
0.0320465
0.00590212
0.0404587
0.0373016
0.00022331
0.00810099
0.0366833
0.0375673
0.0426666
0.0127556
0.0422503
0.000248927
0.000156138
0.000176939
0.000147747
0.0134984
0.00015954
0.000150989
0.0370137
0.000172779
0.00020445
0.000150555
0.00951189
0.0693097
0.00594117
0.000167904
0.0232217
0.00015766
0.0280824
0.0441062
0.0123531
0.000156448
0.0069257
0.000172234
0.000241362
0.000163461
0.00921043
0.000180254
0.000198484
0.0150725
0.000157962
0.000161698
0.034255
0.000144413
0.00014126
0.0176073
0.000223689
0.000172899
0.0395841
0.000149647
0.0543497
0.00015699
0.000172871
0.000154604
0.000176531
0.000151196
0.000164847
0.0399106
0.000154337
0.000144799
0.0106899
0.000205261
0.000145157
0.000187846
0.00016066
0.000198647
0.0411135
0.000199799
0.0261134
0.0444977
0.000224197
0.0375489
0.000151079
0.000157337
0.000210594
0.0297419
0.0484466
0.01178
0.000183738
0.00308063
0.000157058
0.026902
0.00329124
0.014176
0.000185986
0.0299717
0.0354198
0.000144273
0.0278226
0.000104849
0.000143895
0.000150798
0.0197996
0.000151345
0.000199945
0.000152919
0.00017377
0.000187165
0.000151913
0.000152452
0.000223782
0.02963
0.000150519
0.064614
0.00411917
0.000226033
0.0414412
0.0278893
0.000148016
0.015785
0.000188467
0.000149668
0.028522
0.000173132
0.000181335
0.00502395
0.000146692
0.00014401
0.00404534
0.000160116
0.0334873
0.000155362
0.000162216
0.000146581
0.000220277
0.0346172
0.0267551
0.000147155
0.00325897
0.0570029
0.000185601
0.000161985
0.0268017
0.000220945
0.000140933
0.00753299
0.0428713
0.000194602
0.000147643
0.000144977
0.000153479
0.00018305
0.000145931
0.000197464
0.0178772
0.000143989
0.0122959
0.0174193
0.035729
0.0362874
0.000170377
0.000247007
0.068786
0.00397333
0.000224999
0.0398874
0.0219128
0.000149046
0.00357975
0.000149986
0.0426291
0.000143067
0.00018638
0.000147045
0.000410788
0.00182253
0.000155512
0.0220279
0.0365674
0.000162746
0.000202279
0.00018657
0.000161358
0.000187417
0.0002092
0.0267933
0.000159723
7.79373e-05
0.0378172
0.0307341
0.00478783
0.0409099
0.000141022
0.000143586
0.00293471
0.0254681
0.000224728
0.0390565
0.000222689
0.000201803
0.0053238
0.00102899
0.000186033
0.00733295
0.000183703
0.0149497
0.000152591
0.021438
0.000152003
0.000188628
0.00018621
0.0409053
0.000186493
0.0406288
0.000154599
0.000145168
0.00420443
0.0434509
0.0349463
0.0388828
0.000257328
0.0356616
0.000225224
0.000140926
0.0258977
0.000145227
0.0229671
0.00957357
0.0246433
0.00020529
0.000207622
0.000229327
0.000224176
0.0412119
0.000154981
0.042061
0.0410633
0.000152331
0.00743509
0.000214629
0.000181787
0.000158855
0.000159398
0.00759188
0.00016871
0.000247396
0.0290298
0.000144677
0.000209019
0.000181914
0.0426677
0.0416685
0.000233762
0.0450852
0.0153316
0.000214711
0.000150784
0.0345578
0.0393823
0.000154034
0.000429854
0.0240115
0.0168571
0.000138211
0.0393256
0.000144735
0.000149518
0.000148626
0.050407
0.032453
0.000196999
0.0486937
0.000148218
0.000155442
0.000208779
0.000223874
0.0186
0.000159136
0.000168143
0.0273186
0.00022272
0.000147071
0.000145801
0.000202212
0.000145705
0.000187121
0.000597973
0.00901973
0.000225598
0.000155604
0.000183609
0.0284401
0.0254414
0.0382799
0.0502039
0.000153979
0.000173998
0.00845031
0.0318692
0.0041771
0.0382407
0.000159706
0.0288699
0.000164572
0.000188066
0.00839649
0.000200826
0.0400949
0.000162903
0.00158666
0.000157883
0.0410712
0.000142444
0.000204448
0.000143964
0.0390364
0.0250087
0.000154201
0.000147065
0.00524865
0.000143161
0.0390348
0.00445431
0.0203264
0.033363
0.0266323
0.000145835
0.000181165
0.000158603
0.000188564
0.0390592
0.0222394
0.0145024
0.0429953
0.000177721
0.000271038
0.000156255
0.020316
0.000202173
0.000138848
0.000147871
0.00909953
0.000141451
0.0062061
0.00014209
0.000142097
0.00014086
0.00015425
0.0285706
0.000227366
0.000199032
0.000145312
0.000184345
0.000216526
0.0249591
0.000187465
0.000206211
0.000167986
0.00394473
0.000152123
0.00019801
0.00588159
0.0382588
0.0407639
0.00161364
0.00019546
0.00015495
0.000193206
0.000217757
0.0398903
0.000224695
0.0406477
0.000141613
0.00019113
0.000185378
0.000144751
0.0286693
0.000201369
0.000144814
0.000159178
0.0145847
0.0158988
0.000156723
0.000146787
0.0379384
0.0308971
0.000162289
0.000212049
0.0405984
0.000208861
0.0353534
0.0400559
0.0544118
0.0350782
0.0130782
0.000224803
0.0267163
0.000170284
0.00508427
0.018078
0.0548529
0.0563926
0.000172263
0.0630827
0.0267299
0.000172885
0.000213143
0.0386773
0.00013596
0.0379361
0.0151096
0.000180564
0.0523318
0.000185863
0.0431032
0.00818199
0.000148087
0.000195983
0.0404453
0.000149043
0.000160074
0.000187981
0.00396157
0.0413733
0.000182635
0.0153279
0.000162682
0.000131615
0.000166207
0.000156818
0.000190574
0.000188129
0.000147052
0.000187896
0.000205092
0.00559628
0.0590962
0.0417657
0.0424061
0.000141961
0.000226774
0.000174639
0.00990876
0.00019395
0.00662235
0.0176449
0.0619113
0.000218189
0.000191373
0.00366866
0.00657513
0.000196321
0.000160344
0.000168586
0.0376607
0.000147545
0.000161751
0.000178124
0.0279042
0.00850926
0.0577411
0.000160293
0.0239179
0.000138699
0.000150033
0.000155947
0.000143764
0.000158134
0.000131306
0.0288304
0.000210444
0.000199393
0.0597177
0.043095
0.00259766
0.0273607
0.000191658
0.00027891
0.000217122
0.00016203
0.00304894
0.000247491
3.6179e-05
0.000246325
0.000225574
0.0351578
0.000158113
0.0267412
0.000142927
0.000157788
0.000162271
0.000149303
0.000153543
0.00991755
0.0584417
0.000186502
0.000148544
0.0434853
0.0273388
0.0433868
0.000176427
0.0126673
0.000214314
0.033368
0.000226692
0.000152681
0.0409958
0.000184304
0.000186073
0.000194404
0.030018
0.00926527
0.0437597
0.000144913
0.0014226
0.000230966
0.0194646
0.0001595
0.000169968
0.000227514
0.000197938
0.0294909
0.0623857
0.000181417
0.0258515
0.044849
0.000198565
0.000188942
0.000220088
0.000197738
0.0314432
0.000168619
0.000229513
0.0705523
0.000159691
0.0462962
0.000141486
0.0617179
0.041381
0.000158621
0.0213879
0.000218564
0.000183083
0.000225108
0.0360678
0.0560987
0.000203095
0.0380364
0.000160304
0.000174473
0.0604093
0.0262627
0.000153427
0.0233792
0.0520653
0.000197612
0.00706399
0.000226722
0.0455039
0.000249008
0.000166217
0.0445012
0.0348374
0.0319466
0.000144196
0.000165796
0.00022796
0.0410284
0.000186362
0.0570295
0.0293379
0.000228245
0.000149474
0.000143662
0.0315063
0.00014709
0.000183556
0.000170731
0.000233549
0.0332653
0.00682628
0.0326178
0.000156913
0.000228617
0.000197326
0.000190985
0.0397026
0.00081714
0.0156511
0.000161338
0.0166177
0.00900189
0.000163676
0.0462428
0.000154673
0.0416119
0.000183989
0.0356126
0.000147984
0.000214887