/*--------------------------------*- C++ -*----------------------------------*\
| =========                 |                                                 |
| \\      /  F ield         | OpenFOAM: The Open Source CFD Toolbox           |
|  \\    /   O peration     | Version:  v2012                                 |
|   \\  /    A nd           | Website:  www.openfoam.com                      |
|    \\/     M anipulation  |                                                 |
\*---------------------------------------------------------------------------*/
FoamFile
{
    version     2.0;
    format      ascii;
    class       volScalarField;
    location    "100";
    object      nut;
}
// * * * * * * * * * * * * * * * * * * * * * * * * * * * * * * * * * * * * * //

dimensions      [0 2 -1 0 0 0 0];


internalField   nonuniform List<scalar> 
14804
(
0.00588327
0.00592366
0.0142501
0.00587703
0.00153812
0.0055231
0.00652827
0.00200768
0.00554235
0.0060431
0.0049241
0.00917351
0.00845909
0.0120969
0.0226678
0.00450924
0.00312059
0.00975395
0.00408327
0.00587274
0.00606046
0.00180435
0.00414439
0.00464775
0.020743
0.0063822
0.00395032
0.00605511
0.0227119
0.0194215
0.0263376
0.00314664
0.00234946
0.00170095
0.0138815
0.00589465
0.00586788
0.00484184
0.00096968
0.00585676
0.000139235
0.00121229
0.00146399
0.00321423
0.0204642
0.024702
0.00022387
0.00587557
0.00220434
0.00606095
0.0060675
0.0060207
0.00595017
0.00401073
0.00233755
0.00605417
0.00377606
0.00493732
0.0256798
0.00920416
0.00500535
0.015558
0.00587014
0.00592289
0.00244889
0.00883738
0.0121555
0.00545477
0.00603909
0.00557074
0.00352135
0.00553386
0.0024669
0.00177928
0.0134948
0.00606969
0.00605253
0.00207982
0.00584829
0.00260073
0.00273324
0.00497038
0.00158208
0.0162318
0.0063168
0.00605867
0.00604452
0.0059122
0.00219175
0.00202806
0.0162417
0.00590443
0.00585615
0.00592911
0.0060083
0.0151225
0.00599935
0.019006
0.00478831
0.0049489
0.0242688
0.0158961
0.00129253
0.00233741
0.00164834
0.0213684
0.0055855
0.00604171
0.0045285
0.0013486
0.00601166
0.00556872
0.00760138
0.00168938
0.00289832
0.0141205
0.000326673
0.00141471
0.00478496
0.0060207
0.0151825
0.00177069
0.00592621
0.00176652
0.00444015
0.00181945
0.00598093
0.00611096
0.00174778
0.0189353
0.00586824
0.0147273
0.00562301
0.027571
0.00596465
0.0165724
0.000488463
0.00484794
0.0150359
0.0256686
0.00587015
0.00569497
0.00491474
0.00300439
0.000342971
0.00575915
0.000744187
0.000901622
0.0155651
0.00555901
0.011828
0.00586917
0.00144793
0.000126965
0.00589561
0.00586754
0.0210808
0.00276201
0.00606103
0.0167279
0.00603535
0.00606798
0.006131
0.00561985
0.00249088
0.0188882
0.00610343
0.00599801
0.00429747
0.0026181
0.00603696
0.00273975
0.0172271
0.00572926
0.000535416
0.0176936
0.00142395
0.00837305
0.016736
0.00473139
0.00597941
0.00226882
0.00603627
0.0255147
0.00606041
0.0146775
0.0153696
0.0182547
0.0280421
0.00616906
0.00602371
0.0147018
0.0131212
0.0205684
0.0230278
0.0244113
0.0203261
0.0172283
0.00602789
0.0210824
0.00604706
0.00608077
0.00605518
0.0131216
0.0054648
0.00180027
0.0269645
0.0109624
0.00176817
0.00593069
0.00610498
0.0157856
0.00578008
0.00588446
0.0212426
0.00587169
0.0146228
0.00587701
0.000328356
0.0148618
0.00323937
0.0273849
0.00601598
0.00417346
0.0243739
0.00181353
0.0166896
0.00586312
0.00940392
0.00137061
0.00209743
0.0230185
0.006055
0.00593747
0.0248174
0.00606014
0.0119307
0.0195736
0.00603187
0.0253169
0.00292881
0.00242335
0.0196234
0.0195789
0.00601302
0.00592479
0.00259314
0.00521132
0.00200823
0.00202732
0.0157272
0.0149751
0.00599332
0.00550177
0.00600693
0.0103676
0.0150532
0.0148325
0.021078
0.0185377
0.00545325
0.0195489
0.00598466
0.00375422
0.00603136
0.00577194
0.00586854
0.0107587
0.0104914
0.00586132
0.00591948
0.000223562
0.000803012
0.00268964
0.00163502
0.0240156
0.00604314
0.00188025
0.0058607
0.0272888
0.00587102
0.0222571
0.00605524
0.00276755
0.00603654
0.0190433
0.00454885
0.00726524
0.0060542
0.0188834
0.00337172
0.00186772
0.00471589
0.0139668
0.0049945
0.00308977
0.0146661
0.0059308
0.00170236
0.00593632
0.00568347
0.00293712
0.00605715
0.00227609
0.00603633
0.0202766
0.00995006
0.00593708
0.0148892
0.00308623
0.00601826
0.00588066
0.0188112
0.00588938
0.00207974
0.00632618
0.00294447
0.00602183
0.000758995
0.00607625
0.00568545
0.00433767
0.0120659
0.0268986
0.00592507
0.00603099
0.00320603
0.0154195
0.0167634
0.00130543
0.00223298
0.00608878
0.00592557
0.00454048
0.0057587
0.0179839
0.00134514
0.0035743
0.0144067
0.0178576
0.0180606
0.00111043
0.00595025
0.0153113
0.0058117
0.00605526
0.0161035
0.0126102
0.00606081
0.00510132
0.00184458
0.00598609
0.00594743
0.0250298
0.00608713
0.00576815
0.00483131
0.00605529
0.0272515
0.00595036
0.00273041
0.00595416
0.010554
0.0212304
0.00512569
0.00285031
0.005945
0.0170937
0.0213967
0.00279508
0.00578603
0.016609
0.00592747
0.0239872
0.00494603
0.0180862
0.00168237
0.00487795
0.00585633
0.0019256
0.00598144
0.004989
0.0110759
0.00207933
0.00594825
0.00591063
0.00594403
0.00608572
0.0242206
0.00601548
0.0213412
0.00330421
0.00162484
0.00608217
0.00594237
0.0194553
9.5825e-05
0.00149157
0.0008094
0.00141575
0.00217532
0.00296054
0.0183739
0.0146074
0.000618454
0.001889
0.00160747
0.00594702
0.00334129
0.00605122
0.00595302
0.00148103
0.00347932
0.0156648
0.0113065
0.00609938
0.00661569
0.00598032
0.00317495
0.00253946
0.0200886
0.00491099
0.00148632
0.0203621
0.00564925
0.00585188
0.00130045
0.0052744
0.00144154
0.0042082
0.00607399
0.00602805
0.0183417
0.0207804
0.00589312
0.0203152
0.00186057
0.00484108
0.00585155
0.0231136
0.0170636
0.00598835
0.00159085
0.00600554
0.00207446
0.00237434
0.0271457
0.00557364
0.0060635
0.0273307
0.000675702
0.00792322
0.0204466
0.000295228
0.0172892
0.00594612
0.0254153
0.00589006
0.00141674
0.00347888
0.00332276
0.00130145
0.00543033
0.0117699
0.00591365
0.00551285
0.00251636
0.00340098
0.0159143
0.00603632
0.00592003
0.00587372
0.0187622
0.0070455
0.00616699
0.00137875
0.0060288
0.00060786
0.0058612
0.00177198
0.00570288
0.0119022
0.0211205
0.000609581
0.0139953
0.00482641
0.0168044
0.00311327
0.0213193
0.017412
0.0209038
0.0190983
0.00135641
0.0259817
0.0238315
0.00607096
0.00604934
0.0100226
0.00606031
0.00179416
0.00159929
0.00551495
0.00588011
0.0184422
0.0055459
0.00336367
0.00135587
0.0054684
0.00603506
0.013627
0.00184988
0.0202187
0.0214404
0.00523791
0.00131923
0.0112901
0.016853
0.0205366
0.00586634
0.00340101
0.00604791
0.00145743
0.0211335
0.0120005
0.0180366
0.0169676
0.000849064
0.0048719
0.0235365
0.000657754
0.0114519
0.00586789
0.0157361
0.0218293
0.0261597
0.00601433
0.0117594
0.00545721
0.000369903
0.00779347
0.00586127
0.0187683
0.0059639
0.00302987
0.00591157
0.00554006
0.000436508
0.00591052
0.00570242
0.00634873
0.0063216
0.00596611
0.00586322
0.005904
0.00157335
0.00597064
0.0221491
0.00633741
0.00592495
0.0193737
0.00600575
0.00515353
0.00588505
0.00421493
0.00604582
0.0018793
0.00605542
0.00063672
0.022073
0.00605325
0.00160632
0.000125978
0.0155334
0.00789415
0.00412016
0.00167775
0.0265944
0.0214995
0.00460189
0.00589801
0.0217882
0.00592701
0.00174832
0.0158851
0.0181928
0.0179073
0.00589868
0.00594574
0.00587208
0.00598507
0.00466303
0.00590256
0.0119347
0.0198137
0.0214864
0.0233532
0.00246739
0.00307479
0.00138317
0.00566881
0.0170546
0.0150587
0.00590645
0.00233433
0.00455175
0.0017948
0.00553839
0.0252121
0.00547974
0.00307427
0.0222993
0.00609936
0.0196947
0.0226966
0.00932621
0.00353587
0.0149065
0.00609591
0.0236496
0.0060004
0.00146066
0.000758274
0.000157624
0.00734923
0.00543615
0.00552482
0.0159133
0.00381502
0.00689953
0.0057346
0.00593036
0.00586338
0.00494676
0.00594413
0.00569323
0.00584984
0.00112254
0.025784
0.00183717
0.002657
0.0188824
0.0170066
0.00603215
0.00220048
0.00591916
0.00606702
0.00591112
0.00585585
0.00586544
0.00188656
0.0276376
0.00193937
0.002997
0.00600869
9.98457e-05
0.0266001
0.0203494
0.00150279
0.00161403
0.00182559
0.0233648
0.00603934
0.0214189
0.00605598
0.00198747
0.0205634
0.0199996
0.0149525
0.00371085
0.00586647
0.0134072
0.00281832
0.00605803
0.00447323
0.00269802
0.00587449
0.00442488
0.00503309
0.0238933
0.01853
0.00587651
0.00158489
0.0133124
0.0230144
0.00365144
0.00601638
0.0208564
0.00598311
0.00603556
0.00425703
0.00590632
0.0115689
0.00619563
0.00560261
0.00131906
0.00599775
0.00546523
0.0116076
0.00175004
0.00197037
0.00599507
0.0175597
0.00589391
0.0061305
0.0209263
0.0051196
0.00383571
0.0147617
0.00593782
0.0227061
0.00588852
0.00163397
0.0149223
0.0171671
0.00816539
0.000201291
0.00608378
0.00631112
0.0010772
0.0176176
0.019586
0.00220814
0.00595702
0.00164993
0.020943
0.0244367
0.00422136
0.00573675
0.00595143
0.004171
0.00336194
0.00675582
0.010459
0.00436924
0.00475273
0.0058517
0.00598643
0.00588934
0.021231
0.00193045
0.00355014
0.0212197
0.00591061
0.00225109
0.0032847
0.00398945
0.00578637
0.00608013
0.00587281
0.00586397
0.00385629
0.00199341
0.00271463
0.00240945
0.0109281
0.00199394
0.0228633
0.00588353
0.016258
0.00605765
0.00327387
0.00595328
0.00428421
0.0203697
0.00360562
0.00974168
0.00597441
0.00596934
0.0148484
0.00998424
0.00448176
0.00441828
0.00600412
0.00590284
0.0114891
0.00373342
0.00167854
0.00605176
0.000584483
0.0120304
0.0110526
0.00603714
0.00601827
0.0159741
0.0028216
0.0168614
0.0206688
0.00474221
0.00594402
0.0218134
0.000701627
0.0032521
0.00597201
0.00542115
0.00586865
0.00182494
0.0210327
0.0199361
0.00590653
0.00597587
0.00711052
0.00594469
0.00594334
0.0198969
0.00584709
0.00343134
0.00592283
0.00123321
0.00608314
0.00286011
0.0227483
0.00593769
0.0243748
0.00327809
0.0137988
0.00585711
0.00605613
0.0186014
0.0198994
0.0204755
0.00512597
0.00947109
0.00551736
0.00604288
0.015927
0.0058736
0.00587384
0.00588198
0.0058768
0.0205807
0.00605024
0.00412744
0.000750251
0.00587318
0.0209883
0.00567472
0.018538
0.00587627
0.00210049
0.0221019
0.00874969
0.0118203
0.00603291
0.0208727
0.00366626
0.0214187
0.0059172
0.00346053
0.00518109
0.00598684
0.00599471
0.00591433
0.017893
0.0147524
0.00524294
0.00171799
0.00606878
0.00297181
0.00841952
0.000413013
0.00444019
0.00207393
0.0157528
0.0147755
0.00589741
0.00592563
0.014472
0.00377444
0.021231
0.0114986
0.00376686
0.003436
0.00614687
0.0110158
0.00593276
0.00598113
0.00180648
0.0165856
0.0059566
0.00608301
0.00592412
0.00588042
0.00177278
0.00605071
0.00585087
0.0214576
0.0236716
0.001388
0.0108752
0.00441407
0.00589298
0.00344834
0.0163356
0.00568325
0.00320074
0.0211083
0.00596815
0.00136016
0.0149479
0.00260233
0.00596201
0.00584871
0.00403218
0.00595798
0.00145024
0.00392089
0.00536239
0.0104035
0.012601
0.00293097
0.00195457
0.00589712
0.0163184
0.00962747
0.00419507
0.0192611
0.0207226
0.00588888
0.0013766
0.00506997
0.00594968
0.00496346
0.00555628
0.00521814
0.00993128
0.0167093
0.00186979
0.0046781
0.00602648
0.0060512
0.00596888
0.00605204
0.00354983
0.00603655
0.0244804
0.00756897
0.00564097
0.00934034
0.0259644
0.0116803
0.00211128
0.00560172
0.0239021
0.0159073
0.00867802
0.00392544
0.00233904
0.00194133
0.0204539
0.00295432
0.00620011
0.00598231
0.00626534
0.011993
0.00268538
0.00564267
0.00385036
0.00918387
0.0171839
0.00606784
0.00135418
0.0117972
0.00589987
0.00609117
0.00370591
0.00555832
0.00601729
0.00603068
0.00674992
0.00550884
0.0251253
0.0122853
0.00344185
0.00126498
0.00127829
0.0127891
0.00587297
0.00643297
0.00160069
0.00910235
0.006025
0.0111432
0.021519
0.0255673
0.00590825
0.00121403
0.0113931
0.00202423
0.00263687
0.00185919
0.00314807
0.00511189
0.0119568
0.0116691
0.00601244
0.0085106
0.00580865
0.00269645
0.0159746
0.00515591
0.0061026
0.00941987
0.000554095
0.00593181
0.0123397
0.00245763
0.020889
0.00601033
0.00342969
0.003069
0.00606904
0.00248597
0.00596651
0.00172044
0.00244472
0.0211829
0.00595942
0.00201364
0.00178756
0.00599659
0.0203678
0.00600232
0.0209179
0.00174475
0.00268095
0.0216764
0.0125577
0.00587558
0.00588366
0.00508318
0.00602504
0.00458242
0.00521206
0.00630269
0.0175859
0.00179919
0.00584698
0.00584916
0.00505838
0.00137253
0.00590295
0.00585114
0.00591167
0.00596905
0.00308001
0.0012649
0.00452136
0.0018116
0.0148004
0.022008
0.0267819
0.0158511
0.0047703
0.00815202
0.00939051
0.00124104
0.00587344
0.00593176
0.00594891
0.00126709
0.0231284
0.00470606
0.00529152
0.00606288
0.00396653
0.00464857
0.00170614
0.00128529
0.00607088
0.00559998
0.00595791
0.00593753
0.00171698
0.0060664
0.00289315
0.00585407
0.0203627
0.00386066
0.00328556
0.00603369
0.00783016
0.016498
0.0060904
0.00601416
0.00153603
0.00585511
0.00248976
0.00138082
0.00162807
0.00586492
0.00277763
0.00582839
0.00155292
0.00595165
0.0238385
0.0117633
0.00166772
0.0205404
0.0170824
0.00607249
0.00149387
0.0145663
0.0253382
0.00159281
0.00213609
0.0206492
0.0149669
0.0126278
0.00593812
0.00553661
0.00150334
0.00291518
0.00141435
0.00553343
0.00731077
0.00464396
0.00350936
0.0033854
0.0120554
0.00474513
0.0137586
0.0223312
0.0243349
0.00122167
0.00533325
0.00601814
0.0214747
0.00588541
0.0120655
0.00181443
0.00597511
0.0121916
0.00585404
0.00319458
0.00604691
0.00604482
0.0139174
0.00609445
0.00593866
0.00605983
0.00420113
0.00601522
0.0108955
0.00606222
0.0204318
0.0118515
0.00594801
0.00175666
0.0216327
0.0227199
0.00606411
0.00603899
0.00589825
0.0202803
0.00603102
0.0031901
0.00228313
0.00601463
0.0237889
0.0116804
0.0178442
0.00548558
0.00179471
0.00593307
0.0131065
0.0060341
0.0210534
0.0061951
0.0228808
0.00569377
0.005948
0.00597312
0.00309954
0.0107359
0.00242042
0.00122148
0.00481398
0.013592
0.0185833
0.0135181
0.0041978
0.00544701
0.000526819
0.0060209
0.00123357
0.0050016
0.00281959
0.023608
0.00587942
0.00380104
0.0120853
0.0135946
0.00460172
0.00589973
0.00586536
0.00605617
0.0192691
0.00269831
0.0236783
0.00164077
0.0226953
0.0153324
0.0231786
0.0101335
0.0111749
0.00261899
0.0186153
0.0137551
0.0212259
0.00293528
0.00540335
0.00402791
0.00357152
0.00466485
0.0186094
0.0097022
0.00589617
0.0176111
0.00524502
0.0127325
0.0213113
0.00513425
0.00604516
0.00589488
0.0187365
0.00589338
0.00594239
0.00604192
0.00256815
0.00609124
0.00910629
0.00120996
0.0201049
0.00594467
0.0244995
0.00592651
0.00793299
0.00589928
0.0171158
0.0198137
0.00591045
0.00376025
0.00598014
0.0159262
0.0210262
0.00362003
0.00508102
0.00600445
0.00591457
0.00201672
0.00227136
0.00519188
0.00351564
0.00185209
0.0109362
0.00179063
0.000513038
0.0102263
0.00392963
0.000693126
0.0107227
0.00173383
0.00430453
0.00604745
0.0104605
0.00604927
0.0117386
0.00134282
0.00585107
0.00595822
0.00586795
0.0110443
0.00285664
0.0164098
0.0120944
0.00587628
0.0205733
0.0192335
0.00389713
0.0145027
0.00604204
0.00597444
0.00607367
0.00384363
0.001457
0.0062335
0.0024203
0.00599515
0.00154718
0.00722921
0.00602726
0.00854808
0.00722034
0.0179034
0.00214031
0.00543242
0.00175567
0.00616581
0.00589994
0.00586551
0.0168922
0.00138987
0.00515232
0.00404008
0.0141929
0.00597257
0.0162451
0.00574595
0.00332176
0.00585382
0.00591566
0.00587357
0.0059385
0.0204415
0.017105
0.0222072
0.00416253
0.00166963
0.017648
0.00568506
0.0222328
0.0215
0.000524533
0.00587421
0.00134525
0.00600932
0.0235689
0.0130965
0.00197287
0.0089053
0.0137214
0.00177612
0.00897819
0.00596495
0.00601957
0.00782748
0.00581241
0.00606346
0.00879016
0.0138449
0.0192665
0.00586747
0.00139031
0.0151833
0.0217952
0.00590447
0.00992615
0.00596006
0.00600195
0.00470483
0.0117194
0.00589231
0.00230896
0.00128724
0.0241407
0.00603545
0.00473523
0.00589953
0.0259458
0.00566237
0.00259573
0.00586527
0.00547596
0.00934877
0.00592478
0.0259291
0.00183118
0.00276955
0.0171994
0.00214833
0.0180215
0.00590897
0.00439783
0.0216556
0.000890377
0.00726938
0.00177909
0.00609471
0.00599625
0.0016311
0.00604465
0.0103119
0.0143464
0.00589053
0.0209894
0.00608044
0.0231788
0.0231977
0.00139184
0.0023814
0.00171413
0.0189301
0.0223212
0.00530769
0.00282914
0.00603995
0.0208707
0.0114749
0.00277264
0.0060349
0.00605275
0.00210499
0.0148344
0.0205482
0.0162916
0.00591821
0.00585767
0.0165392
0.00314748
0.00601155
0.00602772
0.0129079
0.0219446
0.00598784
0.00564057
0.0060523
0.00246845
0.00345135
0.00591159
0.0060493
0.00591079
0.0193834
0.0239955
0.0200802
0.0126165
0.00266297
0.00609113
0.0060262
0.00132234
0.00140447
0.0140932
0.00284233
0.00638744
0.0216949
0.00419051
0.00609077
0.00595012
0.00599452
0.00137664
0.00873462
0.0177147
0.00132426
0.00126397
0.00152
0.00225778
0.00428641
0.0200831
0.00294718
0.00591402
0.00608062
0.00609118
0.00289657
0.0211624
0.00400343
0.00441921
0.00593713
0.00645426
0.00137315
0.00287058
0.000441563
0.00594363
0.00341418
0.02016
0.0250293
0.00186787
0.0128348
0.0206876
0.00585531
0.00350137
0.00708131
0.026705
0.00588871
0.00227139
0.00586347
0.0115821
0.00333448
0.0167388
0.00597811
0.0196627
0.0126327
0.00587367
0.00184442
0.00028671
0.0263916
0.0031831
0.00177626
0.0182166
0.00589829
0.0197158
0.00118971
0.00601919
0.00205069
0.00409253
0.0178344
0.00668531
0.00140067
0.0196924
0.00598678
0.00600149
0.00591363
0.00542049
0.00394808
9.33348e-05
0.00550096
0.010034
0.0111532
0.0153845
0.0173343
0.00181328
0.00977947
0.00178063
0.00406197
0.00605866
0.00609137
0.0021569
0.00126921
0.0223921
0.00592968
0.0060576
0.005866
0.00625815
0.00587869
0.00122706
0.00977426
0.00607449
0.0058726
0.00588956
0.00183452
0.0220971
0.00601265
0.015787
0.00590277
0.0128562
0.00125309
0.010857
0.0137711
0.0079979
0.0194627
0.00122187
0.0245996
0.00555024
0.00544324
0.00881912
0.00238276
0.00597786
0.00428183
0.0105836
0.00163428
0.00334775
0.00594873
0.00604833
0.0147491
0.0105572
0.00132033
0.0145399
0.0065952
0.00169577
0.0209628
0.00803267
0.0150568
0.00286669
0.00588837
0.00605699
0.00495517
0.00297951
0.0108663
0.0251506
0.00609531
0.00133141
0.00989826
0.00255686
0.00192752
0.00603173
0.00262441
0.0129279
0.0221398
0.00251298
0.00189781
0.00252606
0.00593162
0.00159861
0.0151231
0.00470334
0.00142356
0.00579518
0.0013008
0.0052834
0.00640244
0.0058733
0.00248004
0.00598496
0.00208284
0.00131785
0.0137266
0.00607402
0.00374897
0.00578094
0.0128384
0.0130621
0.00184922
0.00608414
0.00129235
0.00603845
0.00171563
0.0115869
0.00860066
0.00199179
0.0230334
0.00589079
0.0135314
0.0202662
0.00558353
0.00232947
0.016308
0.000458628
0.00594806
0.00510005
0.00599534
0.000217383
0.0131076
0.005856
0.00885557
0.00324872
0.0060473
0.00598271
0.0201862
0.000924209
0.00584789
0.00664867
0.00308479
0.00863091
0.00602948
0.00602472
0.0195232
0.0136912
0.00130193
0.00426882
0.00221701
0.0133315
0.00116109
0.00136402
0.00447962
0.00142061
0.00195161
0.00527168
0.00587521
0.00517838
0.0171925
0.00587529
0.021301
0.00211299
0.00609371
0.00606935
0.0079346
0.00164997
0.00591536
0.00539794
0.00561495
0.00555876
0.0120918
0.00508509
0.00347046
0.0247371
0.00183355
0.00606386
0.00630644
0.0028586
0.0021232
0.0252107
0.00609851
0.00587034
0.00485054
0.00605849
0.0254974
0.0228992
0.0056672
0.00560675
0.00316685
0.00517029
0.00264928
0.00372604
0.0133882
0.00235627
0.00586855
0.00335735
0.0026983
0.00170289
0.00242935
0.00131161
0.00143687
0.00468829
0.0205021
0.000949287
0.00262265
0.00370869
0.00161235
0.00188515
0.00563942
0.00322016
0.00522714
0.00424353
0.0207024
0.013614
0.0104943
0.00669625
0.00356596
0.00235259
0.00138376
0.00148721
0.023835
0.0059354
0.00444683
0.0128193
0.00133414
0.0120602
0.00161951
0.0039905
0.0225178
0.0109569
0.00751329
0.0035945
0.00143181
0.00251652
0.0154198
0.0164445
0.0140979
0.00607017
0.00241827
0.00125437
0.00442554
0.00177988
0.00172193
0.00239818
0.00246106
0.00159798
0.0197516
0.0154889
0.00450283
0.00137645
0.0149369
0.0132483
0.00214303
0.00437311
0.00221308
0.0178038
0.00577396
0.0208219
0.00597499
0.00585249
0.00589821
0.00601673
0.00162005
0.00609503
0.00586875
0.0018193
0.00604738
0.0060149
0.0165708
0.00478465
0.0082562
0.0202106
0.00427413
0.00206348
0.00128567
0.00552407
0.00608801
0.00588162
0.00666681
0.00321844
0.00606216
0.00608446
0.00564257
0.0014511
0.0039074
0.002974
0.00152407
0.00607059
0.0041347
0.00778269
0.00561659
0.00604641
0.00236629
0.0136566
0.0113327
0.00472799
0.0117995
0.00287755
0.00955121
0.00143574
0.0148554
0.0060142
0.00515052
0.0054399
0.00586901
0.00603185
0.00314017
0.00146459
0.00610392
0.00159299
0.00592909
0.00125562
0.00337948
0.00585382
0.00630451
0.00177673
0.0238283
0.00591559
0.0173459
0.00602689
0.00277458
0.00589988
0.00604079
0.000338477
0.00602925
0.00261293
0.00597319
0.00595572
0.00225061
0.00294946
0.00550761
0.00588195
0.0270083
0.0157522
0.00547969
0.0167582
0.0207338
0.00459782
0.0126147
0.0165936
0.0245723
0.0057508
0.00136625
0.00563659
0.00160277
0.0156276
0.00609382
0.00169179
0.00602934
0.00147682
0.00218131
0.0131332
0.00223109
0.00535491
0.0116636
0.00291171
0.00153266
0.00226264
0.00608127
0.000371222
0.0145919
0.00497565
0.0016928
0.00962743
0.00203646
0.00594809
0.00598097
0.00207735
0.00970517
0.0122675
0.0211047
0.0059616
0.00172578
0.0058707
0.0144978
0.0193596
0.00509189
0.0152213
0.00808759
0.00592099
0.0111239
0.00527662
0.00597681
0.00329892
0.00206014
0.000636318
0.000305432
0.0209661
0.0130209
0.00174478
0.00526131
0.00383857
0.0176952
0.00305586
0.00604607
0.0157735
0.004989
0.00859348
0.00587096
0.00592376
0.00632709
0.022866
0.00588568
0.0129689
0.00257667
0.0014624
0.00182101
0.0170109
0.00653846
0.0251361
0.0113022
0.0204418
0.0207539
0.001457
0.00587286
0.00213736
0.00356134
0.0122219
0.00372366
0.00588355
0.00591945
0.00838557
0.00127621
0.00221027
0.00176453
0.00606768
0.00586688
0.00121058
0.00600106
0.00515355
0.00585896
0.0229769
0.00613542
0.00608771
0.0100919
0.00190112
0.00193093
0.00587545
0.0236495
0.00163224
0.00534999
0.00284928
0.0108478
0.0133889
0.00602553
0.00606048
0.0062735
0.00374602
0.00749666
0.00552733
0.00768511
0.00590149
0.00172315
0.00515253
0.0209223
0.0123452
0.0156883
0.00408727
0.00592025
0.00394005
0.00747994
0.0217022
0.00123246
0.0067953
0.0060168
0.02029
0.00787663
0.00604284
0.00535722
0.00157351
0.0120145
0.00606163
0.00535564
0.00669756
0.00600438
0.00351365
0.00413456
0.00900339
0.00596772
0.00310983
0.00592845
0.00775117
0.00716616
0.00799069
0.00213422
0.0279073
0.0216679
0.00608039
0.00127179
0.00461687
0.00606572
0.0182719
0.00128066
0.00187724
0.00596268
0.0241066
0.00566023
0.00280409
0.00260349
0.00604904
0.00161516
0.00142213
0.0158929
0.0211543
0.00602609
0.00219314
0.00309959
0.00415359
0.0138793
0.00604662
0.00341311
0.0159628
0.0172566
0.00794161
0.0163003
0.00179405
0.0235689
0.0056918
0.0192524
0.00248279
0.00203699
0.00167008
0.0058559
0.0146875
0.0223456
0.00363537
0.0153131
0.0183915
0.00333462
0.00555807
0.0160808
0.012793
0.0209022
0.00824339
0.0185176
0.00121941
0.000771298
0.00229809
0.00607324
0.00803661
0.005307
0.00609262
0.0162222
0.00362804
0.00189086
0.00611613
0.00769147
0.0209604
0.00433071
0.00490781
0.00893792
0.00567294
0.0108828
0.0199422
0.0200141
0.00360842
0.00487053
0.00482244
0.000911159
0.00560367
0.00696108
0.00226156
0.00164128
0.00813527
0.00269411
0.00511396
0.0156356
0.00605027
0.00590154
0.00327787
0.00140442
0.00447289
0.0202373
0.00583408
0.0231659
0.00560201
0.0047933
0.00465474
0.00423213
0.00609039
0.000843866
0.020212
0.00569399
0.00607687
0.0174646
0.00220133
0.00595626
0.0034862
0.00318113
0.00178044
0.0219983
0.00132439
0.00735789
0.0192005
0.00139467
0.0267253
0.00594975
0.00402455
0.00185344
0.0172776
0.0143572
0.00179408
0.00605799
0.00187825
0.00356022
0.0127361
0.0122327
0.00846102
0.0028447
0.0153848
0.0148348
0.00607618
0.00856753
0.000321046
0.00594015
0.00600058
0.00367429
0.00601527
0.00133965
0.00592653
0.00210422
0.00159513
0.00602868
0.00604033
0.00139341
0.0100156
0.00599211
0.0210442
0.0140787
0.0013528
0.0180112
0.00807779
0.00598782
0.00866752
0.00308927
0.00609722
0.0110803
0.00457443
0.00166393
0.0038645
0.0059047
0.00595769
0.0139497
0.00543594
0.016243
0.00352578
0.00344638
0.0060089
0.00171236
0.0139363
0.0117395
0.00606382
0.00751029
0.0152843
0.00370887
0.00302979
0.0147533
0.00147094
0.00586999
0.00626136
0.0187152
0.00298005
0.00603101
0.00591046
0.00605055
0.00251196
0.00599395
0.00211925
0.00630201
0.00593737
0.0061186
0.00634207
0.0124064
0.0177249
0.00400155
0.00122557
0.0232334
0.0138173
0.00163173
0.0281891
0.00895733
0.00599512
0.0139957
0.00609011
0.0207719
0.00588095
0.00185852
0.00592076
0.00399525
0.00648684
0.0034014
0.00598872
0.0208269
0.00565692
0.00189327
0.00235483
0.00524816
0.00207556
0.00206286
0.011997
0.00548124
0.000176039
0.0211263
0.0247059
0.0045461
0.0177038
0.00586895
0.00585139
0.0109131
0.0102107
0.00136842
0.0219044
0.00144645
0.0047097
0.0142328
0.00525569
0.00360735
0.011921
0.00241419
0.00790497
0.00594601
0.00824684
0.00601827
0.003412
0.00179802
0.0247311
0.0035616
0.0217011
0.00572727
0.00590801
0.011671
0.0138478
0.0129859
0.0244161
0.0013527
0.0189871
0.00137348
0.00586965
0.0077077
0.00599648
0.00918111
0.00684546
0.0103413
0.00103035
0.00160392
0.00122833
0.00138343
0.0178104
0.00605548
0.0201661
0.0202443
0.00601942
0.00573465
0.00162117
0.00496656
0.00591199
0.00550904
0.00471095
0.00482807
0.00129761
0.0136813
0.0059022
0.00202092
0.00397661
0.0209024
0.0133267
0.000559266
0.0193447
0.00726552
0.00109162
0.0060455
0.0219991
0.0185247
0.00601523
0.00517777
0.010301
0.00830314
0.00593582
0.0202751
0.00605176
0.00599304
0.00597437
0.02235
0.0135271
0.00192983
0.0216059
0.00608393
0.00482416
0.00161678
0.00141113
0.00320192
0.00320971
0.00607275
0.00789176
0.00143549
0.00584746
0.00603362
0.0021862
0.00592759
0.00133677
0.00380716
0.00609571
0.00136394
0.00566025
0.00179856
0.0127569
0.0123532
0.0181921
0.0211962
0.00602714
0.00449392
0.0167397
0.0206331
0.013083
0.0127907
0.00600707
0.0138484
0.00164493
0.00346616
0.00524659
0.001676
0.0187437
0.00561231
0.00126697
0.00550711
0.021473
0.00590953
0.0019203
0.00602171
0.0184178
0.0190302
0.00608763
0.0057533
0.0037543
0.00589537
0.0170085
0.0135089
0.0195627
0.016631
0.0153604
0.00593338
0.00403984
0.00249356
0.00153542
0.01771
0.0059319
0.0149349
0.0193489
0.00435058
0.00228977
0.00381475
0.00747496
0.00182853
0.00587834
0.00595471
0.017755
0.00590421
0.00500051
0.00599366
0.00606317
0.00604436
0.000658231
0.0137371
0.00133835
0.00292965
0.00588367
0.00343493
0.00160462
0.00964192
0.00215355
0.00220925
0.00174139
0.00246256
0.00587595
0.00176654
0.0122714
0.0190162
0.0189485
0.00619843
0.00182384
0.0060764
0.00182147
0.00157785
0.0277425
0.00139546
0.0256271
0.00592051
0.00303297
0.00185619
0.00590679
0.0134629
0.0018875
0.00590089
0.00588213
0.00197084
0.00877946
0.00600903
0.00588972
0.0211903
0.0183529
0.00563629
0.00177601
0.020557
0.00204567
0.0122106
0.0184543
0.0207894
0.0158268
0.00172227
0.00138069
0.0119143
0.00468273
0.00746464
0.0104254
0.0218849
0.0201668
0.00485639
0.0202473
0.010087
0.0049689
0.00329489
0.0183168
0.000725043
0.0177399
0.00985969
0.00382626
0.0205159
0.00613303
0.0184063
0.00632656
0.00596232
0.00194041
0.0188545
0.00591075
0.0039318
0.00180431
0.0121727
0.0191306
0.00188699
0.00725196
0.00375166
0.00585799
0.00632694
0.00600115
0.00186936
0.00233894
0.0059682
0.00135074
0.00183296
0.00369169
0.019608
0.0192502
0.0194386
0.00590721
0.00133933
0.00442817
0.0153243
0.00181122
0.0108312
0.00319081
0.0226261
0.00156376
0.00185227
0.00169676
0.00507722
0.00178397
0.00328307
0.00172704
0.0124196
0.00593366
0.00334632
0.00607673
0.0103021
0.00727411
0.0209097
0.00603109
0.00670803
0.00587328
0.00602321
0.00357262
0.00593894
0.0059484
0.000707201
0.0145178
0.0014291
0.0019131
0.0192449
0.0196442
0.010458
0.0251166
0.00162543
0.00482881
0.00161595
0.00565675
0.00191529
0.00116847
7.67371e-05
0.00124433
0.00136693
0.0194085
0.00594945
0.0104837
0.00586311
0.0040042
0.00371499
0.00561363
0.00609017
0.00790081
0.019944
0.00156402
0.00597819
0.0209699
0.0091689
0.0184823
0.00177142
0.00571983
0.00433529
0.0152559
0.00134992
0.00583595
0.0205855
0.00158632
0.00186773
0.00190956
0.017788
0.0077147
0.0198481
0.0060578
0.00323083
0.00165943
0.00725961
0.00241064
0.00300197
0.00132449
0.00168645
0.00964899
0.0204938
0.00402365
0.00760312
0.0201622
0.00208893
0.0018761
0.00148814
0.00165625
0.0176102
0.0032176
0.00128875
0.0233966
0.00570034
0.0143049
0.00590807
0.019451
0.0139982
0.00283442
0.00775759
0.00155197
0.0035395
0.00136753
0.0150204
0.0232954
0.00273852
0.0256041
0.00412707
0.0021499
0.0194086
0.0190415
0.00597526
0.00825056
0.0155715
0.00158369
0.00557849
0.00149114
0.0203702
0.00121918
0.00265083
0.0142414
0.0118774
0.0112698
0.00594847
0.00247293
0.00132767
0.025082
0.00152009
0.0234523
0.0148623
0.00130897
0.00609494
0.00593323
0.0213917
0.00606742
0.00227138
0.00159007
0.00434668
0.0166032
0.00938159
0.0116978
0.00359103
0.00131168
0.00152908
0.00318457
0.0183244
0.00241473
0.0169558
0.00562687
0.0101486
0.0179556
0.00229008
0.0205829
0.00595953
0.0246266
0.00255325
0.0145188
0.00608721
0.0016919
0.00289973
0.00185565
0.0208494
0.0155246
0.0208658
0.0194597
0.00590559
0.00592825
0.00312787
0.00867933
0.00224159
0.0200523
0.00586687
0.0203235
0.00894341
0.0019901
0.0173992
0.0201187
0.00531705
0.0129586
0.00188572
0.00548794
0.0058571
0.00121564
0.00147348
0.0207881
0.0058977
0.0150526
0.00609784
0.00254841
0.022038
0.00144532
0.00775051
0.0140133
0.00432021
0.00324975
0.00943786
0.00590989
0.00587942
0.0059963
0.00139881
0.00222263
0.0206657
0.000864487
0.00863928
0.00590852
0.0210444
0.00391131
0.016001
0.00440238
0.00136049
0.0192797
0.0184914
0.00236237
0.0130446
0.0135489
0.00153948
0.00175996
0.00287283
0.00604373
0.00608672
0.00387762
0.00129628
0.00220444
0.00172058
0.0127935
0.00162903
0.0021812
0.0088133
0.00585815
0.00286328
0.00852992
0.0211977
0.0117404
0.00912631
0.0029556
0.00553077
0.00542495
0.0191636
0.00437493
0.0256523
0.00599537
0.0059882
0.00122966
0.00584903
0.00130467
0.00173637
0.00231134
0.00187227
0.0153417
0.0149725
0.0214062
0.0201237
0.00586389
0.0139807
0.00164378
0.00236934
0.00178513
0.0180952
0.00130732
0.00945526
0.0184279
0.00128161
0.00165314
0.0207526
0.00603207
0.0222737
0.0191374
0.00362169
0.00573581
0.0241814
0.00254313
0.00597054
0.00154848
0.00180328
0.0257236
0.00575988
0.0100191
0.0131302
0.00600837
0.00590393
0.0250382
0.00222166
0.0138827
0.00290964
0.0059269
0.00248988
0.00154859
0.02155
0.00175689
0.0137867
0.00378326
0.0212606
0.00154884
0.00601931
0.0097021
0.00592506
0.00241764