/*--------------------------------*- C++ -*----------------------------------*\
| =========                 |                                                 |
| \\      /  F ield         | OpenFOAM: The Open Source CFD Toolbox           |
|  \\    /   O peration     | Version:  v2012                                 |
|   \\  /    A nd           | Website:  www.openfoam.com                      |
|    \\/     M anipulation  |                                                 |
\*---------------------------------------------------------------------------*/
FoamFile
{
    version     2.0;
    format      ascii;
    class       volScalarField;
    location    "100";
    object      omega_0;
}
// * * * * * * * * * * * * * * * * * * * * * * * * * * * * * * * * * * * * * //

dimensions      [0 0 -1 0 0 0 0];


internalField   nonuniform List<scalar> 
14804
(
0.0225396
0.0240058
2.57358
0.0236206
0.0382929
0.0297887
3.74557
0.0449945
0.0276669
0.0232783
0.0430329
1.45648
0.199431
1.31542
2.27929
0.0275282
6.10964
1.32396
0.0275697
0.0225228
0.0240693
0.0382986
0.043102
0.0283233
0.74975
3.74771
5.04467
0.024696
2.29218
2.02923
1.5697
6.09136
0.0326952
0.0450736
3.20649
0.0236846
0.0241589
0.0281209
0.200828
0.0224338
0.314657
0.206685
0.150817
0.0270751
1.33003
1.5832
0.326816
0.0236189
0.0931908
0.0240385
0.024937
0.0261612
0.024874
0.0449867
0.0330401
0.0246582
5.14379
4.61735
0.9989
0.207362
4.58787
3.17388
0.0224784
0.0239242
0.0284335
1.42428
0.427203
0.0293271
0.0234087
0.0293879
0.0307705
0.0287522
0.0283277
0.0623074
2.53405
0.0249214
0.025438
0.0818398
0.0222475
0.0758528
0.0716274
0.0372463
0.0621976
2.20667
0.0272227
0.0255148
0.0255362
0.0239035
0.0380151
0.0377422
1.93445
0.0238708
0.0224352
0.0246343
0.0237368
2.13305
0.0255665
1.35884
0.0310562
0.0372607
1.56783
2.29054
0.192796
0.0286331
0.122637
0.728542
0.0292894
0.0260002
0.0312519
2.68297
0.0256862
0.0293992
3.03918
0.0551364
0.0340812
2.7305
0.489611
0.158846
0.0278943
0.0231314
2.56555
0.119547
0.0246271
0.0653275
0.0279325
0.0573509
0.0246766
0.0249098
0.0437035
2.03776
0.0228805
2.13251
0.0271192
1.47464
0.0247816
1.87567
0.825823
0.0345656
2.57237
1.07394
0.0241725
0.0265596
0.0338885
0.0272028
0.380176
0.027494
0.194517
0.199297
2.2857
0.0294645
0.424202
0.0229021
0.179204
0.55576
0.0225775
0.022913
0.777784
0.0290012
0.0255961
2.2259
0.0247487
0.0236977
0.0250478
0.0270359
0.0343047
1.5999
0.0252504
0.0237806
0.0620929
0.0289014
0.0247431
0.0281659
2.43909
0.027671
0.523382
2.24704
1.27729
1.46513
2.44972
0.074627
0.0247231
0.0900821
0.025007
0.99427
0.0239588
2.64665
1.90352
2.27482
1.4364
0.0258475
0.0256756
3.07496
1.69292
0.784153
1.79892
1.43077
1.99676
2.30905
0.0249882
2.09133
0.0249751
0.0251683
0.0237766
3.00085
0.0302537
0.117543
1.51847
0.714508
0.0640505
0.0246153
0.0261486
2.66876
0.0260707
0.0236394
2.13493
0.0246943
0.259584
0.0247132
0.270961
0.744443
0.0590495
1.30681
0.0259908
0.0650176
2.58397
0.116429
2.28477
0.0246236
0.364792
1.19491
0.0836779
1.79067
0.0250551
0.0246467
1.19717
0.0254866
2.85571
2.0061
0.0254967
1.06638
3.0526
0.081318
1.56548
2.35255
0.0264725
0.023974
0.0668385
4.50833
0.0403286
0.0295263
2.85718
2.26633
0.0246271
0.0296803
0.0260471
0.362563
2.26543
2.98266
2.10823
2.37543
0.0300232
0.764808
0.0251195
0.0493428
0.025616
3.92593
0.0244076
0.376833
2.62222
0.0224645
0.0246262
0.230404
0.192023
3.34778
0.0866225
1.26163
0.0254584
0.0891603
0.022439
1.26738
0.0244243
2.61717
0.0250158
0.0582478
0.0254934
2.30512
0.0283351
3.57049
0.0248325
2.30049
5.4036
0.0895677
0.0816199
3.13781
0.028115
0.0344222
3.01073
0.0249289
0.0364577
0.0236961
0.0265338
0.0665228
0.0248296
0.0842978
0.0258708
1.48599
0.357036
0.0246151
1.92867
0.062184
0.0258189
0.0247132
2.87519
0.0236611
1.58714
0.0259749
0.065793
0.0247547
0.225076
0.0253486
0.0265278
0.0270086
2.81154
1.38067
0.0246425
0.023899
0.0596866
2.75437
3.06272
0.0651434
0.0913496
0.0246199
0.024916
4.71176
0.027333
2.33225
0.0875855
5.50722
2.61771
2.33346
2.27423
0.178366
2.19369
2.73214
0.0258505
0.0253727
1.96586
1.71892
0.0252883
0.0286248
0.0591947
0.0229298
0.0237125
1.58727
0.0244829
0.0259937
1.64123
0.0272574
1.42154
0.0249404
0.0718419
0.0242505
2.19585
2.44256
4.41364
0.0689414
0.0249169
1.8424
2.40745
0.0700936
0.0259106
2.22444
0.0249616
0.944992
0.0375582
2.68772
2.67528
0.0486844
0.0242934
0.108751
0.0251668
0.0423874
2.384
0.0293599
0.0248483
0.0232438
0.0236923
0.0244699
2.51222
0.0260123
2.66165
0.0574395
0.040448
0.0253365
0.0246415
2.34472
0.434677
0.0500239
0.333667
0.121292
0.035007
0.0651368
2.27871
3.03805
0.241662
0.0403682
0.134579
0.0239494
0.0561726
0.0239594
0.024718
0.0867988
5.7877
2.27328
0.379964
0.0245412
1.21866
0.0247161
0.030988
0.0351872
1.49007
0.0285948
0.148631
1.84245
0.0282249
0.0246217
0.179639
1.20454
0.0860676
0.0275977
0.0252059
0.0231374
0.942981
2.0791
0.0270303
1.86238
0.0959409
1.2097
0.0246023
2.92143
2.31402
0.0256007
0.136241
0.0259055
0.0535205
0.083914
1.32764
0.0287333
0.0250318
1.4881
0.207082
1.12962
2.8257
0.365214
2.2467
0.0244741
1.33623
0.0235674
0.160151
0.0540192
0.0344262
0.0656369
0.0299069
1.56603
0.024629
2.66371
0.0555653
0.0554116
2.20005
0.0256872
0.0246469
0.0236141
2.29671
3.26001
2.26571
0.0874795
0.0231818
0.22418
0.0254117
0.11901
0.0284189
2.33596
2.07575
0.193602
2.59493
0.0494485
1.88178
0.0266283
2.46128
2.30832
2.97934
2.31201
0.167664
0.986964
2.47699
0.0238755
0.0240488
0.500697
0.0239831
0.0377079
0.0480454
0.0283939
0.0253105
2.3742
0.0296263
0.0554282
0.168725
0.0296246
0.0231855
3.03502
0.096053
2.95449
0.928933
0.0283677
0.0879822
1.15786
2.23074
3.00116
0.0244396
0.0553465
0.0254464
0.130434
2.09124
2.20192
2.26924
2.23571
0.19315
4.04751
2.42821
1.25349
0.312603
0.0229052
2.28017
1.50736
1.02886
0.0258252
0.314637
0.0289001
0.356955
3.10366
0.0272515
1.64427
0.0260227
0.0635897
0.0244252
0.0296694
0.941873
0.0242222
0.028279
0.0274244
0.0272887
0.0243738
0.0244419
0.0236589
0.122624
0.0231748
1.5088
1.06584
0.026779
2.33816
0.0259226
4.47634
0.0242236
1.23189
0.0258061
1.62018
0.0240959
0.475402
2.20523
0.0253311
0.041138
0.634048
2.88722
3.11296
0.0433596
0.0594193
1.54621
2.42196
0.0500994
0.023138
2.18216
0.0227013
0.121512
0.997372
2.33288
2.32486
0.0247932
0.0256472
0.0232207
0.0262288
0.0535641
0.0269628
0.427618
1.68178
0.719761
2.3689
6.62616
5.93694
0.122903
0.0285154
1.93285
2.9573
0.0242307
0.0868213
4.71281
1.36813
0.0296071
1.03677
0.0288343
0.0626637
2.8991
0.0246595
1.97045
2.77307
1.818
5.66725
0.260581
0.024731
2.41329
0.0229685
0.0860482
0.173824
0.352502
1.1901
0.0304009
0.0297521
0.741091
0.0312523
0.23992
0.028065
0.0227197
0.022378
4.48007
0.0256478
0.0283541
0.0222623
0.183541
0.914503
0.0855798
0.034646
0.761719
0.462063
0.0253766
0.0815929
0.0238214
0.025238
0.0268974
0.0224363
0.0244215
0.0852778
1.3596
2.6798
0.0267179
0.0244627
0.362609
1.37842
0.789296
0.14643
0.0873374
0.113648
1.04515
0.0250042
2.4822
0.0256241
0.104314
2.85044
2.93356
3.10098
0.0623047
0.0223598
2.0526
0.0620863
0.0257115
0.181274
0.0692609
0.0271569
0.405872
0.0327551
1.28392
2.36274
0.0223661
0.139125
1.94353
2.89455
0.0500269
0.0260441
2.02487
0.0245621
0.0248693
0.0419517
0.0233026
2.15444
3.59521
0.029186
0.0510533
0.0262002
0.02992
0.370119
0.0843992
2.1655
0.0244908
1.90638
0.02316
0.0255432
2.77349
4.48826
5.10538
2.88833
0.0266828
2.7974
0.0242137
0.132288
2.39842
2.30304
1.55462
0.494577
0.0244894
0.0256762
0.195387
1.76934
0.709493
0.0309848
0.024746
0.0863173
1.95387
1.34147
0.0273693
0.0274665
0.0239972
0.356495
5.94096
0.445519
0.379679
0.0657665
1.48898
0.0244585
0.0262816
0.0247315
1.9419
0.102645
0.0517956
0.771188
0.0242536
0.0306208
5.72181
0.0455372
2.70077
0.0244494
0.0232313
0.022365
0.0475119
0.104752
0.631811
0.083943
2.58116
0.0639411
1.64689
0.0270929
2.95708
0.0253886
0.0573804
0.024923
1.59194
1.96527
5.14718
2.40557
0.025197
0.0242444
2.27258
0.391536
1.38947
1.57801
0.0261297
0.0246383
1.81679
0.049341
0.059742
0.025459
5.79589
0.36977
2.61463
0.0240277
0.0291607
2.20728
0.0564242
2.29161
2.214
0.0356352
0.0248935
2.19378
0.326068
0.058442
0.0251513
0.0302256
0.0244399
0.116613
2.01004
0.701844
0.024719
0.024691
2.19061
0.0245518
0.0246142
1.93143
0.0222398
0.0309388
0.0247152
0.187756
0.0248228
0.0671992
2.74741
0.0242376
2.5461
0.0272443
2.67748
0.0243206
0.025646
2.28642
0.787111
2.78852
0.0319235
1.11197
0.0279155
0.0250177
2.88257
0.0235882
0.024724
0.0247326
0.0247245
2.77085
0.0257611
0.0271144
0.31997
0.0229554
2.70765
0.0284586
1.61005
0.0236033
0.098476
2.21054
2.41369
0.439115
0.0253227
2.1946
1.8023
2.37175
0.0238961
0.0539554
0.0323818
0.0250613
0.0249921
0.024243
2.14455
2.78242
0.0318893
0.0853328
0.025494
0.0636835
1.33928
0.507014
0.0269765
0.0297289
1.53838
2.62161
0.0237222
0.0239129
2.66876
0.0486076
2.41178
2.66434
0.0488307
0.0304547
0.0257459
0.399005
0.0236802
0.0251391
0.0580216
2.21665
0.0239676
0.0247792
0.0240055
0.0235013
0.0743991
0.0239436
0.0246416
2.12503
1.74753
0.70331
0.34652
4.15572
0.0242147
0.0384765
2.29107
0.0285601
0.026433
1.92139
0.0248429
0.165833
2.77127
0.0454473
0.0237688
0.0244372
0.0442351
0.0265352
0.152761
0.0460747
0.0309348
0.403635
0.712735
0.0666477
0.077444
0.0237398
3.074
0.347238
0.0427104
2.32399
1.652
0.0242244
0.0868016
4.44141
0.0248647
0.0305399
0.0293491
0.0262651
2.43727
3.0344
0.0688742
0.0364235
0.0241919
0.0253947
0.0238004
0.0262358
0.0268614
0.0258942
1.05398
1.19828
0.028097
1.67111
1.11505
1.9791
0.045982
0.0273596
1.68789
2.71781
1.37789
0.314704
0.0284864
0.108354
2.04693
0.0347246
0.026145
0.0263353
0.025992
2.96357
0.0628958
0.0286868
0.0475855
1.54032
2.24177
0.0268331
0.0649177
2.45609
0.0247055
0.0245563
0.049875
0.028634
0.0260502
0.0270912
2.53892
0.0298137
1.29135
2.42683
0.0546992
0.184687
0.183037
0.582014
0.023422
0.0263965
0.0358945
1.58511
0.0246659
2.66313
2.14349
1.07231
0.0246335
0.205066
3.17109
0.103122
0.0580095
0.0380588
0.0606196
0.0319975
1.85229
2.73109
0.0259624
0.263087
0.0257714
0.0286068
1.88365
0.0682038
0.0245105
1.51561
0.248589
0.024257
0.570187
2.40113
1.99363
0.0249664
0.0549404
0.0622205
0.0252332
2.20759
0.0242114
0.124357
0.0321171
2.63225
0.0237534
0.0452713
0.118316
0.0245338
3.08145
1.30424
2.51587
0.122497
0.0564016
2.49092
2.7086
0.0235765
0.0270664
0.0259469
0.024669
0.0848556
0.0321105
0.0254254
2.35519
0.117501
0.0244492
0.0246503
0.0325204
0.167087
0.0237116
0.0246209
0.0268702
0.0246902
0.187426
0.191396
0.0784944
0.117539
2.85912
1.16624
1.53523
0.451201
0.0262554
0.259592
2.85556
1.94277
0.0223824
0.0234329
0.0246413
1.45827
2.34225
0.0274345
1.41396
0.0247739
0.0269442
0.0634154
2.19258
0.178593
0.0238987
0.0291674
0.0248752
0.0242835
0.0845461
0.0233837
0.034101
0.0224144
2.53205
0.0271958
0.0342428
0.0271938
2.04051
3.00844
0.0244663
0.0252705
0.085857
0.0224277
0.852355
0.164508
0.0471778
0.0242956
0.071125
0.0260659
0.28785
0.0256401
2.44556
2.25443
0.0537951
2.84326
2.11104
0.023324
0.152703
2.89992
0.931836
0.163663
0.0295541
1.92676
2.25611
2.90539
0.0249152
0.0278281
0.0384194
0.153525
0.157781
0.029655
2.82433
0.0556578
0.0266258
0.0304867
2.44012
0.0665659
2.479
1.83474
2.54135
0.202768
0.0306445
0.024245
2.5741
3.82644
2.72271
0.11641
0.0225825
2.73384
0.022408
0.0283276
1.33284
0.0253769
3.04187
0.0245047
0.0245743
0.0234307
0.0271095
0.0258408
0.83225
0.0254781
3.0602
0.34637
0.0225179
0.0515061
2.46669
1.77975
0.0247566
0.0267479
0.0237064
3.08606
0.0240337
1.50451
0.0325719
0.0241374
2.44054
2.9004
2.0824
0.219976
0.0640682
0.0249199
1.72727
1.37377
1.96644
0.0255391
2.30498
0.0284789
0.0256916
0.0263837
0.0291828
2.58058
0.0824941
0.20289
0.101426
0.587294
2.20703
2.94353
0.0377032
0.0298472
0.506421
0.024998
0.198565
0.0261026
0.0582223
1.75821
0.0223549
0.0474269
0.44489
1.78634
0.0372255
0.0269544
0.0224762
0.025672
1.03107
0.0735081
2.40677
0.080258
1.82264
2.59705
2.94046
2.75827
0.421489
0.0760661
2.18369
0.590342
1.97805
0.066484
0.0301675
2.06919
0.0522072
1.53248
1.92378
0.404736
0.0246116
2.37293
3.16034
2.59195
1.80395
0.0319069
0.0237515
0.0238668
1.89957
0.0252936
0.024245
0.0239748
0.0276379
0.0240826
1.47367
0.188589
2.12128
0.0248651
0.980051
0.0267387
3.26651
0.0236538
2.92636
1.78514
0.0251706
0.385737
0.0226205
2.28014
2.68435
0.0513218
0.0263694
0.0238352
0.0268203
0.103278
0.0838794
0.0308324
5.66899
0.0671527
0.306833
0.071803
0.845061
1.57872
0.0454395
0.282601
2.76779
0.0621754
0.041406
0.0250044
2.24682
0.0255623
0.416136
0.0657078
0.0246418
0.024526
0.0240484
2.77554
0.0687237
2.20777
2.57366
0.0225012
2.6227
2.21599
0.0302575
1.02348
0.0238621
0.0250057
0.0249253
0.0468801
0.152508
1.17574
6.27377
0.0262171
0.14786
2.1721
0.0238582
2.38201
0.211101
1.97185
0.0454472
1.25308
0.120962
0.189354
0.0237683
0.0258583
2.29165
0.161547
0.032592
0.117317
3.06909
0.0227737
2.75502
0.0267657
0.0268646
0.0245684
0.0246545
0.0246905
0.026645
2.88791
2.23847
2.28537
0.0373142
0.128136
2.13173
0.0280341
2.27018
2.49314
4.40118
0.0247378
0.168357
0.0238688
2.39601
2.49674
0.0630188
2.56983
2.9777
0.120114
2.08557
0.0227366
0.0249791
3.45553
1.1656
0.0255904
1.93526
2.94964
1.92086
0.0240674
0.165344
3.13316
2.17113
0.0225252
2.56976
0.0246588
0.0249583
1.52303
1.17997
0.0246766
0.028572
0.181197
2.49143
0.0248938
0.0309318
0.0225004
1.15553
0.0287157
0.0904889
0.0243291
0.029885
2.53052
0.0252614
1.11882
0.0763462
0.0288164
2.24314
2.18933
1.71967
0.0226192
0.0274987
1.81852
2.4867
1.26791
0.119269
0.0245654
0.0262276
0.086504
0.0239059
2.52209
2.24986
0.0231159
1.82967
0.0248114
1.05519
2.37226
0.160753
2.16391
0.218852
2.19981
2.63764
0.0308344
0.0692533
0.0254106
0.648827
0.272782
0.0284388
0.0238599
0.0249471
0.0985562
2.22963
2.96496
2.90919
0.0233703
0.0223212
2.98091
0.0610296
0.0252471
0.0263448
3.10146
1.67574
0.0259121
0.0282973
0.0240009
0.080835
0.0269842
0.0245933
0.0250441
0.0246585
1.90001
2.47407
2.25953
2.53511
0.116971
0.0246017
0.0242835
0.0865863
0.159615
0.731552
0.0689845
1.25828
0.708878
0.0272006
0.02439
0.0246127
0.0247195
0.163147
0.543812
2.26471
0.118754
0.086578
0.0808475
2.49828
1.26335
0.667612
0.0333143
0.0226388
0.0253685
0.0252997
0.0666766
2.15569
0.0452964
0.0399667
0.0249312
0.0275451
0.166212
0.0285885
0.389597
0.02494
0.0606578
2.64172
1.10033
0.0637534
1.8352
2.3057
0.0245859
5.07906
3.2537
1.18926
0.0245985
0.0898325
0.0244593
2.4765
0.0294363
3.09913
0.0263507
1.83855
3.06632
0.0234582
0.0580666
0.250821
1.56644
1.41782
0.0545344
2.1606
0.0239471
2.16335
0.206612
0.0264303
0.0368079
0.0440232
2.26007
1.27563
0.0650024
2.12935
0.0249121
0.0257179
0.0233016
0.0302187
0.0374446
0.48416
0.0280087
1.64025
2.83315
2.25667
2.86117
0.109085
2.9228
0.1187
0.0444434
0.0255609
0.0247136
0.0944405
0.181465
2.24334
0.0249953
0.025334
0.0224688
0.0256854
0.0243711
0.200108
0.372101
0.0237163
0.0243962
0.0242785
0.114987
2.59781
0.0227494
2.91142
0.0237803
2.55808
2.13141
0.301026
0.286259
2.79503
0.626909
1.45397
1.64081
0.0293498
0.0284736
0.694624
0.0559343
0.0246604
0.604321
1.59469
0.118134
0.02637
0.0225095
0.0257604
2.44685
2.6883
0.17283
2.88549
3.47182
0.133059
2.00963
3.45458
1.74883
0.0538737
0.0246708
0.0238741
0.0341952
0.028136
0.270003
1.61257
0.0246455
0.170627
2.61888
0.0283513
0.0439191
0.0266288
0.0327045
0.366576
2.21276
0.0595851
0.0795667
0.0318486
0.0266934
0.110824
1.18968
0.0869656
0.127513
0.0266774
0.061076
0.0299483
0.0265988
0.0234455
0.0539289
0.0249421
0.0432383
0.172857
1.71619
0.0270959
5.02458
0.0259627
1.57213
0.35188
0.114847
0.0248517
0.189944
0.0239047
0.0810845
0.435153
2.02083
0.105268
1.79279
0.023698
2.83738
0.798375
0.0293293
0.04319
2.28478
0.229118
0.0246072
0.026082
0.0255352
0.751538
3.13747
0.0254747
2.78145
0.0588291
0.0255815
0.0246906
3.15254
4.08135
0.0244526
1.99229
5.49586
0.545533
0.0259579
0.0231822
0.608378
2.63328
0.175635
0.0417996
0.0522543
3.10177
0.210502
0.0880027
0.0527764
0.125739
0.0436476
1.45562
0.0234356
0.0306032
1.81685
0.0244144
2.10243
0.0458736
0.0247129
0.0246361
3.11859
0.0359941
0.0255041
0.0305775
0.0290948
2.06139
2.54759
4.46648
0.0535783
1.1048
0.0592319
0.0242047
1.37973
0.0497903
0.0305444
1.63022
0.0244785
0.0223438
0.035147
0.0254167
1.05482
1.75269
0.0286457
1.36945
0.028004
0.0316309
6.14668
0.0491742
0.284306
0.0537927
0.0244167
0.0270682
0.0777385
0.0350527
0.0522211
0.121387
0.0650649
0.0371327
0.680846
0.374652
0.0275719
0.0496237
0.13557
0.112399
0.0263711
3.20668
0.224066
0.0421415
0.691869
2.50541
3.02841
2.22041
0.0354725
1.84372
0.162674
0.120086
2.43491
0.025405
0.0398094
2.69589
0.0816326
0.341993
0.133811
0.0347249
1.37364
3.10237
1.27405
0.0528821
0.162215
0.0273635
0.58023
3.16147
2.04103
0.0256099
0.0523912
0.184197
0.0391802
0.0809444
0.119164
0.0440876
0.0498558
0.0472675
1.56932
1.95058
0.0385956
0.0656727
2.4763
1.75452
0.0307804
0.0533974
0.092922
1.64042
0.0268454
2.16432
0.0263339
0.0245852
0.0238563
0.0260305
0.133549
0.0245514
0.0224984
0.031697
0.023372
0.0248028
0.758928
0.040448
3.45514
1.56767
0.0409692
0.0646539
0.0883165
0.0273395
0.0247005
0.0243898
1.95497
0.0579858
0.0233787
0.0246146
0.0284278
0.0477534
0.0386414
0.395468
0.0480759
0.0237146
0.0445104
0.428649
0.028624
0.0254007
0.0311577
2.68921
2.63406
0.0367257
0.364517
0.08302
2.74529
0.155478
2.25142
0.0244299
3.71916
0.026477
0.0241948
0.0248554
0.0612405
0.050273
0.024513
0.0387222
0.0246517
0.186797
0.0860469
0.0256107
0.0260425
0.0515789
1.42737
0.0245231
2.43108
0.0263665
2.15521
0.0238788
0.0239416
0.258223
0.0259642
0.0320858
0.0244276
0.0246089
1.64639
0.0660284
0.0299141
0.0233223
1.44767
0.963815
0.0291298
1.89389
2.05812
0.0377089
2.46589
2.04525
1.46627
0.0257444
0.112025
0.0288632
0.111549
2.26629
0.0247132
0.136414
0.0250062
0.111676
0.0300767
0.301746
0.0318275
0.030908
2.53297
1.46193
0.14899
0.0904728
0.0248734
0.529374
2.41901
0.0329653
0.126503
1.55303
0.0750271
0.0242727
0.0249639
0.100128
2.40519
2.43839
1.55171
0.0246379
0.110142
0.02469
2.82056
1.64756
4.47989
1.93301
1.41208
0.024156
0.277293
0.0316474
0.0249351
1.42549
0.0306052
1.20931
0.327683
1.74275
2.74394
0.0362046
1.41421
1.3568
2.25604
0.0281658
0.0242133
2.19509
0.0258652
2.01585
0.0254863
0.0245561
0.026065
1.15691
0.0226554
2.60888
5.24745
0.237849
0.045083
0.923302
1.15103
1.26806
2.80829
3.04209
2.9062
0.151992
0.0242244
0.0793663
5.5873
2.99859
0.0494045
0.0245744
0.0237755
2.71374
0.183258
0.0343116
0.120283
0.0235047
0.0240693
0.207623
0.0265551
3.04914
0.0244527
2.31763
0.0302025
0.0244358
2.46719
0.0621477
0.108907
0.0243831
1.26539
0.12937
0.0307125
0.0692946
1.70417
2.11808
0.0252218
0.0291484
0.0261139
0.0371184
1.33887
1.49991
1.43202
0.0231979
0.124349
1.54293
2.54955
2.50115
0.61401
3.45693
0.0238911
0.0462203
0.312883
2.23414
0.19863
1.14017
0.0241102
2.72387
1.54254
0.024526
0.0306648
0.0646976
2.96948
0.024581
0.0306187
1.31701
0.0226997
5.2155
0.0435571
2.47274
1.17918
1.47316
0.0241864
1.35189
1.15033
1.44242
0.0298948
1.34392
2.16569
0.0235827
0.180988
0.0378533
0.025647
2.00696
0.179805
0.0352638
0.0264832
1.68916
0.0276128
0.0721256
0.0341714
0.0238234
0.134294
0.157001
2.66996
1.83721
0.0228233
0.0366821
0.0620257
0.0426901
2.05177
0.0253195
0.038565
2.49338
1.90246
3.34978
1.93145
0.117852
1.12143
0.0279913
1.71425
0.0810789
0.102542
0.129035
0.0245526
2.25068
1.43399
1.62348
2.64214
2.02821
0.0669621
1.4575
2.28118
2.93654
2.04128
1.54742
2.28161
0.204141
0.202428
0.041701
0.0243275
1.6797
0.0300561
0.0247823
2.28166
0.0363822
0.0939036
0.0246161
1.23667
3.01919
1.37183
0.0342118
2.59838
0.0277914
2.58041
2.21169
0.616619
0.026547
1.42192
0.0357153
0.189495
0.0291705
1.32313
0.0455956
0.0801806
1.85285
0.0274474
0.0316276
2.19082
0.0238688
0.0239362
5.37149
0.159274
0.0365077
1.95601
0.0256531
2.3461
0.0280246
0.0360652
0.0258473
0.0417122
0.0248253
0.19531
1.97462
0.0271045
0.023828
0.609691
0.0932439
0.0243705
0.0538832
0.0283715
0.0795096
1.86908
0.088283
3.54899
2.31751
0.160752
1.40482
0.0253925
0.0267207
0.113623
1.72096
3.13332
6.56624
0.0303298
1.64078
0.0267695
1.94199
0.269906
1.67553
0.0522165
1.86848
2.38703
0.023744
3.24741
0.324814
0.0242242
0.0251305
5.38859
0.0251602
0.088185
0.0258025
0.0388098
0.058324
0.0251983
0.025239
0.160598
2.95838
0.0251194
2.8638
0.292942
0.167085
2.30093
3.45257
0.0247194
1.82129
0.0609945
0.024547
2.57411
0.0378476
0.0504142
1.29998
0.0248433
0.0241727
0.289646
0.0294547
2.06166
0.0263034
0.0290911
0.024394
0.128613
2.48394
2.27912
0.0242676
0.434601
3.19814
0.0500232
0.0291807
1.81662
0.150206
0.0240091
1.20307
2.29071
0.06529
0.0244805
0.0245288
0.0253661
0.0486284
0.0243463
0.0742096
2.83691
0.0242513
2.01009
2.74677
2.87452
2.0474
0.0342812
0.201543
2.96062
0.287497
0.137888
1.41486
2.44648
0.0248612
0.255434
0.0246278
2.05226
0.0243271
0.055223
0.0248354
0.103885
0.280752
0.0263685
3.6782
1.64321
0.0287695
0.0874539
0.0538136
0.0307394
0.0557228
0.101413
2.23352
0.0291394
0.442448
1.71084
1.24436
1.05281
2.31079
0.0240284
0.0245388
0.269885
2.49435
0.164225
1.78311
0.153953
0.0428336
0.373469
0.194137
0.0515703
0.608317
0.0498178
1.89116
0.0256628
2.59967
0.0252569
0.0552841
0.0552032
1.65411
0.052361
1.87226
0.0269938
0.0245714
0.359443
2.97171
2.58218
1.59198
0.190294
1.87822
0.16398
0.0240093
3.35994
0.0242197
2.50166
1.39854
1.97881
0.199288
0.107541
0.186696
0.162042
2.31391
0.0255935
2.08579
2.02839
0.0253066
1.29649
0.132382
0.0365963
0.0268699
0.0289333
1.61201
0.0349442
0.190644
1.86195
0.0245123
0.103428
0.0457459
2.0413
2.91417
0.418237
2.3306
2.1102
0.196688
0.0249415
1.5709
2.12593
0.0256074
0.0835612
2.04137
2.03035
0.0232842
1.93961
0.0239161
0.0249486
0.0248772
2.25536
2.3991
0.0746294
2.25374
0.0243621
0.0260041
0.110887
0.158648
5.80891
0.0276693
0.027688
3.46165
0.155153
0.0251508
0.0241648
0.0924932
0.0245808
0.0600429
0.155058
1.47968
0.165402
0.0274898
0.0515949
2.22943
2.05974
2.1042
2.36856
0.0255476
0.0387186
0.504583
1.5445
0.318896
2.79411
0.0265863
2.08491
0.0318405
0.054258
1.60035
0.0864321
2.13911
0.0290261
1.25254
0.0286696
1.91274
0.0241041
0.0942676
0.0239074
2.11949
1.31595
0.0253303
0.025563
1.398
0.0242836
2.29501
0.329791
1.04193
2.00627
1.73381
0.0245787
0.044845
0.0275901
0.060762
2.20558
3.74907
0.967137
2.22209
0.04085
0.118214
0.0264616
2.71789
0.0875364
0.0236202
0.0248326
0.512166
0.0239576
1.24106
0.0237066
0.0234361
0.0233044
0.193743
1.89235
0.169886
0.0679324
0.0246975
0.0536694
0.134935
2.58866
0.0557518
0.0933401
0.0346265
1.60275
0.0258892
0.078122
0.482719
2.01191
2.15129
0.260392
0.072004
0.0255003
0.0671378
0.138008
1.4377
0.161019
1.58615
0.023919
0.0630013
0.0541567
0.0245059
1.80685
0.0855619
0.024541
0.0270613
7.40014
1.81089
0.0260813
0.0249238
1.74195
1.68288
0.0287936
0.119396
1.97494
0.102098
2.84911
2.17063
2.61731
2.2165
7.59347
0.162818
1.88405
0.0363651
0.673453
1.73378
2.50645
2.69401
0.0354716
2.89528
2.65
0.034791
0.0647637
2.11157
0.187594
2.13845
1.53247
0.0471912
2.55082
0.0303052
2.34175
1.29326
0.0248371
0.0721536
2.14512
0.0252155
0.0277671
0.0583215
0.325113
2.16267
0.0503484
2.11397
0.0292001
0.0224677
0.0262696
0.0261313
0.0621526
0.0560289
0.0246393
0.0611976
0.095292
1.5158
2.78805
2.16961
2.18153
0.0240318
0.169318
0.0394374
0.647836
0.0688537
0.611088
5.52985
2.73627
0.139527
0.0637224
2.162
1.29497
0.0741298
0.0282066
0.0351455
3.03235
0.0248658
0.028836
0.0293125
2.70865
1.16978
2.73648
0.0265777
3.56553
0.0236152
0.0249093
0.0264201
0.024207
0.0265842
0.185723
1.98592
0.119078
0.0801794
2.81318
2.19377
0.249227
1.08835
0.066032
0.0578966
0.134358
0.0286437
1.5926
0.211786
0.470982
0.190475
0.165023
1.60521
0.0265761
2.55081
0.0243773
0.0269221
0.0289796
0.0265989
0.0252117
1.25525
2.7624
0.0573395
0.0248476
2.0737
2.98169
2.34746
0.042211
1.95101
0.0494033
2.18721
0.16793
0.0261623
1.9915
0.05379
0.0552322
0.0688958
1.68723
1.20097
2.20472
0.0239217
0.439212
0.139189
2.68124
0.0282849
0.0342892
0.171775
0.0786914
3.05635
2.90597
0.0450881
3.40009
2.2244
0.0768368
0.059278
0.147895
0.0786256
1.78528
0.0332181
0.17809
3.01547
0.0280142
3.0685
0.0239479
2.88305
2.82409
0.0275929
2.75705
0.140829
0.0517241
0.164608
2.40124
2.40814
0.0741484
1.48552
0.0278539
0.0400184
2.83562
1.3772
0.025677
2.83367
3.16758
0.0790894
1.26626
0.152048
2.23383
0.204248
0.0318159
2.91997
2.93306
2.75315
0.0242409
0.031829
0.1717
1.63554
0.0573956
2.43171
1.97362
0.174369
0.0245242
0.024213
1.47263
0.0242425
0.049811
0.0373309
0.05369
2.00431
0.717137
2.77945
0.0267502
0.174294
0.0792134
0.0599697
2.16664
0.338051
0.919426
0.0286729
1.63749
0.501117
0.0307644
2.24665
0.0259539
1.68981
0.0498293
2.38991
0.0243107
0.127008
0.067421
0.1144
2.26706
1.84484
1.89103
2.9578
0.0227408
2.31142
0.0602237
3.22772
0.0417449
2.21846
0.0240866
1.7872
2.94494
0.0402627
1.8602
2.64521
0.0292996
2.96775
0.112344
0.0299532
0.0243521
0.205517
0.132924
2.74859
0.0245833
2.38693
0.0241434
0.0523851
2.19828
0.0795965
3.38141
3.00765
0.0425782
0.0586912
3.01923
0.024839
0.0236512
0.0249759
0.0656804
0.0925122
2.25327
0.196074
2.74817
0.0237164
2.28047
0.0350728
0.662157
0.141135
0.0797771
3.03356
2.17793
0.0309523
0.305862
0.380186
0.14223
0.109812
0.0331002
0.0232528
0.0254304
0.0472278
0.176831
0.0916829
0.107755
1.71242
0.108842
0.098038
3.20665
0.0244087
0.0675275
1.98514
2.29513
0.282714
3.16809
0.0853845
0.0296361
0.0292795
3.10568
0.0346953
1.52741
0.0261836
0.0249685
0.20017
0.0244171
0.0800394
0.0364017
0.0485875
0.0516496
3.24035
2.1902
2.31905
3.07818
0.0243225
2.26308
0.131246
1.57331
0.110623
2.15592
0.190773
3.15804
2.17039
0.179232
0.139694
2.26029
0.0245946
2.59979
3.15318
0.0339795
0.0279106
2.58
0.0312311
0.0248993
0.0548926
2.97331
1.54345
0.0274888
1.73623
0.281214
0.0280532
0.0232914
1.36272
0.0409557
2.01546
0.0325306
0.024836
0.18151
0.058309
2.33416
0.0658018
1.69522
0.0485751
2.30256
0.109252
0.0229473
3.14961
0.0232637
0.0485885
0.0997523
2.63025
0.0513715
2.9829
0.0873461
3.19966
1.61126
0.336845
3.06714
3.14486
0.319949
2.73762
0.118786
0.580772
0.0251058
0.0573585
2.86538
0.0247117
0.169615
2.35625
0.0397593
0.0263218
2.0123
0.0295107
0.048536
0.131447
0.0387323
0.10836
0.0256502
3.17369
0.0317469
2.17578
0.185636
2.31064
0.119395
0.0501856
0.027364
0.109056
0.0257687
1.93868
0.0231198
0.0982113
2.23301
0.0241314
0.0780558
2.35503
3.00819
0.108974
0.0263579
0.0657971
0.136137
0.464603
0.0235275
1.25182
0.378535
0.0300075
0.107924
3.48987
0.0259142
0.111212
0.0809014
0.024061
0.0233461
2.82569
2.07985
2.99317
0.143245
2.20591
2.90679
0.0838476
0.0999067
0.213182
0.182973
0.242436
0.0236137
0.023246
0.0315157
2.8198
2.23684
0.309211
2.3116
0.187826
0.0243224
3.48307
3.06578
0.0855783
0.031407
0.418532
0.111482
0.0306542
0.177251
0.02517
0.0301966
0.0321339
0.0601044
0.0309347
0.373614
1.48858
0.3415
0.0243488
0.0367482
0.0629557
0.185676
0.0331582
0.454794
0.0504359
0.0504482
0.0611355
0.0232061
0.0246038
0.0276458
0.146147
0.0797233
1.78643
0.0406542
1.51246
0.0244493
0.0382814
1.52597
0.0262199
0.029928
0.0581041
2.20842
0.02515
2.47528
0.0305234
0.0438152
0.0251539
0.0269862
1.46307
0.0241606
2.22807
0.030369
0.0271805
0.0894107
0.0483976
1.18106
0.109116
1.49532
0.111937
0.0266214
0.108428
0.0347269
0.109199
2.02499
1.66432
0.0919448
2.2533
0.0834665
0.0248613
0.0271304
0.0353383
0.0346783
0.11205
0.0277332
2.24194
0.0543097
0.0240484
0.026785
0.107867
0.365842
0.486487
0.546794
0.0302562
0.0649912
0.0297259
2.03468
0.0241031
0.0298096
0.0245556
0.0263602
3.06265
0.144386
0.557579
1.41839
0.107447
0.0646053
0.0235714
2.3845
2.29029
0.0244416
0.0613186
2.69544
0.0323252
0.0271793
0.0343587
1.51023
0.0293614
0.0286358
0.0268604
0.0265951
0.0249352
0.0318143
0.0235717
1.03952
1.23867
1.85775
0.0672633
0.0238634
0.0291944
1.14787
0.0284627
0.0285075
0.107994
0.0380609
0.160382
3.78816
0.0352115
0.0273341
0.61724
0.0276806
2.26569
1.3356
2.24745
0.0315064
0.371781
0.02796
0.0248718
0.193405
0.0928623
0.377439
0.0371203
0.107385
0.0265675
0.026988
1.86674
1.70414
2.63674
0.0270631
2.29829
3.65674
0.0602332
0.0243127
0.0465398
0.0254848
1.16217
0.0319718
0.0337642
1.73273
2.26553
0.0236736
0.0355928
2.46854
0.0433696
0.0378617
0.0465732
0.0267554
0.0464976
2.79257
1.60208
0.136731
0.0279317
0.029274
0.025313
0.0246886
0.233318
0.047087
0.036201
0.274603
2.27247
0.0245081
1.11735
1.64735
2.53163
0.145374
2.31348
0.0354948
0.106304
0.0941404
0.0302816
0.459438
0.0802441
0.0242807
0.09099
0.0800116
0.0235751
0.0242783
0.0293648
0.0334886
2.27224
0.0270781
0.02367
0.0268008
2.98973
0.0302085
0.0480393
0.235187
0.0241563
0.0307883
0.0298546
0.0272351
0.028111
2.41629
0.028317
0.0277537
0.0240712
1.26552
0.0472523
3.16164
0.0264143
0.353923
2.26012
0.03855
0.0245438
0.0259744
0.0328343
0.0345236
0.0269005
0.0387064
0.0277757
0.026487
0.0258996
0.0835549
2.27788
0.0275094
0.027814
0.0695337
0.0307883
0.0231358
2.33885
0.0372251
0.0611104
0.0237231
0.0241348
1.52325
0.0243539
0.0239122
0.0243137
2.8692
0.0295097
1.55902
0.0243702
2.11782
0.0284809
0.158729
0.0351399
2.2845
0.10667
0.0791548
0.0336954
0.0265341
2.34338
0.146601
2.89382
0.0331891
0.0252436
0.0280264
0.0263029
0.0246375
0.030471
0.0794022
0.224245
0.0294014
0.0278083
0.0465762
0.0243842
3.15819
0.0245502
0.0289075
0.0347183
0.0251849
0.190499
0.0502528
0.023627
0.0230667
0.36932
0.0637658
0.080055
1.67534
0.0252016
0.233825
3.03501
1.91315
0.0229897
0.188839
0.0272287
0.0277945
2.29167
0.0298167
0.786048
0.028648
2.13653
1.41327
0.0742371
0.0245178
0.028971
2.12175
0.0268902
0.106137
0.0465972
2.4192
0.0365928
0.258544
2.12505
0.577064
0.0468504
0.184026
0.0283597
1.63262
0.211649
0.0260348
0.0736541
0.0253724
2.54654
0.0375661
1.69294
0.0348156
0.175111
0.278577
0.0416925
0.0266838
0.0491637
0.0277168
0.0279744
0.0244487
0.0277237
2.94126
0.0248733
3.52324
2.45198
0.285078
0.0287987
0.0289955
0.147641
0.0261428
0.0230744
0.0393289
0.0279703
2.47234
0.0621879
0.0323876
0.0254416
0.0244058
0.205009
0.026132
0.0232623
0.0248849
3.17589
2.06842
0.227949
0.0813066
0.0363642
0.0263282
0.0258137
0.215884
0.0236181
0.0328735
0.0252457
0.0248293
1.38205
5.37642
0.0903424
2.32167
1.27199
0.0258862
0.0252072
6.24906
0.0799422
0.100937
0.0744236
0.0462801
0.101866
0.0288017
1.27138
0.0258848
0.0563832
1.2189
1.32526
0.0245985
0.148771