/*--------------------------------*- C++ -*----------------------------------*\
| =========                 |                                                 |
| \\      /  F ield         | OpenFOAM: The Open Source CFD Toolbox           |
|  \\    /   O peration     | Version:  v2012                                 |
|   \\  /    A nd           | Website:  www.openfoam.com                      |
|    \\/     M anipulation  |                                                 |
\*---------------------------------------------------------------------------*/
FoamFile
{
    version     2.0;
    format      ascii;
    class       volScalarField;
    location    "100";
    object      omega;
}
// * * * * * * * * * * * * * * * * * * * * * * * * * * * * * * * * * * * * * //

dimensions      [0 0 -1 0 0 0 0];


internalField   nonuniform List<scalar> 
14804
(
0.0225397
0.0240058
2.57358
0.0236206
0.0382925
0.0297884
3.74554
0.0449939
0.0276596
0.0232787
0.0430748
1.45642
0.198844
1.316
2.27926
0.0275281
6.10956
1.32453
0.0275695
0.0225228
0.0240693
0.0382982
0.043101
0.0283232
0.750074
3.74767
5.04462
0.024696
2.29215
2.02919
1.56951
6.09127
0.0326949
0.045073
3.20648
0.0236846
0.0241589
0.0281207
0.200873
0.0224339
0.314713
0.206684
0.150817
0.027075
1.33006
1.58323
0.326778
0.0236189
0.0931901
0.0240385
0.0249369
0.0261613
0.0248735
0.0449832
0.0330398
0.0246581
5.14374
4.61729
0.999481
0.206758
4.58781
3.17386
0.0224785
0.0239242
0.0284333
1.42422
0.427063
0.0293278
0.023409
0.0293877
0.0307703
0.0287522
0.0283275
0.0623066
2.53404
0.0249214
0.0254379
0.081839
0.0222476
0.0758521
0.0716264
0.0372551
0.0621969
2.20664
0.0272228
0.0255147
0.0255364
0.0239035
0.0380147
0.0377418
1.93446
0.0238708
0.0224352
0.0246343
0.0237375
2.133
0.0255666
1.35894
0.031056
0.037261
1.56788
2.29053
0.192793
0.0286329
0.122636
0.729126
0.0292892
0.0260003
0.0312516
2.68293
0.0256863
0.029399
3.03874
0.0551357
0.0340809
2.73049
0.489657
0.158839
0.0278941
0.0231316
2.56554
0.119546
0.0246271
0.0653267
0.0279323
0.0573502
0.0246767
0.0249098
0.0437029
2.03772
0.0228806
2.13246
0.027114
1.47451
0.0247813
1.87565
0.826111
0.0345688
2.57236
1.07359
0.0241725
0.0265549
0.0338913
0.0272026
0.380104
0.0274939
0.19452
0.199361
2.28567
0.0294643
0.423561
0.0229021
0.179185
0.555651
0.0225776
0.022913
0.778088
0.029001
0.025596
2.22588
0.0247487
0.0236977
0.0250479
0.0270305
0.0343043
1.59998
0.0252505
0.023781
0.0621334
0.0289012
0.0247431
0.0281657
2.43906
0.0276709
0.523379
2.24701
1.27758
1.46509
2.4497
0.074854
0.0247229
0.0900813
0.0250069
0.994956
0.0239585
2.64664
1.90351
2.2748
1.43631
0.0258476
0.0256756
3.07495
1.69285
0.784163
1.79895
1.43098
1.99677
2.30902
0.0249882
2.09129
0.024975
0.0251683
0.0237765
3.00084
0.0302534
0.117542
1.51826
0.712455
0.0640498
0.0246153
0.0261487
2.66875
0.026068
0.0236394
2.13489
0.0246943
0.259483
0.0247132
0.271021
0.743199
0.0590493
1.30708
0.0259908
0.0652089
2.58395
0.116428
2.28474
0.0246236
0.362839
1.19532
0.0836772
1.7907
0.0250551
0.0246467
1.197
0.0254866
2.85571
2.00611
0.0254966
1.06647
3.05263
0.0813173
1.56556
2.35252
0.0264726
0.023974
0.0668379
4.50827
0.0403281
0.0295261
2.85717
2.26632
0.0246268
0.0296801
0.0260472
0.362884
2.2654
2.98265
2.10819
2.37541
0.030023
0.764771
0.0251196
0.0491064
0.0256159
3.92589
0.0244076
0.377113
2.62217
0.0224645
0.0246262
0.230455
0.192035
3.34779
0.0866206
1.26158
0.0254585
0.0891598
0.0224391
1.26764
0.0244243
2.61714
0.0250158
0.0582472
0.0254933
2.30509
0.0283349
3.57046
0.0248325
2.30046
5.40354
0.0895672
0.0810546
3.1378
0.0281148
0.0344219
3.01071
0.0249289
0.0364573
0.0236962
0.0265293
0.0665225
0.0248295
0.0842971
0.0258709
1.48558
0.357963
0.0246151
1.92861
0.0621829
0.0258191
0.0247132
2.87518
0.0236611
1.58736
0.0259751
0.0657919
0.0247548
0.225105
0.0253487
0.0265266
0.0270085
2.81153
1.38043
0.0246425
0.023899
0.0596865
2.75436
3.06271
0.0651426
0.0913547
0.02462
0.0249159
4.71173
0.0273329
2.33222
0.0875827
5.5072
2.6177
2.33343
2.27421
0.178368
2.19365
2.73213
0.0258484
0.0253726
1.9658
1.71887
0.0252883
0.0286246
0.0591939
0.0229298
0.0237125
1.58714
0.0244829
0.0259944
1.64132
0.0272576
1.4213
0.0249404
0.0718435
0.0242506
2.19586
2.44252
4.41362
0.0689413
0.0249169
1.84161
2.40741
0.0700951
0.0259134
2.22441
0.0249629
0.945315
0.037566
2.6877
2.67524
0.0487337
0.0242934
0.10875
0.0251669
0.0424423
2.38391
0.0293597
0.0248491
0.0232438
0.0236923
0.0244699
2.51219
0.0260124
2.66162
0.0574396
0.0404475
0.0253366
0.0246414
2.34469
0.434679
0.0500233
0.333664
0.121291
0.0350066
0.0651352
2.27868
3.03804
0.241682
0.0403678
0.134584
0.0239495
0.0561732
0.0239594
0.024718
0.0868041
5.78762
2.27325
0.380642
0.0245413
1.21876
0.0247161
0.0309877
0.0351869
1.48955
0.0285947
0.148636
1.84243
0.0282247
0.0246217
0.179638
1.20452
0.0860665
0.0275975
0.0252058
0.0231376
0.942783
2.07907
0.0270301
1.86235
0.0959401
1.20968
0.0246023
2.92141
2.314
0.0256006
0.136244
0.0259057
0.0535199
0.0839133
1.32755
0.028733
0.0250318
1.48787
0.207093
1.1291
2.82568
0.365183
2.24667
0.0244741
1.33596
0.0235675
0.160143
0.054019
0.0344258
0.0656359
0.0299064
1.56615
0.024629
2.66352
0.0555646
0.0554115
2.20002
0.0256871
0.0246469
0.0236141
2.29668
3.25958
2.26565
0.0874807
0.023182
0.224201
0.025414
0.11901
0.0284187
2.33589
2.07572
0.19363
2.59492
0.0493723
1.8809
0.0266282
2.46124
2.3083
2.97932
2.31199
0.167663
0.987417
2.47697
0.0238757
0.0240487
0.498277
0.0239832
0.0377075
0.0480448
0.0283937
0.0253123
2.37417
0.0296261
0.0554317
0.168725
0.0296243
0.0231857
3.03501
0.0960523
2.95447
0.928933
0.0283675
0.0879773
1.15732
2.23071
3.00114
0.0244396
0.0553456
0.0254464
0.130434
2.0912
2.20193
2.26921
2.23568
0.193147
4.0474
2.42818
1.25306
0.312422
0.0229052
2.28014
1.50754
1.02933
0.0258253
0.314481
0.0288999
0.357108
3.1036
0.0272513
1.64465
0.0260227
0.0635902
0.0244253
0.0296691
0.941915
0.0242222
0.0282788
0.0274245
0.0272887
0.0243739
0.0244419
0.023659
0.122623
0.023175
1.50895
1.06609
0.0267789
2.33813
0.0259227
4.47627
0.0242236
1.23208
0.025806
1.62034
0.0240957
0.475614
2.20519
0.0253311
0.0411375
0.634149
2.88721
3.11292
0.0433536
0.0594186
1.54607
2.42192
0.0502074
0.0231381
2.18212
0.0227014
0.121512
0.996705
2.33285
2.32484
0.0247932
0.0256472
0.0232207
0.0262288
0.0536706
0.0269627
0.4279
1.68163
0.72004
2.36887
6.62611
5.93692
0.122902
0.0285152
1.9328
2.95729
0.0242307
0.0868229
4.71278
1.36846
0.0296069
1.03644
0.0288341
0.062664
2.89908
0.0246595
1.97046
2.77304
1.81797
5.66716
0.260543
0.024731
2.41326
0.0229684
0.0860492
0.173839
0.352603
1.19005
0.0304007
0.0297519
0.740778
0.031252
0.239779
0.0280648
0.0227197
0.0223781
4.48004
0.0256478
0.0283539
0.0222624
0.183525
0.915053
0.085579
0.0346457
0.761801
0.461717
0.0253766
0.0815921
0.0238215
0.0252379
0.0268973
0.0224364
0.0244215
0.0852774
1.3595
2.67977
0.0267178
0.0244626
0.36257
1.37866
0.789284
0.146435
0.0873397
0.113649
1.04554
0.0250042
2.48216
0.025624
0.104317
2.85042
2.93354
3.10097
0.0618652
0.0223598
2.05252
0.0620857
0.0257114
0.180878
0.0692603
0.0271567
0.408281
0.0327554
1.28368
2.36271
0.0223662
0.13912
1.94355
2.89453
0.050029
0.026044
2.02486
0.0245628
0.0248694
0.0419513
0.0233027
2.15435
3.59516
0.0291857
0.0510526
0.0262001
0.0299198
0.370622
0.0843985
2.16547
0.0244913
1.90638
0.0231601
0.0255433
2.77346
4.4882
5.10534
2.88832
0.0266826
2.79738
0.0242137
0.132279
2.39839
2.30301
1.55459
0.494675
0.0244894
0.0256764
0.195394
1.76986
0.709534
0.0309846
0.0247461
0.0863165
1.95385
1.34119
0.0273692
0.0274664
0.0239973
0.358159
5.94089
0.44272
0.380995
0.0658651
1.48894
0.0244585
0.0262815
0.0247315
1.94189
0.102644
0.0517979
0.771476
0.0242536
0.0306206
5.72178
0.0455367
2.70057
0.0244494
0.0232313
0.0223651
0.0475115
0.104752
0.632033
0.0839423
2.58112
0.0639403
1.64673
0.0270928
2.95707
0.0253885
0.0573824
0.0249229
1.5919
1.96529
5.14712
2.40557
0.025197
0.0242445
2.27255
0.389982
1.38944
1.57796
0.0261296
0.0246383
1.81674
0.0493403
0.0597412
0.025459
5.79592
0.369818
2.61463
0.0240276
0.0291607
2.20725
0.0564236
2.29159
2.21396
0.0356463
0.0248935
2.19374
0.326014
0.0584411
0.0251514
0.0302254
0.0244399
0.116612
2.01003
0.701938
0.024719
0.0246909
2.1904
0.0245518
0.0246142
1.93144
0.0222399
0.0309386
0.0247151
0.187756
0.0248227
0.0672154
2.74738
0.0242377
2.54608
0.0272441
2.67747
0.0243206
0.0256459
2.28639
0.786939
2.78849
0.0319234
1.11165
0.0279132
0.0250177
2.88256
0.0235882
0.024724
0.0247326
0.0247245
2.77082
0.025761
0.0271143
0.320091
0.0229555
2.70761
0.0284584
1.61011
0.0236033
0.0984798
2.2105
2.4137
0.438276
0.0253227
2.19456
1.80224
2.37171
0.0238961
0.053955
0.0323816
0.0250613
0.0249921
0.024243
2.14452
2.78241
0.0318891
0.0853312
0.0254939
0.063696
1.33923
0.507076
0.0269764
0.0297287
1.53853
2.6216
0.0237223
0.0239129
2.66876
0.0486074
2.41174
2.66433
0.04883
0.0304544
0.025746
0.397602
0.0236803
0.0251392
0.0580209
2.21662
0.0239677
0.0247792
0.0240056
0.0235013
0.0743983
0.0239434
0.0246416
2.12499
1.74756
0.702948
0.346653
4.15557
0.0242146
0.0384761
2.29104
0.0285599
0.0264329
1.92137
0.024843
0.165834
2.77127
0.0454467
0.0237688
0.0244372
0.0442405
0.0265351
0.15276
0.0460791
0.0309346
0.405128
0.71321
0.0666473
0.0774432
0.0237399
3.07399
0.347598
0.0427101
2.32396
1.65206
0.0242244
0.0867943
4.44137
0.0248649
0.0305396
0.0293489
0.026265
2.43728
3.03439
0.0688735
0.0364406
0.0241917
0.0253946
0.0238005
0.0262359
0.0268613
0.0258941
1.05416
1.19823
0.0280969
1.67107
1.11499
1.97903
0.0459814
0.0273622
1.68793
2.7178
1.37783
0.316967
0.0284863
0.108354
2.04689
0.0347243
0.0261451
0.0263352
0.0259921
2.96356
0.0628952
0.0286866
0.0475848
1.5402
2.24176
0.0268332
0.0649169
2.45609
0.0247055
0.0245563
0.0498746
0.0286339
0.0260501
0.0270914
2.53867
0.0298135
1.29116
2.42679
0.0546991
0.184685
0.183036
0.581092
0.023422
0.026397
0.0358942
1.58507
0.0246659
2.66313
2.14345
1.07205
0.0246335
0.205068
3.17145
0.103121
0.0580088
0.0380584
0.0606206
0.0319966
1.85227
2.73109
0.0259625
0.263376
0.0257724
0.0286067
1.88361
0.0685115
0.0245105
1.51555
0.248658
0.024257
0.568917
2.40105
1.9936
0.0249663
0.0549403
0.0622235
0.0252331
2.20756
0.0242115
0.12435
0.0321168
2.63222
0.0237534
0.0452707
0.118315
0.0245335
3.08143
1.30419
2.51583
0.122496
0.0564011
2.49088
2.7086
0.0235765
0.0270662
0.0259468
0.024669
0.0842532
0.0321103
0.0254258
2.35517
0.1175
0.0244492
0.0246503
0.0325205
0.167086
0.0237116
0.0246209
0.0268701
0.0246902
0.18853
0.191393
0.0774927
0.117538
2.85911
1.16689
1.53502
0.450726
0.0262553
0.26011
2.85555
1.94286
0.0223824
0.023433
0.0246413
1.45847
2.34222
0.0274343
1.41392
0.0247739
0.0269441
0.0635876
2.19254
0.178591
0.0238986
0.0291672
0.0248751
0.0242835
0.084545
0.0233835
0.0341007
0.0224144
2.53201
0.0271957
0.0342425
0.027194
2.04054
3.00842
0.0244662
0.0252704
0.0858539
0.0224278
0.852055
0.164505
0.0471772
0.0242956
0.0711594
0.0260653
0.287855
0.0256401
2.44553
2.25444
0.0537944
2.84323
2.11104
0.0233238
0.152691
2.89992
0.932451
0.163698
0.0295539
1.92677
2.25608
2.90538
0.0249152
0.0278306
0.038419
0.150936
0.157781
0.0296547
2.8242
0.0557793
0.0266257
0.0304865
2.44008
0.0666832
2.47897
1.83475
2.54133
0.202767
0.030644
0.0242448
2.57406
3.82639
2.7227
0.11641
0.0225827
2.73423
0.022408
0.0283274
1.33279
0.0253769
3.04186
0.0245046
0.0245743
0.0234307
0.0271093
0.0258409
0.831849
0.025478
3.06018
0.346219
0.0225181
0.0515055
2.46665
1.77972
0.0247566
0.0267481
0.0237064
3.08605
0.024033
1.50472
0.0325716
0.0241371
2.44051
2.90039
2.0824
0.218365
0.0640675
0.0249198
1.72714
1.37372
1.96641
0.0255392
2.30495
0.0284787
0.0256916
0.0263835
0.0291826
2.58058
0.0824979
0.202888
0.101734
0.586621
2.20701
2.94352
0.0377028
0.0298471
0.506324
0.024998
0.198565
0.0261025
0.0582218
1.75823
0.022355
0.0474256
0.444555
1.7863
0.0372244
0.0269542
0.0224763
0.025672
1.03132
0.0735091
2.40674
0.0802569
1.82266
2.59704
2.94044
2.75827
0.420215
0.0760669
2.18366
0.589858
1.97804
0.0664847
0.0301673
2.06926
0.0522069
1.53243
1.92373
0.403623
0.0246116
2.37291
3.1602
2.59241
1.80396
0.0319241
0.0237517
0.0238668
1.89953
0.0252925
0.024245
0.0239748
0.0276377
0.0240828
1.47358
0.188569
2.12126
0.0248651
0.980498
0.0267386
3.26597
0.0236539
2.92634
1.78514
0.02517
0.384948
0.0226207
2.28011
2.68431
0.0513211
0.0263693
0.0238352
0.0268202
0.103277
0.0838788
0.0308397
5.66889
0.0671519
0.306803
0.0718022
0.845202
1.57865
0.0454369
0.282692
2.76779
0.0621746
0.0414055
0.0250043
2.24683
0.0255622
0.416898
0.0657071
0.0246418
0.024526
0.0240484
2.77553
0.0687234
2.20774
2.57366
0.0225013
2.62267
2.21596
0.0302572
1.02348
0.0238621
0.0250057
0.0249253
0.046884
0.15251
1.17571
6.27369
0.026217
0.147854
2.17214
0.0238582
2.38203
0.210877
1.97187
0.0454465
1.25305
0.120961
0.18905
0.0237683
0.0258578
2.29162
0.161548
0.0325918
0.117695
3.06908
0.0227739
2.75501
0.0267667
0.0268645
0.0245684
0.0246544
0.0246905
0.0266448
2.88789
2.23844
2.28533
0.0373139
0.12812
2.1317
0.0280339
2.27014
2.4931
4.40124
0.0247378
0.168357
0.0238688
2.39598
2.49674
0.0630181
2.56971
2.97769
0.120119
2.08546
0.0227368
0.0249791
3.45549
1.16557
0.0255903
1.93519
2.94963
1.92083
0.0240674
0.165343
3.13315
2.17109
0.0225252
2.56976
0.0246589
0.0249583
1.52299
1.17944
0.0246766
0.0285718
0.181195
2.49141
0.0248937
0.0309315
0.0225004
1.1558
0.0287155
0.0906172
0.0243291
0.0298848
2.53053
0.0252616
1.11867
0.0763455
0.0288163
2.24311
2.18929
1.71973
0.0226192
0.0274985
1.81853
2.48664
1.26786
0.119268
0.0245654
0.0262275
0.0865031
0.0239059
2.52209
2.24982
0.023116
1.82964
0.0248114
1.05561
2.37222
0.160753
2.16388
0.219313
2.19978
2.63761
0.030834
0.0692484
0.0254106
0.649308
0.272723
0.0284386
0.0238599
0.0249471
0.0985585
2.22963
2.96493
2.90917
0.0233704
0.0223213
2.9809
0.0610298
0.0252471
0.026345
3.10145
1.67582
0.0259121
0.0282971
0.0240009
0.0808371
0.0269841
0.0245933
0.025044
0.0246584
1.89997
2.47404
2.2595
2.5351
0.117234
0.0246017
0.0242834
0.0865841
0.159614
0.731812
0.0689852
1.25824
0.7099
0.0272005
0.02439
0.0246127
0.0247195
0.163146
0.544184
2.26469
0.118752
0.086586
0.0808473
2.49821
1.26333
0.668339
0.033314
0.0226389
0.0253684
0.0252996
0.0666983
2.15565
0.0452956
0.0399663
0.0249311
0.0275451
0.16621
0.0285883
0.389773
0.0249399
0.0607054
2.64168
1.10048
0.0637526
1.83515
2.30568
0.0245859
5.079
3.25362
1.18954
0.0245985
0.0898317
0.0244593
2.47645
0.0294361
3.09912
0.0263506
1.83852
3.0663
0.0234582
0.0580659
0.250874
1.56627
1.41779
0.0545337
2.16057
0.0239471
2.16332
0.206612
0.0264304
0.0368074
0.0440227
2.26004
1.27558
0.0650015
2.12933
0.0249121
0.0257178
0.0233016
0.0302186
0.0374442
0.48415
0.0280129
1.6402
2.83314
2.25664
2.86116
0.109083
2.92279
0.118699
0.0444428
0.0255608
0.0247136
0.0944494
0.181463
2.2433
0.0249954
0.025334
0.0224689
0.0256855
0.0243711
0.200107
0.373435
0.0237161
0.0243962
0.0242785
0.114986
2.59778
0.0227497
2.91141
0.0237803
2.55808
2.13136
0.300949
0.286003
2.79502
0.627049
1.45402
1.64084
0.0293495
0.0284764
0.695727
0.0559337
0.0246605
0.6027
1.5946
0.118133
0.0263699
0.0225096
0.0257603
2.44737
2.68829
0.172827
2.88548
3.47177
0.133172
2.0096
3.45453
1.7488
0.0538733
0.0246708
0.0238741
0.0341948
0.0281358
0.269896
1.61256
0.0246454
0.170626
2.61888
0.0283512
0.0439185
0.0266289
0.0327042
0.365947
2.21272
0.0595844
0.0795659
0.0318483
0.0266933
0.110823
1.1893
0.0872002
0.127512
0.0266774
0.0610752
0.0299481
0.0265989
0.0234455
0.0539283
0.0249421
0.0432378
0.172856
1.71614
0.027096
5.02452
0.0259616
1.57218
0.351358
0.114846
0.0248517
0.189945
0.0239047
0.0810837
0.436065
2.02086
0.105267
1.79279
0.023698
2.83737
0.797599
0.0293291
0.0431895
2.28475
0.229195
0.0246072
0.0260819
0.0255354
0.751621
3.13746
0.025475
2.78144
0.058829
0.0255815
0.0246905
3.15252
4.0815
0.0244526
1.99233
5.49579
0.545255
0.0259578
0.0231824
0.608367
2.63328
0.175635
0.041799
0.0522537
3.10176
0.210502
0.0880031
0.0527344
0.125738
0.0436471
1.45558
0.0234356
0.030598
1.81679
0.0244144
2.10239
0.045873
0.0247129
0.0246361
3.11855
0.0359937
0.025504
0.0305772
0.0290946
2.06144
2.54759
4.46641
0.0535792
1.10496
0.0592311
0.0242048
1.37967
0.0497899
0.0305441
1.63019
0.0244784
0.0223439
0.0351466
0.0254167
1.05538
1.75263
0.0286455
1.36941
0.0280038
0.0316294
6.14662
0.049175
0.284616
0.053792
0.0244167
0.0270681
0.0777835
0.0350523
0.0522205
0.121385
0.0650642
0.0371323
0.680944
0.374697
0.0275718
0.0496163
0.135576
0.112397
0.026371
3.20662
0.224194
0.042141
0.69204
2.5054
3.0284
2.22021
0.0354722
1.8438
0.162673
0.120085
2.43488
0.0254049
0.0397999
2.69588
0.0816365
0.341554
0.133811
0.0347246
1.37335
3.10235
1.27399
0.0529063
0.162211
0.0273634
0.580173
3.16146
2.04096
0.0256098
0.0523906
0.184196
0.0391785
0.0809437
0.119165
0.0440871
0.0498552
0.0472669
1.56937
1.951
0.0385946
0.0656718
2.47629
1.7545
0.0307802
0.0532652
0.0929213
1.64051
0.0268453
2.16429
0.0263338
0.0245852
0.0238563
0.0260304
0.133556
0.0245513
0.0224984
0.0316968
0.0233719
0.0248028
0.758263
0.0404622
3.4551
1.56779
0.0409687
0.0646531
0.0883176
0.0273378
0.0247004
0.0243898
1.95502
0.0579929
0.023379
0.0246146
0.0284276
0.0477528
0.0386411
0.390291
0.0480753
0.0237146
0.0445288
0.424939
0.0286239
0.0254007
0.0311574
2.68921
2.63405
0.0367253
0.363899
0.0819235
2.74523
0.155479
2.25139
0.0244298
3.71902
0.0264769
0.0241948
0.0248554
0.0612406
0.0502724
0.0245131
0.0387218
0.0246511
0.186795
0.084941
0.0256118
0.0260427
0.0515782
1.42758
0.0245231
2.43106
0.0263666
2.15517
0.0238788
0.0239416
0.258269
0.0259641
0.0320855
0.0244258
0.0246089
1.64636
0.0660242
0.0299138
0.0233223
1.44743
0.963848
0.02913
1.89384
2.0581
0.0376947
2.46589
2.04526
1.46626
0.0257464
0.112024
0.028863
0.111548
2.26626
0.0247132
0.136406
0.0250062
0.111676
0.0300765
0.302075
0.0318272
0.0309077
2.53294
1.4619
0.148978
0.0904721
0.0248734
0.529274
2.419
0.0329469
0.126489
1.55292
0.0745605
0.0242726
0.0249638
0.100128
2.40479
2.43836
1.55183
0.0246379
0.110141
0.02469
2.82055
1.64745
4.47982
1.93295
1.41203
0.024156
0.277064
0.0316472
0.0249351
1.42523
0.0306049
1.20946
0.327851
1.74263
2.74394
0.0362043
1.41416
1.35679
2.25602
0.0281656
0.0242133
2.19506
0.0258651
2.01576
0.025487
0.0245561
0.0260652
1.15729
0.0226555
2.60887
5.24728
0.238252
0.0450824
0.923475
1.15099
1.26798
2.80829
3.04207
2.90618
0.151992
0.0242244
0.0793655
5.58721
2.99858
0.0493965
0.0245744
0.0237755
2.71374
0.183255
0.0343112
0.120282
0.0235046
0.0240692
0.207622
0.0265552
3.04901
0.0244527
2.3176
0.0302028
0.0244357
2.4672
0.0621469
0.108925
0.0243831
1.26522
0.12937
0.0307124
0.0693227
1.70403
2.11809
0.0252217
0.0291487
0.026114
0.037118
1.3388
1.49978
1.43193
0.0231979
0.124348
1.54288
2.54951
2.50112
0.613589
3.45679
0.0238911
0.04622
0.313355
2.2341
0.198629
1.14014
0.0241102
2.72384
1.54243
0.024526
0.0306647
0.0646968
2.97005
0.0245809
0.0306186
1.31695
0.0227
5.21544
0.0435564
2.47275
1.17914
1.47316
0.0241864
1.35181
1.15029
1.44232
0.0298946
1.34394
2.16564
0.0235826
0.180986
0.0378528
0.0256469
2.00692
0.179803
0.0352634
0.0264831
1.6892
0.0276127
0.0721526
0.0341711
0.0238233
0.134295
0.157001
2.66995
1.83721
0.0228236
0.0366817
0.0620312
0.0426908
2.05179
0.0253195
0.0385647
2.49336
1.90241
3.34974
1.93139
0.117851
1.1218
0.027991
1.71431
0.0810782
0.102541
0.129036
0.0245526
2.25065
1.43403
1.62344
2.64213
2.02817
0.0670375
1.45746
2.28115
2.93653
2.04126
1.5473
2.28159
0.204137
0.202431
0.0417005
0.0243274
1.67955
0.0300617
0.0247822
2.28163
0.0363819
0.093903
0.0246162
1.23662
3.01917
1.3718
0.0342122
2.59795
0.0277913
2.58037
2.21166
0.616679
0.0265469
1.42188
0.035715
0.189452
0.0291703
1.32307
0.045595
0.0801799
1.85267
0.0274473
0.0316244
2.19079
0.0238688
0.0239362
5.37143
0.159274
0.0365074
1.95597
0.0256503
2.34607
0.0280242
0.0360648
0.0258473
0.0417127
0.0248252
0.195312
1.97458
0.0271057
0.0238278
0.609534
0.0932432
0.0243706
0.0538831
0.0283713
0.0795087
1.8691
0.0882877
3.54896
2.31748
0.160752
1.40457
0.0253926
0.0267206
0.113623
1.72082
3.13331
6.56606
0.0303299
1.64096
0.0267694
1.94193
0.270296
1.67538
0.052216
1.86844
2.38764
0.0237439
3.24738
0.324801
0.0242243
0.0251305
5.38857
0.0251601
0.0881774
0.0258025
0.0388093
0.0583232
0.0251983
0.025239
0.160598
2.95837
0.0251194
2.86377
0.293006
0.167084
2.30091
3.45253
0.0247194
1.8211
0.0610037
0.024547
2.57407
0.0378466
0.0504135
1.29996
0.0248433
0.0241724
0.289293
0.0294539
2.06161
0.0263033
0.0290909
0.024394
0.1287
2.48391
2.27904
0.0242676
0.434246
3.19813
0.0500487
0.0291805
1.81653
0.150206
0.0240091
1.20303
2.29068
0.0652946
0.0244805
0.0245288
0.025366
0.0486279
0.0243463
0.0742089
2.83677
0.0242513
2.01013
2.74663
2.87451
2.04741
0.0342809
0.201543
2.9606
0.28732
0.137881
1.41486
2.44649
0.0248612
0.255259
0.0246278
2.05222
0.0243271
0.0552223
0.0248354
0.102609
0.281331
0.0263685
3.67815
1.64331
0.0287693
0.0874532
0.053813
0.0307502
0.0557221
0.101412
2.23352
0.029139
0.442497
1.7109
1.24433
1.05264
2.31076
0.0240284
0.0245388
0.2702
2.49435
0.164224
1.78314
0.153954
0.0428443
0.373283
0.191144
0.051569
0.607457
0.0498173
1.89113
0.0256628
2.59955
0.0252568
0.0552842
0.0552025
1.65412
0.0523602
1.87226
0.0269934
0.0245714
0.358735
2.9717
2.58217
1.59186
0.190275
1.87818
0.163979
0.0240093
3.35991
0.0242187
2.50166
1.39846
1.97872
0.19927
0.107539
0.186696
0.162043
2.31388
0.0255934
2.08578
2.02835
0.0253066
1.29645
0.132389
0.0366147
0.0268698
0.028933
1.61216
0.0349444
0.190645
1.86192
0.0245123
0.103427
0.0457454
2.04127
2.91416
0.418299
2.33058
2.11015
0.196697
0.0249414
1.57101
2.1259
0.0256074
0.0831901
2.04127
2.03013
0.0232842
1.93958
0.0239161
0.0249486
0.0248772
2.25532
2.39907
0.0746286
2.2537
0.0243621
0.026004
0.110885
0.158648
5.80888
0.0276691
0.0276881
3.4616
0.155152
0.0251516
0.0241647
0.0924971
0.0245808
0.0600421
0.152574
1.47962
0.1654
0.0274903
0.0515943
2.22936
2.05976
2.10417
2.36852
0.0255475
0.038717
0.504453
1.54464
0.318677
2.7941
0.0265863
2.08492
0.0318403
0.0542579
1.60031
0.0864319
2.13908
0.0290259
1.25291
0.0286692
1.91274
0.0241041
0.0942667
0.0239076
2.11945
1.31606
0.0253302
0.0255592
1.39797
0.0242836
2.29498
0.329741
1.04091
2.00628
1.73374
0.0245786
0.0448446
0.02759
0.0607612
2.20557
3.74903
0.967462
2.22206
0.0408493
0.118095
0.0264615
2.71789
0.0875355
0.0236202
0.0248326
0.512156
0.0239576
1.24103
0.0237066
0.023436
0.0233046
0.193744
1.89231
0.169886
0.067942
0.0246975
0.0536726
0.134937
2.58866
0.0557511
0.09334
0.0346262
1.60297
0.0258894
0.0781212
0.482896
2.01187
2.15126
0.259774
0.0720032
0.0255002
0.0671369
0.138007
1.43773
0.161018
1.58609
0.023919
0.063011
0.054156
0.0245059
1.80682
0.0855611
0.024541
0.0270612
7.40006
1.81085
0.0260812
0.0249228
1.74199
1.68274
0.0287934
0.119395
1.9749
0.102098
2.8491
2.17061
2.61728
2.21649
7.59338
0.162818
1.88399
0.0363655
0.671324
1.73366
2.50641
2.69398
0.0354712
2.89525
2.64999
0.0348101
0.0641939
2.11154
0.187618
2.13842
1.53239
0.0471928
2.55079
0.0303055
2.34173
1.29322
0.0248371
0.0721528
2.14509
0.0252158
0.027767
0.0583207
0.32512
2.16264
0.0503477
2.114
0.0291999
0.0224678
0.0262697
0.0261312
0.0621518
0.0560283
0.0246393
0.0611968
0.0952913
1.51584
2.78802
2.16958
2.1815
0.0240318
0.169319
0.0394361
0.647734
0.0688529
0.610702
5.52979
2.73624
0.139528
0.0637216
2.16208
1.29496
0.074129
0.0282065
0.0351452
3.03234
0.0248657
0.0288358
0.0293129
2.70864
1.16974
2.73645
0.0265777
3.56549
0.0236152
0.0249093
0.0264201
0.024207
0.0265841
0.185759
1.98585
0.119076
0.0801786
2.81316
2.19374
0.249516
1.08869
0.0660312
0.057859
0.134359
0.0286435
1.59276
0.211788
0.471063
0.190434
0.165022
1.60532
0.026576
2.55081
0.0243773
0.026922
0.0289794
0.0265919
0.0252116
1.25519
2.76237
0.0573388
0.0248476
2.07366
2.98168
2.34744
0.0422105
1.95099
0.0494033
2.18718
0.167929
0.0261624
1.99147
0.0537893
0.0552315
0.068895
1.68753
1.20093
2.20469
0.0239217
0.438317
0.139176
2.68124
0.0282847
0.0342889
0.171774
0.0786907
3.05634
2.90594
0.0450877
3.40005
2.22437
0.0768361
0.0592773
0.147895
0.0786247
1.78572
0.0332178
0.178088
3.01545
0.0280141
3.06849
0.0239479
2.88303
2.82408
0.0275927
2.75705
0.140829
0.0517277
0.164608
2.40121
2.40811
0.0741956
1.48543
0.0278537
0.040018
2.8356
1.37799
0.025677
2.83366
3.16757
0.0790886
1.26622
0.152038
2.2338
0.204243
0.0318156
2.91996
2.93306
2.75314
0.0242408
0.0318287
0.171699
1.63537
0.0573949
2.43168
1.97384
0.174369
0.0245241
0.024213
1.47278
0.0242425
0.0498105
0.0373305
0.053711
2.00404
0.715234
2.77944
0.0267501
0.174293
0.0792136
0.0599683
2.16661
0.337136
0.919799
0.0286727
1.63735
0.501075
0.0307642
2.24662
0.0259539
1.68979
0.0498288
2.38991
0.0243107
0.127008
0.0674174
0.114399
2.26703
1.8448
1.89104
2.95778
0.0227409
2.31144
0.0596736
3.22769
0.0417443
2.21843
0.0240866
1.7872
2.94493
0.0402623
1.86016
2.64518
0.0293027
2.96774
0.112342
0.029953
0.0243521
0.20552
0.132923
2.74856
0.0245833
2.38692
0.0241436
0.0523846
2.19824
0.079598
3.38137
3.00764
0.0425724
0.0586909
3.01922
0.024839
0.0236512
0.0249759
0.0656796
0.0925116
2.25324
0.196069
2.74817
0.0237164
2.28045
0.0350725
0.662066
0.141822
0.0797775
3.03354
2.1779
0.0309521
0.305985
0.379931
0.142229
0.109811
0.0330998
0.0232531
0.0254303
0.0472158
0.176828
0.0916845
0.107753
1.71228
0.108841
0.0979953
3.20662
0.0244087
0.0675245
1.98518
2.2951
0.282637
3.16806
0.0852023
0.0296358
0.0292785
3.10566
0.0346949
1.52734
0.0261835
0.0249685
0.200169
0.0244171
0.0800346
0.0364013
0.0485869
0.051649
3.24034
2.19015
2.31902
3.07816
0.0243225
2.26304
0.131237
1.57354
0.110623
2.15588
0.190708
3.158
2.17036
0.17923
0.139679
2.26026
0.0245945
2.59976
3.15317
0.0339792
0.0279105
2.57997
0.0312309
0.0248993
0.0548919
2.97321
1.54337
0.0274886
1.73606
0.281449
0.0280534
0.0232915
1.36293
0.0409552
2.01548
0.0325303
0.024836
0.17826
0.0583082
2.33413
0.065801
1.69508
0.0485741
2.30253
0.109251
0.0229475
3.14957
0.0232637
0.0485879
0.0997519
2.63023
0.0513708
2.98288
0.0873439
3.19965
1.61119
0.337892
3.06713
3.14482
0.319794
2.73761
0.118785
0.580982
0.0251061
0.0573577
2.86535
0.0247117
0.169823
2.35627
0.0397589
0.0263218
2.01224
0.0295108
0.0485354
0.131454
0.0387319
0.10836
0.0256504
3.17365
0.0317466
2.17575
0.185588
2.31062
0.119395
0.0501849
0.0273639
0.109054
0.0257685
1.93861
0.0231198
0.0982183
2.23299
0.0241313
0.078055
2.35502
3.00818
0.108973
0.0263578
0.0657962
0.136136
0.465106
0.0235276
1.25221
0.378717
0.0300076
0.107929
3.48983
0.025914
0.111212
0.080903
0.024061
0.0233461
2.82566
2.07986
2.99316
0.143245
2.20588
2.90678
0.0838474
0.0999056
0.213184
0.18297
0.242447
0.0236138
0.023246
0.0315154
2.81979
2.23682
0.306254
2.31158
0.187804
0.0243224
3.48303
3.06577
0.0855785
0.0314067
0.418653
0.11148
0.0306539
0.17725
0.02517
0.0301963
0.0321336
0.0601036
0.0309344
0.373136
1.48877
0.3416
0.0243488
0.0367478
0.0629551
0.185675
0.0331579
0.456496
0.0504352
0.050448
0.0611347
0.0232061
0.0246038
0.0276457
0.146147
0.0797225
1.78634
0.0406537
1.51243
0.0244493
0.0382825
1.5261
0.0262199
0.0299278
0.0581034
2.2084
0.02515
2.47524
0.0305236
0.0438146
0.0251538
0.0269861
1.46309
0.0241606
2.22804
0.0303693
0.0271804
0.0893926
0.0481786
1.18101
0.109115
1.49513
0.111935
0.0266213
0.108426
0.0347266
0.109198
2.02501
1.6642
0.0919442
2.25327
0.0834659
0.0248613
0.0271302
0.035338
0.034678
0.11205
0.0277333
2.24191
0.0543089
0.0240484
0.026785
0.107866
0.366468
0.486508
0.547848
0.0302565
0.0649876
0.0297257
2.03464
0.0241031
0.02981
0.0245556
0.0263603
3.06263
0.144385
0.557375
1.41831
0.107447
0.0646053
0.0235715
2.38452
2.29025
0.0244416
0.0613178
2.69543
0.0323249
0.0271792
0.0343583
1.51023
0.0293617
0.0286361
0.0268603
0.0265955
0.0249351
0.0318141
0.0235717
1.03911
1.23864
1.85771
0.0672625
0.0238634
0.0291948
1.14837
0.0284625
0.0285074
0.107993
0.0380605
0.160382
3.78813
0.0352112
0.027334
0.617232
0.0276805
2.26566
1.33594
2.24742
0.0315061
0.371661
0.0279599
0.0248718
0.1934
0.0928625
0.377681
0.03712
0.107385
0.0265674
0.0269879
1.86674
1.70399
2.63674
0.027063
2.29826
3.65658
0.0602324
0.0243126
0.0465393
0.0254855
1.16213
0.0319715
0.0337638
1.73272
2.2655
0.0236736
0.0356215
2.46851
0.0433734
0.0378614
0.0465726
0.0267553
0.0464971
2.79256
1.60189
0.136731
0.0279315
0.029274
0.025313
0.0246886
0.233035
0.0470864
0.0362006
0.274576
2.2725
0.0245081
1.11761
1.64719
2.53188
0.145374
2.31346
0.0354957
0.106303
0.0941397
0.0302813
0.461111
0.0806277
0.0242807
0.0909897
0.0800118
0.0235755
0.0242783
0.0293646
0.0334883
2.27222
0.0270782
0.02367
0.0268008
2.98971
0.0302086
0.0480883
0.235127
0.0241563
0.030788
0.0298546
0.0272349
0.0281109
2.41631
0.0283168
0.0277536
0.0240711
1.26591
0.0472517
3.1616
0.0264144
0.354516
2.26009
0.0385521
0.0245438
0.0259743
0.0328339
0.0345233
0.0269004
0.0387061
0.0277755
0.0264869
0.0259
0.0835548
2.27786
0.0275092
0.0278141
0.0695318
0.0307881
0.0231362
2.33882
0.0372239
0.0611097
0.0237231
0.0241347
1.52343
0.0243538
0.0239123
0.0243137
2.8692
0.0295094
1.55896
0.0243701
2.11779
0.0284807
0.158291
0.0351396
2.28447
0.106669
0.0791535
0.0336951
0.026534
2.34335
0.146601
2.89381
0.0331888
0.0252436
0.0280262
0.0263028
0.0246375
0.0304711
0.0793947
0.22422
0.0294012
0.0278082
0.0465756
0.0243842
3.15815
0.0245502
0.0289073
0.034718
0.0251849
0.190501
0.0502522
0.023627
0.0230668
0.368982
0.0637651
0.0800571
1.67521
0.0252015
0.2338
3.035
1.91298
0.0229898
0.188784
0.0272286
0.0277944
2.29164
0.029817
0.785222
0.0286478
2.13682
1.41319
0.0742363
0.0245178
0.0289713
2.12171
0.0268901
0.106136
0.0465967
2.4192
0.0365924
0.259258
2.12502
0.577077
0.0468498
0.184063
0.0283595
1.6329
0.21165
0.0260347
0.0736786
0.0253723
2.54648
0.0375666
1.69281
0.0348152
0.175111
0.280853
0.041692
0.0266837
0.0491635
0.0277167
0.0279665
0.0244487
0.0277238
2.94124
0.0248733
3.5232
2.45199
0.284629
0.0287985
0.0289953
0.147641
0.0261407
0.0230745
0.0393285
0.0279705
2.47231
0.0621871
0.0323872
0.0254416
0.0244058
0.203256
0.026132
0.0232624
0.0248849
3.17587
2.06848
0.227818
0.0813075
0.0363639
0.0263282
0.0258136
0.215879
0.0236181
0.0328733
0.0252456
0.0248293
1.38214
5.37636
0.0903416
2.32164
1.27252
0.0258861
0.0252072
6.249
0.0799453
0.100937
0.0744228
0.0462931
0.101866
0.0288016
1.27151
0.0258847
0.0563826
1.21885
1.32495