/*--------------------------------*- C++ -*----------------------------------*\
| =========                 |                                                 |
| \\      /  F ield         | OpenFOAM: The Open Source CFD Toolbox           |
|  \\    /   O peration     | Version:  v2012                                 |
|   \\  /    A nd           | Website:  www.openfoam.com                      |
|    \\/     M anipulation  |                                                 |
\*---------------------------------------------------------------------------*/
FoamFile
{
    version     2.0;
    format      ascii;
    class       volScalarField;
    location    "100";
    object      p;
}
// * * * * * * * * * * * * * * * * * * * * * * * * * * * * * * * * * * * * * //

dimensions      [0 2 -2 0 0 0 0];


internalField   nonuniform List<scalar> 
14804
(
0.000510733
-0.00328332
-0.0825667
-0.00497182
-0.0993176
-0.0213103
-0.106345
-0.0826874
0.00188375
0.000116518
0.00107493
-0.0802529
0.00108656
0.0100603
-0.0955222
-0.0401653
-0.136082
0.0105229
-0.0413135
0.000500542
-0.00180899
-0.0976758
0.00172846
-0.0370741
0.0116527
-0.102867
-0.105878
-0.0150568
-0.0954205
-0.0787651
0.00219958
-0.136372
-0.0740907
-0.0807876
-0.153963
-0.00515556
-0.0214891
-0.0364386
-0.130816
0.000394086
-0.118753
-0.130603
-0.047951
-0.0627121
0.00778342
-0.0152929
-0.111451
-0.00521259
-0.0400433
-0.00171304
-0.0235436
-0.00602525
0.00138509
0.0020616
-0.0740229
-0.0148916
-0.102419
-0.134922
0.0148278
0.00189237
-0.138072
-0.149456
0.000438768
-0.00307293
-0.0710992
-0.0808602
0.00222818
0.000809684
0.000146478
-0.0276976
-0.0460922
0.000634564
-0.0753239
-0.0816089
-0.0800875
-0.0229599
-0.0435372
-0.0482399
8.00037e-05
-0.000158885
-0.00083255
0.000471245
-0.0993663
-0.086455
0.000127153
-0.038457
-0.00170712
-0.00804255
-0.0689656
-0.0707006
-0.0137869
-0.00805129
0.000408713
-0.0351844
0.000164839
-0.0776469
-0.00458455
0.0102059
-0.0304637
0.000438282
-0.0160208
-0.0559372
-0.103275
-0.0728217
-0.101574
0.0105473
-0.0136182
-0.00353904
-0.0314786
-0.0830231
-0.00372856
-0.0129625
-0.0701395
-0.0862811
-0.0486713
-0.0977237
-0.0897634
-0.0474879
-0.0388228
0.000867676
-0.0848809
-0.100282
-0.0353355
-0.100365
-0.039904
-0.0874298
-0.00167882
0.000457433
-0.0825612
-0.0792397
0.000374494
-0.0775844
0.00179901
0.0129581
0.00140609
-0.00848506
-0.137091
0.00187308
-0.0776508
0.00963556
-0.0218944
0.0016859
0.00160665
-0.0639156
-0.125453
-0.00176462
-0.0893412
-0.132166
-0.0940125
-0.0115514
0.00207103
0.000339096
-0.10408
-0.126667
0.000528954
0.00028803
0.0109311
-0.0664578
-0.0334558
-0.0922411
-0.0212606
0.00104351
0.000539396
0.0017785
-0.0596847
-0.0348641
0.000210604
0.000224788
0.00429961
-0.0651699
-0.0208582
-0.0755691
-0.0721816
-0.00152514
-0.00267441
-0.101616
-0.0623671
-0.0817871
-0.0732309
0.00351775
0.00138629
-0.0384226
-0.0370735
0.0135777
0.00118673
-0.0865522
-0.00752242
-0.112339
0.0123115
-1.09351e-05
-0.00460431
-0.128435
-0.0656239
0.00268581
-0.0202658
0.0116784
-0.0279735
-0.109793
-0.0375502
-0.0697835
-0.0312722
-0.00455554
0.00106613
-0.13013
-0.0209972
-0.0830859
0.00436695
0.0141955
-0.0834302
-0.0334947
-0.0013561
-0.0878169
0.00165425
-0.00496844
-0.0714368
-0.0389857
0.00393562
-0.045058
-0.13744
0.0132411
-0.0183635
0.0172855
-0.0180396
0.00483583
-0.140463
-0.084468
-0.101228
-0.0393391
0.00238827
-0.040594
-0.0500566
-0.0221772
-0.0335702
-0.0341155
0.0090173
-0.037898
-0.112892
-0.0256738
-0.0492258
0.0145201
-0.0831976
-0.0377183
0.0151316
-0.143613
-0.0157396
-0.00395382
-0.0337661
-0.140328
-0.0813965
-0.086777
-0.107018
-0.0534211
0.0013191
-0.0044534
-0.00735413
-0.000527136
-0.0850045
-0.118739
-0.0677967
-0.141274
-0.00399254
0.0103571
-0.00733928
0.00322536
-0.00438865
-0.095308
-0.0330134
-0.00145359
-0.0813847
0.000429003
-0.0364599
-0.0497861
-0.118413
-0.0818977
-0.116663
0.0095553
-0.00146892
-0.0751459
0.000405267
0.0157037
-0.0335485
-0.0945462
-0.0328716
-0.0373058
-0.0484379
-0.126517
-0.0383185
-0.115787
-0.0218654
-0.124785
-0.0948563
-0.0736547
0.00464112
-0.144678
-0.0352007
-0.0477059
-0.121004
-0.049983
-0.0954817
9.2683e-05
0.00167378
-0.0217426
-0.0212804
-0.0463703
-0.0173389
0.00718987
-0.000621525
-0.032476
-0.0623341
-0.00278487
-0.00422026
-0.0452609
-0.103152
-0.00521862
-0.0426141
0.00039125
-0.00203968
-4.64808e-05
-0.134124
-0.000273397
0.00166069
-0.0457328
-0.109858
0.00734047
-0.036272
-0.00155649
-0.019422
-0.0976284
-0.130202
-0.124483
-0.00186708
-0.0014052
-0.0497415
-0.115156
-0.000945257
-0.124215
-0.116011
-0.120116
-0.0854909
-0.127092
-0.110808
-0.0787138
-0.0816426
-0.0952102
0.00160995
-0.0435866
-0.0692281
-0.0675212
-0.00423594
-0.033416
-0.0813381
0.000768401
-0.00287674
0.00686582
-0.00527604
0.00161735
-0.00809333
-0.0160618
0.00584642
-0.0488402
-0.00352837
-0.00119993
-0.0497044
-0.083374
-0.12104
-0.020131
-0.0482617
0.00884584
-0.0809804
-0.00446414
0.00158516
-0.0912285
0.00145602
0.0112703
0.000720009
-0.0885676
-0.0820264
0.000749312
-0.0297865
-0.0636084
-0.00422144
0.000772858
-0.0777638
-0.0850191
0.001404
0.00044233
-0.0027608
-0.00518233
-0.141488
-0.0048305
-0.0973174
-0.00861765
-0.0992505
-0.000182705
-0.0330154
-0.141533
-0.114938
-0.10499
-0.00256419
-0.128159
-0.0719941
0.00284489
-0.114199
-0.12605
-0.0935276
-0.0830042
-0.0314487
-0.000220618
0.00103746
-0.00146254
-0.0124231
-0.12045
-0.139046
-0.0914213
0.0014526
-0.00155779
0.00977128
-0.0300249
-0.0474329
-0.0709601
0.00588917
-0.0346643
-0.0541505
-0.0462908
-0.000870081
-0.0428715
-0.0786462
-0.0841363
-0.111447
-0.0466461
-0.00409153
0.000887763
0.00714266
-0.0815084
-0.0191766
-0.0464722
-0.0721882
-0.0837567
-0.0425713
-0.126753
-0.113273
-0.0418999
-0.0295326
-0.00626884
-0.054073
-0.0391481
0.0128037
-0.000620712
-0.0313201
0.00639409
-0.0921626
0.011075
-0.113621
-0.114437
-0.098825
-0.00965237
0.00768007
-0.0032604
-0.0497954
-0.0190191
-0.046101
-0.126874
-0.000859507
0.0123166
-0.037651
-0.0800413
-0.0546123
-0.00928142
-0.0849764
-0.0423593
-0.0373584
-0.00521779
-0.122625
-0.0689146
-0.0799118
-0.119387
0.000902983
-0.102433
0.00154232
-0.0971805
-0.0256932
-0.0774379
-0.072025
-0.101405
-0.0833555
0.000487426
0.00625048
-0.0698893
-0.0824269
-0.113124
-0.130689
-0.129042
-0.0671034
0.0132058
-0.119907
0.000224109
0.00120658
0.00637483
0.00118477
-0.0964906
-0.104413
-0.0315501
0.00150824
-0.144049
-0.0204927
0.000938053
-0.0684361
-0.000813435
0.000896783
-0.130096
-0.0735512
-0.129985
0.00824438
-0.0327588
-0.113311
0.0141401
-0.0929623
-0.135378
-0.0352615
-0.00469144
-0.0046402
-0.128925
-0.0809821
-0.0488813
-0.109058
-0.0946343
-0.0879276
-0.0799702
-0.11221
-0.143945
0.00100092
0.000320187
-0.0912225
0.0121447
0.0152503
-0.011429
0.000629072
-0.0297417
-0.0419199
-0.080904
-0.0184241
-1.49673e-05
-0.0415695
-0.00567921
0.000364705
-0.0188682
-0.145223
-0.0177749
-0.00756913
0.00025638
-0.000242012
-0.00126671
-0.0355152
-0.00222171
-0.111378
0.00024643
0.0158545
0.00867627
-0.0175484
-0.138986
-0.0118543
-0.132954
-0.0215986
0.00977955
-0.0251107
-0.0637666
0.00122738
-0.0150795
-0.0892805
-0.00377908
-0.101103
-0.0834261
-0.109201
-0.0824448
0.00202821
-0.0865077
0.00819903
-0.0830364
0.00232137
0.000419393
-0.0834098
0.000632773
-0.0989306
0.00344604
-0.127917
-0.123235
-0.0315766
-0.0361157
-0.00100998
-0.0343973
0.00224551
-0.0205972
0.000444751
0.00712691
0.00756094
-0.111842
-0.103258
-0.117737
-0.113019
-0.0070775
-0.0668284
-0.116942
-0.0186965
-0.00334697
-0.117025
-0.0120115
-0.0120162
0.0124299
-0.0309464
-0.00667141
-0.135446
-0.00716394
-0.0226555
-0.108455
-0.00881212
-0.133589
0.0032539
-0.00680661
-0.120889
0.00078382
-0.108246
-0.094693
-0.0608299
-0.0823369
-0.0102709
-0.0269541
-0.00431892
-0.0410004
0.00357292
-0.00843412
0.000654481
0.000275623
-0.119239
-0.0416279
-0.00781334
8.90634e-05
-0.111677
0.01036
-0.08464
-0.0589927
0.00238177
-0.00552519
-0.0517419
-0.044873
-0.00231145
-0.00366085
-0.0220861
0.000389247
-0.0340254
-0.09104
0.0128299
-0.0807731
-0.0713854
0.00134068
-0.112838
0.0134372
0.0129838
-0.0500448
-0.109893
0.00155188
0.0105423
-0.0361033
-0.0864265
-0.0343159
-0.000201743
-0.114436
-0.127022
-0.129559
0.00344701
0.000229139
-0.069252
-0.0364874
-0.0258528
0.00400479
-0.0348579
-0.019798
0.00149452
0.00174575
0.011796
-0.139815
0.000213524
-0.00898587
-0.0155018
-0.127005
-8.17483e-05
-0.0170859
-0.0410841
0.00134282
6.21814e-05
-0.0241535
0.000245367
-0.0700721
-0.082719
-0.0193558
-0.106794
-0.0169061
-0.00382149
0.000712779
-0.0831613
-0.0829384
0.00133008
-0.0106227
0.000294009
7.81017e-05
-0.102458
-0.130898
-0.104065
-0.113968
-0.0222629
-0.114457
-0.0206609
-0.00686343
-0.104124
-0.109286
-0.0817501
-0.0836609
-0.00573343
0.000474037
-0.120129
0.00109883
0.00747791
-0.0755804
-0.00847235
-0.0898689
-0.0510575
0.00696011
-0.0467647
-0.000741865
-0.000276813
0.00190975
-0.141292
0.00392146
-0.000966626
0.00390568
-0.0832322
-0.0376231
-0.0143556
-0.0320783
-0.0419311
-0.0637472
0.000141393
0.00936832
-0.0191001
-0.0745224
-0.117942
-0.0137554
-0.0804319
-0.00566651
-0.00102239
7.27944e-05
-0.0130206
-0.0479466
0.0058307
-0.035609
-0.0824743
-0.062582
0.00664721
-0.021257
-0.115044
-0.00447119
0.00123339
-0.0475081
-0.0827786
-0.0240129
-0.0900113
-0.078205
-0.00889934
-0.000386344
-0.0875372
-0.00235937
-0.0824967
-0.0822137
-0.0147291
-0.0397488
-0.0597067
-0.00186721
-0.0845742
-0.0425283
-0.0817777
0.000638328
-0.0959825
0.00116338
-0.0426911
-0.0861087
-0.0328181
-0.0531141
-0.0651332
0.00173718
-0.0469359
-0.0815964
-5.42299e-05
-0.00392103
-0.00962245
-0.00336491
-0.0345371
-0.0324128
-0.042854
0.00461674
-0.0432224
-0.0293067
-0.0786086
-0.0100401
-0.0311291
-0.0179171
5.68727e-05
-0.0409771
-0.0201681
-0.0938888
-0.013646
0.00130729
-0.116098
-0.00457369
-0.148821
-0.0651208
-0.0910122
-0.0304263
-0.0328362
-0.118318
0.00300791
-0.112637
0.00153538
0.00919729
0.00187794
-0.035879
-0.10349
-0.00497897
-0.0453171
-0.036177
-0.0455037
-0.108316
-0.0180321
-0.048076
-0.0138544
0.000273498
-0.102356
-0.00677675
-0.0371542
-0.00498731
-0.000481126
-0.0868702
-0.081624
-0.00274625
-0.0514902
-0.0666827
-0.0814009
-0.0777059
-0.00744463
0.000417166
-0.00812071
0.00106868
0.00103873
-0.0181407
-0.0873277
-0.10202
-0.00796118
-0.0945632
-0.031898
0.00093568
-0.0816745
-0.117606
-0.0468178
-0.085092
0.0116193
-0.0848279
-0.00452583
-0.00720366
-0.0947803
-0.00216312
-0.0820398
-0.0915518
-0.0082378
-0.0459602
0.000110436
0.00518087
6.82119e-05
-0.00866725
-0.0794725
-0.0898808
2.61995e-05
-0.0141782
-0.00416869
-0.00309017
-0.0737749
0.0011147
-0.0434345
-0.0783728
-0.0183122
0.00856462
-0.000188241
-0.0802288
-0.0203328
-0.032379
-0.100235
-0.0264811
-0.0690047
-0.0437335
-0.00914887
-0.0891384
-0.104344
-0.0634105
-0.00292463
-0.0372967
0.0018898
-0.023103
-0.0520788
0.00224492
-0.00955235
-0.00552712
-0.0016861
-0.0244557
-0.0746977
-0.00476294
-0.122717
0.000977193
-0.0226008
-0.133939
-0.0197507
-0.02123
-0.124195
-0.123163
0.0014382
-0.0304908
-0.0290416
-0.0431793
-0.0806348
-0.122158
-0.0750326
0.00188593
0.00122584
-0.0450093
0.000373153
-0.0040711
-0.0623311
-0.0178847
0.0167896
-0.0823124
-0.000221586
-0.0781543
0.0128926
-0.0621425
-0.066712
0.00184343
-0.0205369
-0.0976159
-0.0816317
-0.00136615
-0.0782954
-0.0369955
-0.0785341
-0.0450585
-1.21751e-05
-0.0232606
0.000378107
-0.128005
-0.0345901
-0.00625275
-0.00781259
-0.0790735
-0.0526515
-0.0184195
-0.120856
-0.0786043
-0.0433888
-0.0064697
-0.0115468
-3.12603e-05
-0.0242181
-0.0161873
-0.0769545
-0.0108156
0.0120859
-0.0825984
-0.0197603
-0.0878925
-0.0892907
-0.00283428
-0.00277891
-7.69585e-05
-0.101644
-0.0795455
-0.0191455
-0.0992023
-0.0777947
0.0127375
-0.0387379
-0.128719
-0.0243035
-0.0370974
-0.0409371
-0.0797321
0.00222699
0.000519721
-0.0106521
-0.10628
-0.00591525
0.000388048
0.00156305
-0.0699872
-0.0580722
0.00265985
-0.00386978
-0.0795971
-0.0403858
-0.0162795
0.00192596
-0.0811529
-0.0545865
-0.0402425
-0.0173786
0.00231676
-0.00470089
-0.0812557
-0.000430167
-0.00451528
-0.0651179
-0.0920129
-0.00279952
-0.065558
-0.0939815
0.00135134
-0.147052
-0.0817878
-0.0875804
-0.00645782
-0.0360969
-0.0885237
-0.100258
-0.00474814
-0.0156432
-0.0484618
-0.0196606
0.00263754
-0.00710963
0.000123236
-0.0652707
-0.0877463
-0.0384991
-0.0433279
0.00110496
-0.0653949
-0.00293603
-0.0428948
-0.0163188
-0.0305881
8.08147e-05
-0.101379
0.00303066
-0.0345168
-0.105255
0.0207921
0.00439808
-0.00549888
-0.0478589
0.000350374
-0.122014
-0.123009
0.000264588
0.000437657
-0.0317576
-0.0692207
-0.103227
-0.0442184
-0.0831969
-0.01691
-0.0514351
0.00206715
-0.0831876
-0.121044
0.0011647
-0.0273653
0.00145661
-0.0166867
-0.0863972
0.000909345
-0.0396659
0.000366372
-0.0875093
-0.0515546
-0.0382675
-0.0173187
-0.0392637
-0.119484
-0.00491739
-0.0552284
-0.104575
0.000350889
0.00618714
-0.0600848
-0.102228
-0.027449
0.00123782
0.00135931
0.00582736
-0.0339779
-0.127378
-0.0578519
-0.0878448
-0.107815
-0.0311864
0.000876866
-0.045129
-0.109852
0.0137064
0.00401809
-0.0834125
-0.0200429
-0.0849424
-0.120522
-0.0487617
0.00187887
-0.0814865
0.00496098
-0.0600344
-0.0295887
-0.0780831
0.0017155
-0.0626743
-0.0431625
-0.0818092
0.00306694
-0.103039
-0.0150309
-0.141151
-0.119813
-0.000546954
0.00129841
-0.0918905
-0.0906189
-0.0963835
-0.0811836
0.000100282
-0.0218378
0.000330178
-0.0642511
-0.0825671
-0.00334767
-0.130724
-0.00468677
-0.0297563
0.000994467
-0.0491613
-0.00504052
0.00835647
-0.0075042
-0.144742
-0.00177964
7.99966e-05
-0.0870737
-0.0867204
-0.00774061
-0.0165694
-0.0166129
-0.00530906
-0.135516
0.00109347
-0.0101874
-0.0663183
0.00111858
-0.119866
-0.122257
-0.0323394
0.00431353
-0.0884212
-0.0494723
0.00533259
-0.0826298
-0.0475595
0.000388656
-0.101661
-0.0148659
-0.0349396
-0.015434
-0.0565534
-0.090205
-0.00108284
-0.1214
0.00195315
-0.00320549
-0.0484178
-0.119918
-0.0293361
-0.00201933
-0.000439186
-0.0398225
-0.109467
-0.0477293
-0.0340443
-0.0151376
0.000166058
0.00231746
-0.0031237
-0.0633556
0.000260857
-0.0168222
0.000325075
-0.0312017
0.00926578
-0.00845324
-0.128749
-0.0937912
-0.0162603
-0.082699
-0.133444
-0.0945776
-0.000971033
-0.00891946
-0.0950964
-0.00398243
-0.0385277
-0.00931759
-0.00198281
-0.0695796
-0.0108176
-0.0816479
-0.0667358
-0.00691618
-0.0392912
-0.0634754
-0.0792884
-0.0214172
-0.0368166
0.00191755
0.00036285
-0.00887499
-0.062885
0.00155428
-0.0144749
-0.00182608
-0.0776023
0.000286783
-0.0797405
-0.109624
-0.0456653
-0.0454458
0.0121834
-0.0147773
-0.0650676
-0.00274834
-0.109281
-0.0438132
0.00152057
0.00792705
0.000118476
-0.0940685
-0.100707
-0.00741847
-0.0440294
-0.00200952
-0.0299502
-0.0498614
-0.0427877
0.0017925
-0.131447
-0.0730936
-0.00166649
-0.0754632
-0.104247
-0.0769888
0.00176904
-0.0362356
-0.110116
-0.0885001
-0.0152317
-0.0342483
-0.0579691
-0.0070734
0.00113667
-0.123238
-0.04319
-0.00304786
-0.0173221
-0.104159
-0.0226838
-0.0872849
-0.0868135
0.000471228
-0.0964196
-0.104174
-0.0443344
0.0113298
-0.00102166
-0.0127773
-0.00145416
0.00158875
-0.0618271
-0.0839977
-0.0836386
-0.0154275
-0.0153341
-0.0592915
-0.00148243
-0.079445
0.00199605
-0.0189322
-0.0699565
-0.0827422
-0.0957001
0.00195837
-0.00626595
0.00129368
-0.10448
-0.0705037
-0.00720483
0.0050127
-0.130462
0.00056441
-0.0937495
0.00139391
-0.063162
-0.0415292
-0.0384931
0.000439257
-0.0147409
-0.120969
-0.0959351
-0.086139
-0.03319
-0.00198583
-0.0851891
-0.00168271
-0.086894
-0.0918229
-0.0820483
-0.0456988
-0.0950672
-0.00210424
-0.118258
-0.0780386
-0.061029
-0.0769204
-0.12082
-0.00587271
-0.0685763
0.000537464
-0.038926
-0.123637
-0.0838061
-0.0320267
-0.0659379
-0.118252
-0.0642447
-0.0177897
-0.0618072
-0.134797
-0.0882034
0.000400128
-0.0937675
-0.00394607
-0.041515
-0.0818456
0.0135666
-0.0428453
-0.0799805
-0.0834288
-0.139187
-0.0290069
-0.0327589
0.000375785
0.0171783
-0.0146571
0.00138747
-0.0278623
-0.00463157
-0.0907951
0.00145884
0.010422
-0.0594915
-0.0704333
-0.0977706
-0.0824461
-0.0367905
0.0005621
-0.0432862
-0.0344216
-0.0822811
-0.0819423
-0.0783572
-0.00396977
-0.0240734
-0.0878006
-0.00108511
-0.0868135
-0.082109
0.000351921
-0.00949931
-0.00156776
0.0182287
-0.10375
-0.0770407
-0.0819308
0.00407906
-0.0989972
-0.0991388
-0.000615338
0.00220571
-0.0491147
0.00537505
0.00153368
-0.0699568
-0.00125145
-0.0290559
-0.00173128
-0.0490946
-0.120629
-0.108463
0.000350815
4.53529e-05
-0.117449
-0.0147486
-0.0544436
-0.00530763
-0.141909
-0.0295834
-0.0259656
-0.000969277
-0.00155252
-0.00212621
-0.0602272
-0.0196318
-0.0349088
-0.0394899
-0.0604077
-0.129264
-0.118668
-0.0842394
0.000903044
-0.00616755
0.00128399
-0.127851
-0.0875163
-0.00145526
-0.00973085
-0.0819985
0.0087714
-0.0456359
-0.00386008
-0.0119236
-0.0274694
-0.0830892
-0.00857319
-0.0491549
-0.137241
-0.131509
-0.10416
-0.0799899
-0.0837962
0.00787487
-0.0455839
0.000575031
-0.0114587
-0.0111723
0.00122228
-0.0682647
-0.0086331
-0.0252574
-0.0498007
0.000490312
-0.0636421
-0.0644093
-0.0382189
-0.0493691
0.00125251
-0.0971246
0.0106608
-0.0729099
-0.0641194
-0.134249
-0.0419684
-0.0837995
-0.0802084
0.0172476
-0.0395905
-0.0422395
-0.0361963
-0.0811299
-0.0576074
-0.129166
-0.0160535
-0.00767692
-0.139052
-0.00314484
-0.0758626
-0.0621274
-0.000623215
-0.0834669
-0.0840135
-0.0901394
-0.0104781
-0.0475603
-0.132563
-0.0201325
-0.0794851
-0.00478988
-0.105384
-0.082459
-0.117314
-0.0432186
-0.0410266
-0.00286573
0.000389994
-0.00316336
-0.0259561
-0.124455
0.00175496
-0.0770104
-0.115757
-0.0869823
-0.106001
-0.0873051
-0.128524
-0.0802601
-0.00506054
-0.0366913
-0.00245872
0.00106138
-0.128421
-0.0930459
0.00143758
-0.0412007
0.000301224
0.000602362
-0.0295369
-0.114426
-0.0041682
0.00109466
-0.0317899
-0.0232892
-0.0770372
-0.0961387
0.000130148
-0.109123
-0.00636205
-0.084424
-0.0825145
-0.00133243
-0.00513584
-0.120552
0.00536413
-0.121503
-0.014044
-0.00504595
0.0017969
-0.00263552
-0.0429978
0.00137044
0.0106558
-0.0755779
-0.107268
-0.06755
4.98265e-05
-0.0313104
0.00281623
-0.102983
-0.11916
-0.110739
-0.0823323
0.00347119
-0.0518095
-0.131669
-0.0573622
-0.0335807
-0.0429911
-0.000625585
-0.00410603
-0.0628863
0.00186129
-0.0105313
-0.00777308
-0.101368
-0.0969867
-0.0736353
-0.0625439
-0.0275294
-0.0600331
-0.00690858
-0.0884832
-0.0408987
-0.0702255
-0.0709259
-0.0295624
-0.10702
0.0170283
0.00175576
-0.120414
0.000674317
-0.123274
-0.0290147
0.000112292
-0.00289033
-0.0432917
-0.0438115
-0.0604357
-0.107623
-0.0629048
-0.0206689
-0.0913296
0.00157782
0.0141318
-0.00431946
-0.0260763
-0.0168621
-0.0952499
-0.00131591
-0.0736464
-0.00204859
-0.0301787
-0.00752869
-0.0126102
-0.00556912
-0.0997893
-0.00284458
-0.0177827
-0.0574985
-0.0979239
-0.02118
-0.0298182
-0.0486288
-0.00436737
-0.090809
-0.147577
0.00150931
-0.11576
-0.0163203
-0.0409591
-0.0280748
-0.144167
-0.0822306
-0.0381771
-0.0329255
-0.0840567
-0.00623933
-0.024957
0.000886076
0.00196007
-0.0912156
-0.114164
-0.0106535
-0.051904
-0.139473
-0.13644
-0.123044
0.00209316
-0.116888
-0.0692595
-0.0832866
-0.00279679
0.000389397
-0.00255014
-0.0324306
-0.077426
-0.0624134
-0.00740849
-0.010856
-0.0840939
-0.0989844
0.00117458
-0.0061804
-0.0172546
-0.0538162
-0.0857518
-0.126968
0.000503829
0.0108561
-0.0778155
0.000549051
-0.0826802
-0.0359949
-0.0828702
-0.00958991
-0.00427127
0.000182721
-0.00362041
-0.0415051
0.0178006
-0.0050318
-0.0119846
-0.0826719
-0.0601946
0.00087257
-0.0913375
0.00211457
-0.00732734
-0.0501323
-0.0296281
-0.0615602
0.00225596
-0.097641
-0.0485689
-0.13952
-0.113862
-0.0155539
-0.000145187
-0.0049498
-0.0742319
0.0026368
0.00317912
-0.024838
-0.040023
-0.0832047
0.00299034
-0.0159211
0.00302582
-0.0785968
-0.138863
-0.0791858
-0.0341798
-0.0834388
-0.0935301
-0.121753
-0.128457
0.00112397
0.00231017
-0.0906868
-0.122944
-0.00268806
-0.0543673
-0.0342384
0.00653106
-0.146808
-0.0821762
0.00155781
-0.0584362
-0.0766411
-0.00786243
-0.135924
-0.0701339
-0.0199925
-0.04514
-0.135935
0.000792053
-0.071712
0.0026636
-0.0588735
-0.0454864
-0.0987883
0.012991
-0.0185745
-0.00110265
-0.119672
-0.0740836
-0.054566
-0.0779102
0.00229425
-0.032685
-0.0311373
0.000667778
-0.0624237
-0.0324357
-0.0420898
-0.00830608
-0.0142644
-0.0114234
-0.00435365
0.000482244
-0.0909527
0.00090823
-0.0282337
0.0120808
0.00212941
-0.14062
-0.026646
0.00128474
-0.0934256
-0.133796
5.27598e-05
-0.0107184
-0.0301461
-0.0287997
0.00134239
0.000973049
-0.00907953
-0.00287362
-0.111468
-0.0297387
0.0104945
-0.101136
0.000670132
0.00306896
0.00716276
-0.00298543
-0.0459822
-0.0700172
-0.0941442
-0.0941677
-0.0173505
-0.00503145
0.00473228
-0.0810634
-0.0685698
-0.0845337
-0.0120271
-0.0799709
-0.0408185
-0.0225009
-0.0282865
-0.0167537
-0.112818
0.000444078
-0.0983133
0.00116741
-0.0906268
0.00399133
0.00155171
0.000604009
-0.083517
0.0132074
-0.031402
-0.0681104
-0.00654117
-0.0804205
-0.00862327
-0.00173419
-0.0581103
-0.0235923
-0.0594475
0.00116395
-0.028536
-0.0831486
0.00224454
-0.019379
-0.00111536
0.00242522
0.00731132
0.000453931
-0.0616338
-0.0452759
0.00208958
-0.0780257
-0.0267666
-0.00705865
0.00132193
-0.128867
-0.0122705
-0.113941
-0.0898879
-0.00995633
-0.0214869
-0.0385399
-0.121282
-0.0813843
0.00153671
-0.072656
-0.0063487
-0.085042
-0.0834843
-0.0370306
-0.0348062
-0.0173272
-0.128851
-0.0677818
0.00215227
-0.00462107
-0.0781751
0.006632
-0.0148778
-0.04564
-0.031756
-0.0621055
-0.0833717
-0.0248717
-0.0291881
-0.0969042
-0.0444147
-0.100166
0.0111421
-0.128974
-0.0623006
-0.0819336
-0.0141763
0.00367579
-0.00894161
-0.0448739
0.00486411
-0.0846773
-0.103697
-0.0224183
0.000827526
-0.101266
-0.096212
-0.082419
-0.0841326
-0.103809
-0.0615321
-0.0043525
-0.0842475
-0.0511174
-0.0695512
0.00156238
-0.0316252
0.000290254
0.0184608
0.000293396
-0.0883007
-0.0802682
0.00441534
-0.078802
0.00883216
-0.0830428
0.0126168
-0.113837
-0.141226
-0.123409
-0.0753952
-0.0229503
-0.0601451
-0.129553
-0.132018
0.00307108
-0.0392172
-0.0017599
-0.110178
-0.0849226
-0.0612605
-0.0926046
0.000986972
-0.0182671
-0.134818
-0.0355784
-0.0794332
-0.0363973
-0.104854
-0.0275599
-0.00402177
-0.0824299
-0.0710282
0.00216537
-0.0306812
0.0131346
-0.118402
-0.00247896
0.00192175
0.00693441
-0.0386645
-0.0517644
-0.0207155
0.000698358
-0.0272752
-0.0819659
0.00460263
-0.0815997
0.000381764
-0.00845009
0.00135664
-0.089101
-0.0879986
0.00441487
-0.0806935
-0.00239256
-0.0203105
0.00220413
-0.0789736
-0.111093
-0.0831436
-0.00472364
-0.0986582
-0.0808795
-0.0114556
-0.00275515
-0.0955281
-0.0159541
-0.0113294
-0.0025682
-0.0823564
8.32579e-05
-0.092003
-0.0098527
-0.0863064
-0.0829395
-0.0833473
-0.0141231
-0.08184
-0.0831529
-0.0813173
-0.0833263
0.0132065
-0.0799348
0.00102747
-0.141469
-0.0161343
-0.0187027
-0.0757376
-0.080364
-0.088773
-0.0172144
-0.0174095
0.000955192
0.00312041
-0.0502778
0.00106039
-0.0226981
-0.08157
-0.0943479
-0.040826
0.000114283
-0.0777363
0.00335225
-0.00204007
-0.0267726
-0.0473839
-0.0308128
-0.0735874
-0.0630517
-0.107262
-0.0657945
-0.0908879
0.0171393
-0.00160831
-0.0338679
-0.0342628
-0.0294532
-0.0525195
-0.0408794
-0.0836366
-0.000530137
-0.0820832
-0.0872459
-0.0789492
0.00188648
-0.0831958
-0.0953332
-0.123505
-0.0477244
-0.0804707
-0.116147
-0.123305
-0.0906322
-0.057471
-0.00396772
-0.0798355
0.00196258
-0.00951331
-0.0965983
-0.0309766
-0.0672026
0.000547102
-0.0823187
-0.137935
-0.0829929
-0.000399523
-0.0639229
5.28227e-05
-0.0820393
-0.105116
0.0021875
-0.0604588
-0.0815706
-0.0262488
-0.137783
-0.015894
-0.0822129
-0.0557119
-0.090151
-0.0780854
-0.0724911
0.00204029
-0.0833988
-0.000820024
-0.00982733
-0.0864208
-0.0636613
-0.0297762
-0.0644377
0.00154686
-0.109326
0.0011004
-0.016241
-0.056157
-0.00211091
-0.00233752
-0.0848278
-0.0680559
0.0014618
0.00113928
0.00258078
-0.0438736
-0.00177796
-0.0168942
-0.0578556
-0.0795688
-0.0191664
-0.130162
-0.117584
-0.131361
-0.0670914
0.00539296
0.000964714
-0.052329
-0.0736768
0.00563589
-0.139187
-0.0803792
-0.0356663
-0.0587028
-0.0599037
-0.0596796
-0.0068257
-0.0790879
-0.035444
-0.0558757
0.000978032
0.000692071
-0.115275
-0.137986
-0.00438822
-0.0523901
-0.12192
-0.051062
-0.126586
0.000280672
-0.0666117
-0.0999983
-0.0489739
-0.0467334
-0.0738717
-0.131712
-0.053054
-0.118403
-0.00618827
-0.0921669
-0.0584521
-0.133829
-0.0287888
-0.0771254
0.00114564
-0.00111297
-0.0836191
-0.000989643
-0.109533
-0.0836383
-0.0481695
0.000371606
-0.00590888
0.000643727
-0.0767023
-0.0655933
-0.0525327
-0.0116715
0.00330301
-0.106061
-0.0760876
-0.0042513
0.00412164
-0.143124
0.00132823
-0.0620499
-0.0422346
-0.0721528
-0.0155107
-0.0825012
-0.120476
0.00267067
-0.0119226
-0.0326458
-0.0442492
-0.0440008
-0.0117759
-0.0541167
-0.0782714
-0.0153652
-0.0366994
-0.0774993
-0.116894
-0.0266271
-0.0330483
-0.116258
-0.136226
-0.00653595
-0.0177608
0.0138768
-0.0841145
-0.035929
0.0025651
-0.00841457
-0.0777678
-0.0271229
-0.0755168
-0.0470182
0.00521711
0.00131557
-0.066994
-0.083389
-0.0262759
-0.0163247
-0.0669546
-0.0467904
0.00195202
-0.059181
-0.0120657
-0.0512812
0.000629451
-0.0866107
-0.0295148
0.0137421
0.00771562
-0.117166
-0.0163925
-0.0405879
-0.00351555
-0.0854724
-0.140829
-0.0330376
-0.0654053
0.00216539
-0.00184268
0.00493401
-0.00243118
0.00397875
-0.048803
-0.0793263
0.0002981
-0.0767669
-0.0542569
-0.0152832
-0.079114
-0.0120422
-0.00585301
-0.0347174
0.0012656
-0.0351866
-0.00319799
-0.122653
-0.0864478
0.0137636
-0.136107
-0.0586528
-0.099682
-0.0154962
-0.102454
0.00110191
-0.0880615
-0.0821042
-0.0654748
-0.123532
-0.105154
-0.0921461
-0.0802027
-0.119171
-0.0357212
-0.0412917
-0.0766496
-0.0547033
-0.081876
-0.0250245
0.000716423
-0.0180887
0.000444517
-0.0111408
-0.000311671
-0.0983666
-0.0547214
-0.0331288
-0.0328964
-0.0111294
-0.0616462
-0.115514
-0.0978989
-0.136455
-0.0785441
-0.116366
-0.0305403
-0.025337
-0.0866156
-0.00277338
0.00319592
-0.0661409
-0.0757889
-3.88712e-05
-0.0602227
-0.000873012
-0.0427117
-0.0413768
-0.0883519
-0.0887516
-0.0700677
-0.0782419
-0.0031794
-0.0513559
-0.10365
-0.0844943
-0.115686
-0.0599986
-0.00889497
-0.127507
-0.0785158
0.00123839
-0.00462656
0.000139066
-0.0324177
-0.120694
0.00669155
-0.0825102
-0.105912
0.00127315
-0.0800703
-0.0765393
-0.0294323
-0.0841414
-0.0803569
-0.0031509
-0.000290283
0.00208094
-0.0221613
0.00193392
-0.105224
-0.0416191
-0.0288936
-0.0926773
-0.014693
-0.0829859
-0.0933001
-0.0887795
-0.0112245
-0.0551935
0.00124129
-0.0381911
-0.0137988
-0.0706136
0.000449795
-0.0861467
0.00474723
-0.0197497
0.000109694
-0.0832081
-0.0228446
-0.105897
-0.0065286
0.00272648
-0.0215605
-0.045012
-0.0310901
-0.0219078
-0.0671304
-0.100883
-0.0460381
-0.0856011
0.0112844
-0.105763
-0.0102489
0.00684528
-0.0590156
-0.114857
-0.0704066
-0.00520272
-0.0420298
0.00196248
-0.0101706
-0.0831654
-0.00130182
0.000947208
0.00093798
-0.08634
-0.0571473
-0.112458
0.0039038
-0.044438
0.000544709
-0.0262582
-0.0945669
-0.0575254
-0.0134815
-0.0955533
-0.0340797
0.00113326
-0.0811324
-0.00177586
-0.0769414
-0.0910038
0.0036418
-0.0789814
-0.0201434
-0.0766824
-0.0652967
0.0137496
-0.090595
-0.00777402
-0.00772344
0.00173375
-0.0806563
-0.0319072
-0.0529427
-0.0685413
-0.0350121
-0.0132494
-0.0927872
-0.0782919
-0.0132239
0.00123315
-0.0319271
0.0110545
-0.00855346
-0.0895108
-0.0618351
-0.0259741
-0.116504
-0.0438469
-0.0897329
-0.0450299
-0.0842111
-0.0965459
-0.0579407
0.000143092
0.0130287
0.00279636
-0.0869428
-0.0936518
-0.0156559
-0.114701
-0.100317
0.00199944
0.00361898
-0.0847288
-0.0970868
-0.0860758
-0.0783759
-0.000746247
-0.0846948
-0.0286979
-0.132598
-0.0821471
-0.040907
-0.0681614
-0.0897755
0.00149322
-0.0434134
-0.0829828
0.0030285
-0.093871
-0.0814728
-0.0500932
-0.0459052
0.000392649
0.000484136
-0.0122335
-0.0745354
-0.0465139
-0.0279885
-0.119617
-0.065612
-0.0839472
-0.101891
-0.09423
-0.0972363
-0.0118658
-0.0981944
-0.000465241
0.00327629
-0.0786057
0.0058831
-0.093446
-0.109623
-0.0686058
-0.0764148
-0.0822501
-0.0840199
-0.0808744
-0.0565226
-0.0948405
-0.135534
-0.0469944
-0.0513079
-0.0218041
-0.105123
-0.0831616
-0.0976961
-0.0263107
-0.0935509
-0.00544894
0.000678278
-0.0628825
-0.0136541
-0.0159366
-0.0980987
-0.0664514
-0.125851
-0.0684392
-0.102877
-0.100279
-0.00399022
0.0180622
-0.0969809
0.000853418
-0.0190014
-0.00832837
-0.0537665
-0.140455
-0.120861
-0.143231
-0.102748
-0.02836
-0.0164866
-0.0896834
-0.0321936
-0.0525246
-0.04475
0.000131746
-0.0106172
-0.082209
-0.0997389
-0.101277
-0.0384839
-0.0789619
-0.137164
-0.134971
-0.0786415
-0.082028
0.00280465
-0.0818177
-0.109108
0.00122624
-0.0659743
-0.098141
-0.0826635
-0.0679724
-0.0185184
-0.0825746
-0.103613
-0.000681775
0.0102739
-0.0224957
-0.112119
-0.0769849
-0.0424303
-0.104435
-0.0879444
-0.144583
-0.112673
-0.0196255
-0.104092
-0.108314
-0.0557732
-0.0742743
-0.0439283
-0.0916658
0.00300942
-0.0438055
-0.133796
-0.146205
-0.0031802
-0.133756
-0.00952002
-0.109252
-0.105821
-0.0658088
-0.117617
-0.0719056
0.000198442
-0.0860857
-0.105491
-0.105636
0.00147578
-0.00472958
-0.0423948
-0.0767595
-0.105467
0.0200253
-0.0252062
-0.124266
-0.141608
-0.098598
-0.0823547
-0.0433795
-0.112148
-0.124877
-0.057789
-0.114985
-0.125645
-0.106166
-0.0135878
-0.06861
-0.115733
0.00204959
-0.10471
-0.109007
-0.024781
-0.110905
-0.00282051
-0.0145466
-0.000721565
-0.00315922
-0.0521085
-0.0998702
0.00261536
0.00845354
0.0148223
-0.109053
-0.0609391
-0.122608
-0.105627
-0.00237142
-0.0915401
0.012529
0.00971298
-0.00435382
-0.0755457
0.000546758
-0.0807659
-0.11597
-0.0419111
-0.0100987
-0.0422222
-0.0671054
-0.00305105
-0.0118388
0.00307387
-0.0225689
-0.121802
-0.00328853
-0.0154317
-0.117628
0.000180798
-0.0815481
0.00377239
-0.116937
-0.0639705
-0.106867
-0.0187301
-0.0424461
-0.133906
-0.0785091
-0.0574899
-0.0911753
0.000685771
-0.126657
-0.0284009
-0.00993049
-0.0320602
-0.126784
-0.121891
-0.100848
-0.0375144
-0.0652518
0.000388956
-0.0417984
-0.0876862
-0.112755
-0.105747
-0.124728
0.0028343
-0.0250796
-0.14116
-0.0479038
-0.00545174
-0.0435429
-0.116207
-0.0292409
-0.1178
-0.125224
-0.113404
-0.00250727
-0.126341
-0.0316375
-0.000472881
0.00642012
-0.120447
-0.124292
-0.0939658
-0.0682902
0.00315175
-0.00844418
-0.075196
-0.0936324
-0.0574442
0.000920499
-0.0195814
0.00276487