/*--------------------------------*- C++ -*----------------------------------*\
| =========                 |                                                 |
| \\      /  F ield         | OpenFOAM: The Open Source CFD Toolbox           |
|  \\    /   O peration     | Version:  v2012                                 |
|   \\  /    A nd           | Website:  www.openfoam.com                      |
|    \\/     M anipulation  |                                                 |
\*---------------------------------------------------------------------------*/
FoamFile
{
    version     2.0;
    format      ascii;
    class       surfaceScalarField;
    location    "100";
    object      phi;
}
// * * * * * * * * * * * * * * * * * * * * * * * * * * * * * * * * * * * * * //

dimensions      [0 3 -1 0 0 0 0];
oriented        oriented;


internalField   nonuniform List<scalar> 
21967
(
0.0609282
-0.462921
0.401993
0.651603
-0.247731
-0.403872
0.0731035
-0.077658
0.0045545
-0.396458
-0.140422
0.536879
0.326715
-0.204938
-0.121778
-0.132269
0.424104
-0.291835
0.000126382
-0.00486266
0.00473628
0.252513
-0.0658725
-0.18664
0.135526
-0.568248
0.432722
-0.387753
-0.192755
0.580508
0.0725399
0.489825
-0.562365
0.00605278
-0.00685362
0.000800845
-0.386918
-0.188746
0.575664
-0.310601
0.0102151
0.300386
-0.0282359
0.0160581
0.0121779
-0.506707
0.226627
0.280081
0.000214417
-0.000270067
5.56491e-05
-0.0565361
-0.254065
-0.245652
-0.261055
0.558875
-0.497946
0.666076
-0.352368
-0.313708
0.139285
0.18743
-0.452354
0.389852
0.0625025
0.289541
-0.429719
0.140178
0.303379
-0.435588
0.132208
0.000914619
0.00486592
-0.00578054
0.00362071
-0.00349432
0.569854
-0.0821484
-0.487706
-0.0163461
-0.0118899
-0.025056
-1.80157e-06
0.0250578
0.0915564
-0.0965432
0.00498673
-0.000103059
0.000317476
0.204217
0.107435
-0.311652
0.24829
0.00422321
0.0584703
-0.00294737
-0.0555229
0.173162
-0.565748
0.392586
-0.453946
0.593949
-0.140003
0.426648
-0.137107
-0.0271618
-0.0777782
0.10494
-0.421793
-0.123949
0.545743
-0.00568834
0.11928
-0.113591
0.114911
-0.142073
0.0213514
-0.180601
0.15925
-0.186731
-0.171583
0.358315
-0.207369
-0.0149169
0.222285
-0.0390879
-0.00515524
0.0442431
-0.0101179
-0.102276
0.112394
0.137589
-0.534047
0.205488
-0.195334
-0.0101532
0.255513
0.410563
0.609752
-0.319927
-0.289826
-0.589388
0.60126
-0.0118718
0.704835
-0.471068
-0.233767
-0.438681
-0.0136735
-0.067388
0.271605
0.112061
0.457794
-0.00325416
0.00416878
0.000396008
-0.000666074
0.283089
-0.243196
-0.0398926
0.240071
-0.626988
0.000279923
-0.000382982
-0.011992
0.0704622
0.1322
-0.560894
0.428694
0.379967
0.271636
-0.216908
0.38709
-0.170183
0.000341903
0.00571087
-0.4861
0.387101
0.0989989
0.0795837
0.389297
-0.468881
0.301864
-0.689617
0.112911
-0.362192
0.24928
-0.363303
0.113978
0.249325
-0.377584
0.457167
-0.258624
0.348273
-0.0896486
-0.176873
-0.0214415
0.198315
-0.0596398
-0.024979
0.0846188
0.313898
0.295854
-0.15033
0.420305
-0.269975
-0.228346
0.215606
0.0127402
-0.160996
0.606994
-0.445998
0.150657
-0.317528
0.166871
-0.210621
0.361279
0.5969
-0.104478
-0.492422
-0.0136502
-0.164189
0.177839
0.014827
-0.000203594
-0.0146234
0.658144
-0.658144
0.326187
-0.449462
0.123275
-0.00406547
0.515224
-0.511159
0.176745
0.360985
-0.537729
-0.32066
0.227946
0.0927147
-0.195107
-0.125553
-0.024469
0.138427
-0.113958
-0.351415
0.52816
0.122606
-0.544399
-0.361994
0.5332
-0.171206
-0.604991
0.312881
0.29211
0.030583
-0.0149531
-0.0156299
-0.480897
0.616348
-0.135451
-0.197153
-0.378567
0.134901
0.243666
0.0645703
0.532329
-0.0477287
0.00864081
0.122429
-0.0194849
-0.102944
-0.0215388
0.133274
-0.111735
0.0531693
-0.270077
0.138669
-0.159412
0.0207433
0.42123
-0.117851
0.484931
-0.149543
-0.335389
-0.549436
-0.0289991
0.578435
-0.333439
-0.0451282
-0.0027381
0.00262201
0.000116089
-0.465081
-0.0843545
0.366235
0.118696
0.00201196
-0.00214958
-0.0445969
-0.18311
0.227707
0.261348
-0.307061
0.0457128
-0.0717883
0.0737232
-0.00193493
-0.0137585
-0.105801
0.11956
-0.170864
0.192215
-0.492556
0.201317
0.291239
0.431789
-0.578596
0.146807
-0.0746535
0.0150137
0.15283
-0.0141611
-0.472137
0.110142
0.142219
-0.155869
-0.26593
0.125958
-0.170555
-0.477904
0.473838
-0.710615
0.37697
0.333645
0.0779008
-0.143773
0.00029672
-0.0253527
-0.565758
0.420576
0.145182
0.00852108
0.0220619
0.561463
-0.425938
0.148929
-0.0728978
-0.0760311
0.212451
0.492384
-0.163641
0.0157914
0.14785
-0.0497125
-0.0673954
0.117108
0.0420223
-0.389769
0.347747
-0.00155001
0.133174
-0.177165
0.0439909
-0.536566
0.0826201
-0.15823
-0.416967
0.575197
0.387064
-0.345042
-0.337229
0.150497
-0.101957
0.124802
-0.0228443
0.362265
-0.563444
0.201179
0.120476
-0.134234
-0.148731
0.0709528
0.0114716
-0.0141608
0.00268923
-0.506003
0.40219
0.103813
-0.461277
-0.0248233
-0.415087
-0.15067
0.0706106
-0.0921494
-0.124639
0.0226813
0.157791
-0.620712
0.40622
0.156689
-0.56291
-0.337476
0.40396
-0.0664838
0.325109
-0.293063
-0.0320459
-0.457822
0.391614
0.0662082
0.0139353
-0.00246373
0.616004
-0.258329
-0.357674
-0.593733
0.430717
0.163016
-0.332449
-0.378166
0.403233
0.243043
-0.306522
0.063478
-0.00867193
0.00736326
0.00130867
-0.468289
-0.169835
0.638124
-0.314648
-0.290343
0.367091
-0.572503
0.205412
0.115077
0.210032
0.306111
0.309892
-0.254836
-0.00378786
0.0102488
0.0488261
-0.0590749
-0.109049
0.471315
0.213905
-0.237053
0.0231484
0.0119323
-0.0022074
-0.00972487
-0.141508
-0.00743126
0.148939
-0.00355791
0.00389982
0.0761792
-0.0659304
0.562625
-0.195533
0.662882
-0.315334
-0.347548
-0.00194661
0.207434
-0.337778
0.438085
-0.100306
0.216009
0.0670798
-0.212128
0.593732
-0.381604
0.00337951
0.0710434
-0.0744229
-0.11238
-0.0512613
0.00987573
-0.0090598
-0.000815924
0.0332654
0.115664
-0.546049
0.0777597
0.595233
-0.31991
-0.275323
0.0611783
-0.000445739
-0.0607326
-4.8991e-05
-0.00418631
0.0042353
0.296361
-0.344275
0.0479131
-0.0653251
0.0634985
0.00182666
-0.145861
-0.0670059
0.212867
0.0855727
-0.0977276
0.0121549
0.00926112
0.000614605
-0.425167
0.0873889
0.0529006
-0.0429179
-0.00998276
-0.0885895
0.430079
-0.34149
0.428326
-0.582067
0.153742
-0.144468
-0.449265
0.00951442
0.0694219
-0.0789364
-0.353266
0.220997
-0.151424
0.148755
0.00266915
0.0861878
0.00536865
0.415978
-0.323355
-0.0926233
0.0157612
-0.192634
-0.562348
0.468072
0.0942758
-0.513402
0.509184
0.00421782
-0.0615355
0.064915
0.13873
-0.555697
-0.536149
0.395727
-0.0035598
0.0455884
-0.0420286
-0.51682
-0.0405715
0.557391
0.449979
0.0288993
-0.478879
0.325747
-0.499147
0.1734
0.0624106
-0.112123
-0.0120844
0.428063
-0.368216
0.0897724
0.278443
0.17535
-0.0750128
-0.100337
0.6242
-0.455211
-0.168988
0.437399
0.125225
0.00484663
-0.0180279
0.0131812
-0.13597
-0.015454
-5.91e-06
0.0119382
-0.53276
0.0159401
-0.179301
0.56346
-0.384159
-0.143034
-0.0145414
0.157576
-0.183474
-0.0448725
-0.000810685
-0.0645144
0.449121
-0.363229
-0.0858927
-0.029148
-0.168981
-0.0338448
0.202826
0.362386
-0.0361993
-0.024991
-0.0503188
0.0753098
0.101091
-0.0155187
0.460763
-0.207361
-0.253402
0.106845
0.0375409
-0.144386
-0.00985359
0.00849111
0.00136248
-0.210659
0.209464
0.00119525
0.168011
0.0505313
-0.218543
0.00607024
-0.00148418
-0.42917
-0.144468
0.573638
-0.551269
0.152021
0.399248
-0.213887
-0.0079969
0.221884
-6.55567e-05
0.00060969
-0.000544134
-0.290932
0.214347
0.0765855
0.31158
-0.0628579
0.0727013
-0.0098434
-0.00437404
0.126803
0.191813
0.32287
-0.386369
0.0634998
-0.0221009
0.473729
-0.451628
0.367636
-0.501786
0.13415
0.0161497
-0.00132274
-0.0559921
-0.00865944
0.0646515
0.000798875
0.0521018
0.00552215
0.000548096
0.42895
-0.10608
-0.125568
-0.31002
0.412388
-0.434489
0.337923
-0.543755
0.205832
0.247874
0.347359
-0.000145569
0.00632619
-0.00618062
-0.556486
0.397519
0.158967
-0.163038
0.530674
-0.000854419
-0.014598
0.0154525
0.545934
-0.413734
0.362163
-0.492701
0.130538
0.00402264
0.141463
-0.145485
-0.116076
0.110387
-0.00445221
-0.00540138
0.162608
-0.165721
0.00311335
-0.183898
-0.0172938
-0.496108
0.190922
-0.142513
-0.0484093
0.421985
0.0225412
0.152809
-0.456555
-0.0999312
-0.0362255
0.0375633
-0.00133782
0.337937
0.111184
-0.00111499
0.234787
-0.233672
0.342513
0.11825
0.0081303
-0.00681346
-0.00131684
-0.228402
0.0004536
0.00328767
-0.00374127
0.558837
-0.315023
-0.243814
-0.00595169
0.00788621
-0.00193452
0.00490691
-0.00505248
0.0655109
0.125411
-0.118125
0.555524
0.0661639
-0.0781559
0.12198
0.304667
0.308983
-0.0476345
-0.0559314
0.0633188
-0.00738749
-0.315957
0.423203
-0.107246
0.0500351
-0.252614
0.202579
0.548872
-0.397275
-0.151597
0.729347
-0.457415
-0.271932
0.226218
-0.239642
0.0134242
0.300508
0.207681
0.00792464
0.34301
0.28119
0.0770384
-0.0363751
-0.0406633
0.161203
-0.492287
0.331084
-0.574976
0.446743
0.128233
-0.00127753
0.0268231
-0.0255456
-0.101297
-0.238857
0.340154
-0.0812873
0.48048
-0.399192
0.475008
-0.149262
-0.0662731
0.0609825
0.00529055
-0.362987
-0.142864
-0.000170048
-0.583322
0.54842
0.0349024
-0.311918
-0.702752
0.3217
0.381053
-0.0863204
-0.706869
0.146292
0.560578
0.331301
0.398046
-0.346691
0.120107
0.226583
0.0733674
-0.0983585
-0.0735261
0.00785375
0.0656723
-0.109974
-0.158669
0.575592
-0.416923
-0.235104
-0.133112
-0.0817461
0.00995784
0.0521214
-0.0658549
0.0137335
-0.187009
0.185529
0.00147988
-0.230789
-0.0590589
0.289848
-0.423481
0.462167
-0.0386866
0.104623
-0.00221581
0.00266941
0.345037
-0.508114
0.163077
0.00794324
0.000187058
0.182785
-0.0201776
-0.00218226
0.00204508
0.000137179
0.075264
-0.00422058
0.00199155
-0.00783206
0.0100328
-0.00220072
-0.0352401
0.112615
-0.0773747
0.00479764
0.000934148
-0.00573179
0.0713217
0.00240154
-0.315429
0.454159
-0.354987
0.204657
0.0282343
0.00155673
-0.029791
0.00431428
-0.00436327
0.545836
-0.117511
-0.393476
0.268902
0.124574
0.196995
-0.218437
0.428391
0.13891
-0.567301
0.572194
-0.252635
-0.31956
-0.0347133
-0.103296
0.138009
0.534888
-0.401217
-0.133671
0.759782
-0.428481
0.02154
-0.202915
0.181375
-0.567591
0.138421
-0.00897821
-0.0645479
0.444441
-0.359716
-0.0847248
-0.3391
-0.00844217
0.347542
-0.599848
0.510578
0.0892704
0.125803
-0.115913
-0.00989015
0.0446138
-0.0414904
-0.00312347
-0.0015955
-0.000586766
0.00748193
0.218736
0.104224
0.340217
-0.0237881
0.0938559
0.0412619
0.00335192
-0.0572066
-0.281893
0.326187
0.433595
-0.0133195
0.0141899
-0.000870354
0.704957
-0.302504
-0.402453
-0.152335
-0.044986
0.197321
0.558583
-0.486043
0.00692404
-0.0684596
0.0019774
-0.00231299
0.000335587
0.599535
-0.10971
-0.607978
0.259798
0.348179
-0.0241531
-0.135192
0.159345
0.354758
-0.436045
0.495057
-0.0244471
0.0208926
0.00355448
0.249097
0.0624836
0.231181
0.473775
-0.549823
-0.0388455
0.588668
0.372209
0.199986
0.477491
0.0573978
-0.00866053
0.0135072
-0.559544
0.0786475
-0.0323982
-0.00382726
0.184382
0.109027
-0.293409
-0.222003
0.0157711
0.206232
-0.145609
-0.561261
-0.106903
-0.00374692
0.00574779
-0.00200087
0.0950268
-0.127416
0.0323891
0.000327093
-0.18747
0.187143
0.241037
-0.0271324
-0.00272929
0.12567
-0.122941
0.326544
-0.261094
-0.0654494
-0.358725
0.438063
-0.0793375
0.0102759
-0.00852999
-0.00174595
0.0625262
-0.0104048
0.141309
-0.0773658
-0.063943
-0.186459
-0.104473
0.228381
-0.0672218
-0.161159
-0.616302
0.470694
-0.414099
-0.00102652
0.415125
-0.567907
0.409238
-0.512787
0.629924
-0.117137
0.173205
-0.160932
-0.0122731
0.000214366
0.000615808
0.525378
-0.364175
0.0517713
-0.475252
-0.0498932
0.267897
-0.218004
0.495995
-0.400094
-0.0959006
-0.0533427
-0.30996
0.198379
0.128165
0.0532503
-0.271495
0.175021
-0.0258268
-0.149194
-0.0522016
0.0398083
0.0123933
0.326388
-0.489197
0.162809
0.546452
-0.454113
-0.0923388
-0.136518
0.101278
0.000517966
-0.00154541
0.00102744
-0.152762
0.167349
-0.0145874
-0.15978
0.386562
-0.226781
0.4187
0.127136
-0.58962
0.432429
0.157191
-0.135595
-0.0893757
0.22497
0.0292486
-0.0338729
0.00462426
0.323354
-0.423514
0.10016
-0.0267068
-0.0254948
-0.224113
0.175614
0.0484984
0.00134294
-0.00082497
0.413413
0.133039
-0.0333889
0.0338711
-0.00048213
0.00142906
-0.098823
0.363504
-0.264681
0.0271329
0.201248
-0.524689
-0.0646988
-0.0393922
0.221085
-0.181693
-0.212606
-0.101943
0.0184818
0.0834608
-0.186054
0.512442
-0.441134
0.352544
-0.0913476
0.0823694
0.105428
0.0358811
0.221507
-0.289715
0.0682078
0.0337603
-0.0335624
-0.000197932
0.117844
-0.0228168
-0.0105542
-0.00170213
0.0122563
0.331847
-0.59739
0.265542
-0.0609073
0.0687611
0.295895
-0.543627
-0.166841
-0.328768
0.309121
0.019647
0.235105
0.0738782
0.00806811
0.502481
-0.174336
-0.328145
0.181071
-0.230964
0.393982
-0.492652
0.0986696
-0.00480125
0.00175279
0.144803
-0.184196
-0.18183
0.366212
-0.0141821
-0.00141956
0.0156017
-0.302474
0.203651
-0.0987191
0.540252
-0.402663
-0.0070229
-0.00131204
0.00833495
0.00220276
0.00611434
-0.0013167
0.00748408
-0.157831
0.159746
-0.0891355
0.750217
-0.42403
-0.144225
0.149018
-0.00479295
-0.407232
0.286672
0.120561
-0.015926
-0.0343881
0.0308283
0.103507
0.0562396
-0.0707311
0.0766135
-0.00588235
-0.195736
0.690793
0.0614787
-0.2316
-0.118332
0.349932
0.0463229
-0.0095359
-0.036787
0.00121613
-0.0288932
-0.00449571
0.00807362
-0.00624926
-0.00182437
-0.136723
0.152064
-0.0153411
0.0330301
-0.185365
0.00496337
-0.0201386
0.0151752
0.189609
-0.552507
0.362898
0.577789
-0.383107
-0.194682
-0.411561
0.11615
0.295411
0.412423
0.165366
0.189321
0.192362
-0.192035
-0.40618
0.129297
0.276883
0.447713
0.00177523
0.35604
0.0680632
0.141627
-0.448998
0.307371
-0.158966
0.0222435
0.336765
0.165715
-0.140487
0.572916
0.0629415
-0.053427
-0.158602
-0.0254915
0.0332493
-0.00775785
-0.180581
-0.137278
0.0300232
0.260459
-0.0389519
0.0134035
-0.0126512
-0.000752321
-0.00381615
0.0320462
-0.0282301
-0.341551
0.52698
-0.185429
-0.0802983
-0.249279
0.329577
0.621933
-0.37406
0.117498
-0.120227
0.0302265
-0.000977906
0.00814222
0.117661
-0.00861752
-0.00119889
0.00981641
-0.00136325
0.0133325
-0.0119692
-0.00439849
0.124874
0.0158537
-0.00780629
-0.00804743
0.00153277
0.017449
-0.0189818
-0.107647
0.104374
0.00327355
0.651869
-0.346117
-0.305752
-0.157103
0.563323
-0.000757312
-0.202949
0.0570877
0.166311
-0.133281
-0.653778
0.353992
0.299786
0.302388
0.349481
-0.391979
0.130631
0.261348
0.154027
-0.168568
0.0113431
-0.0121975
-0.0876416
0.410995
-0.036494
0.033812
0.00268204
-0.515791
-0.0131317
0.528923
-0.383172
0.325965
-0.311624
-0.241521
0.553145
0.0638647
-0.37032
0.306456
-0.0150582
-0.516857
0.107119
0.409738
0.328189
-0.445699
0.11751
0.179637
0.478507
-0.511852
-0.601954
0.00210557
-0.459084
0.117533
-0.380701
-0.189777
0.570478
-0.169412
0.0921782
0.0772336
-0.315129
0.504738
-0.0349379
0.256949
0.0295124
-0.286461
0.321816
-0.418988
0.0971711
-0.0047027
-0.00150121
0.00620391
-0.240096
-0.413682
-0.000181036
0.000630528
-0.000449492
0.379606
0.141597
-0.521204
0.059933
0.207964
-0.358566
-0.0493348
0.407901
-0.140365
-0.00114317
0.373332
-0.58546
-0.0177463
0.201352
-0.183606
0.0298127
-0.00926202
-0.0205507
0.515655
-0.0969547
0.012342
-0.234345
0.0751208
-0.119507
0.0443862
0.00454873
-0.0674067
-0.0105104
-0.00239662
0.012907
-0.215358
-0.223322
0.239796
-0.113837
-0.107611
0.00483247
0.32962
0.208906
-0.538526
-0.49258
-0.0572432
0.0414286
-0.0309262
-0.0105023
-0.509928
0.00424531
0.505683
0.00860528
-0.205165
0.00126017
0.000863303
-0.562035
0.0532049
0.50883
-0.0237506
0.505481
-0.48173
0.133746
-0.533299
0.399553
0.5891
-0.609602
0.0205021
0.45836
-0.12874
0.359571
-0.425296
0.0657245
0.485592
-0.098491
-0.014193
-0.143509
0.157702
0.12797
0.29326
0.016139
-0.0146062
-0.00353772
0.00393712
-0.000399401
0.00190595
-0.00214595
0.000240004
-0.0920066
-0.0774052
0.433727
-0.105538
-0.00195978
0.0301941
0.059649
-0.0590761
-0.000572867
-0.528671
0.411063
0.117608
0.0704833
-0.301272
-0.000517617
0.00242356
0.161388
-0.179134
-0.271946
-0.234057
0.172792
-0.0396174
-0.262682
-0.274145
0.00837959
0.342908
-0.460476
0.117568
-0.0951102
0.103308
-0.0081981
0.0358104
-0.00205007
-0.135592
0.157132
0.000214971
0.567801
-0.117822
-0.127854
0.470762
-0.0106608
0.0156241
0.559663
-0.131272
-0.165413
0.164259
0.00115394
0.0175021
-0.0948679
-0.145625
0.138194
-0.00399197
0.00150558
0.00248638
0.374978
0.0155797
-0.390558
-0.238226
0.351137
0.019633
0.0695693
-0.303385
0.233816
-0.264368
-0.239401
0.503769
0.331883
0.101093
-0.432976
-0.524275
0.0143474
0.439455
0.110097
-0.549552
0.00211776
-7.26784e-05
-0.538684
0.0228933
-0.113817
-0.56718
0.406184
0.102075
-0.112193
-0.280455
0.100125
0.18033
0.157388
-0.163793
0.00640538
-0.0210907
0.264134
0.315994
-0.192458
0.458548
-0.26609
-0.127796
-0.247794
0.37559
0.216988
-0.00930677
-0.531396
0.150695
0.392993
0.122662
0.0540886
0.349284
-0.403373
0.532
-0.409394
-0.534433
0.0778779
0.155451
-0.000117914
-0.155333
-0.0686772
0.000795886
0.000467815
-0.0012637
0.121737
-0.642146
0.24999
0.392157
0.0155675
-0.142019
-0.349561
-0.158896
-0.0217046
0.00193617
0.0172946
0.231362
-0.248656
0.133656
0.19237
-0.326026
0.269258
0.168827
-0.0413155
0.00284266
0.0384729
-0.296305
-0.161517
0.29987
-0.282576
0.0367321
-0.0073604
-0.0293717
-0.029442
0.0318762
-0.00243422
-0.0125439
0.0646898
-0.0521459
0.451615
-0.113692
0.439831
-0.55901
0.11918
0.000618408
-0.0232508
0.0226324
0.236002
-0.237117
-0.397111
0.0385445
-0.496636
0.232267
0.0119103
-0.225797
-0.0639425
0.324078
0.0433963
-0.367474
-0.0631805
0.450245
-0.0850582
0.0789084
0.00614974
0.00104509
0.550839
-0.111008
0.262044
-0.10663
-0.155414
-0.139951
0.115482
0.00380736
-0.421008
0.310246
0.110762
-0.170256
-0.325709
0.495965
-0.0652149
0.071779
-0.00656403
0.642577
-0.411395
-0.142175
0.352529
-0.0613998
-0.291129
0.456293
-0.543088
0.0867955
0.0196285
-0.0190101
-0.0125521
0.00204177
-0.312943
0.376808
-0.175014
-0.0124568
0.269943
-0.440199
0.325482
0.103468
0.35075
0.174628
0.00398712
0.1534
-0.00101484
-0.00172325
0.331001
0.311576
0.0260473
0.649736
-0.193443
-0.458792
-0.0872566
0.0033499
0.0370042
-0.0403541
-0.000418745
-0.000502501
0.000921247
-2.35938e-05
-0.00351413
-0.0805036
0.0301848
-0.353965
0.408053
0.00316978
0.296953
-0.484996
0.188043
0.0310342
0.23101
0.00874013
-0.000768272
-0.00797185
0.00141526
-0.00319653
-0.000361381
-0.0454303
0.120551
0.470171
-0.00691682
-0.463254
-0.0552408
-0.528081
-0.00543774
-0.110638
-0.0225111
-0.0139829
0.436833
-0.308863
0.0673442
0.210935
-0.278279
-0.371466
-0.171558
0.543024
0.176736
-0.0212848
0.0631261
-0.0544395
-0.00868656
-0.00553927
-0.0553681
0.182623
-0.342404
0.444692
-0.0996541
-0.475109
-0.141194
0.35094
-0.0268624
0.000212339
-0.308872
-0.102689
-0.349042
-0.143246
-0.201512
-0.370991
0.000473548
-0.00305784
0.21344
-0.537079
0.323639
0.10564
-0.446542
0.340902
-0.502378
-0.0596566
-0.00446325
-0.0549635
0.0594267
0.128889
-0.153042
-0.279381
0.278392
-0.102264
-0.426407
0.281439
-0.214095
-2.81887e-05
-0.0914401
0.325963
-0.234523
-0.00324209
0.0689541
-0.382919
0.516665
0.486039
-0.53727
0.0512316
0.216131
-0.307571
-0.192759
0.151962
0.0407969
-0.225065
0.284998
0.00489422
0.20457
0.0141254
-0.0165221
0.217449
-0.188218
-0.029231
-0.117489
-0.0760118
0.00257228
0.0570767
0.234374
0.387559
-0.108219
-0.340779
0.0945536
0.347678
-0.442231
-0.00225899
0.00273253
0.00598118
-0.000196155
-0.00569385
0.00589001
0.00899199
-0.100433
0.0914413
0.521666
-0.415119
-0.106547
-0.562985
0.0878767
0.0132327
0.00291705
0.223006
-0.402306
-0.00193259
7.96273e-05
0.00185296
0.000297249
-0.00255623
0.442461
-0.336821
0.105966
0.381025
-0.486991
0.000366393
0.00739357
-0.00775996
0.254562
0.0556754
-0.310237
0.188912
0.0508839
0.37183
0.0484758
-0.00353181
0.00391924
-0.000387432
-0.28374
-0.218046
-0.00734898
0.098907
-0.0915581
0.626788
-0.249233
-0.377555
0.216545
0.383703
0.0150073
-0.00177464
-0.238798
0.00421515
0.234583
0.0756247
-0.0951096
-0.0574733
0.0590421
-0.00156874
0.0533196
-0.443089
-0.328932
0.423486
0.0365876
0.00484103
-0.228163
-0.0011156
0.229279
-0.319155
0.449514
-0.117666
0.442131
-0.116648
-0.00745221
-0.253791
0.186569
-0.0696782
0.286987
0.149846
-0.439076
0.511276
-0.0722005
0.11147
0.384525
-0.00397411
0.00695026
-0.00297615
-0.438274
-0.159116
-0.54606
0.103293
0.442767
-0.0986695
-0.0102019
0.108871
0.112349
0.494645
-0.203674
0.273244
0.494755
0.00840253
-0.503157
-0.123829
0.141331
-0.424818
-0.0907266
0.515545
0.435492
-0.121295
-0.314197
0.0280377
0.00777266
-0.116703
0.531978
-0.415275
0.0132887
-0.00721575
-0.0179298
-0.319299
0.0896046
-0.0704058
-0.0191988
-0.124342
-0.483635
0.391428
0.000185718
-0.0015004
0.00863871
-0.00713831
-0.252198
-0.0920766
0.0340191
-0.00598135
0.316153
-0.379334
-0.0327664
-0.457504
-0.110744
0.397409
-0.128151
-0.0136687
-0.0526044
0.117008
0.423244
0.395687
-0.513235
0.117548
0.438413
-0.462164
-0.10346
-0.00486232
-0.029112
0.0339743
-0.0973476
-0.336377
0.433725
0.236555
-0.380168
0.143613
0.00622094
0.195132
0.60853
-0.451841
0.0347931
-0.0314432
0.28402
0.149708
-0.00803551
-0.000636423
0.517485
-0.400477
0.240811
0.00454807
0.0252647
0.101078
-0.089587
-0.0114906
0.46145
-0.508314
0.0468643
-0.327395
0.199599
-0.0566745
0.00160338
-0.00130613
-0.0339949
0.0421458
-0.00815094
0.355967
-0.511127
0.15516
-0.309186
-0.104912
0.421522
-0.342111
-0.0794106
0.462268
0.105278
-0.567545
0.547191
-0.0849229
-0.105795
0.0161208
-0.0163244
0.088352
-0.0557493
-0.0326027
0.354261
0.0672606
-0.00149298
0.157065
-0.155572
-0.0805204
0.407572
-0.327052
0.320134
0.115358
-0.00490053
0.0045328
0.000367731
-0.00813603
-0.110135
0.299759
-0.0506624
0.238159
0.00453287
-0.540775
0.424072
0.490018
-0.134051
0.058781
0.0308235
0.300955
-0.0463927
0.00726708
-0.0777547
0.335519
-0.0769052
-0.258614
0.27993
-0.165953
0.501336
0.102183
0.400517
0.148355
0.1502
0.197616
-0.00062062
-0.00150902
-0.0122788
0.0137878
-0.56711
0.0276541
-0.452472
-0.406514
-0.144755
-0.332164
0.628059
-0.0369279
-0.169026
0.205953
0.48232
-0.244256
0.467111
0.0323224
-0.0343938
0.00207137
0.0690098
-0.00551135
-0.25772
0.204392
0.0533275
0.544458
-0.193708
0.00222113
0.0136326
0.494296
-0.197344
-0.0776553
0.291046
-0.213391
0.00105335
-0.0116076
-0.328295
-0.0789373
0.246768
-0.0619606
0.00699709
0.0343951
0.00800983
0.126402
-0.134412
0.0555913
0.0327607
-0.209841
0.071397
0.138444
0.636997
-0.442389
-0.194608
0.578244
-0.364804
-0.506945
0.39237
0.114575
0.0402581
-0.394223
0.0161245
-0.117093
-0.0513091
0.426287
0.483368
-0.38745
-0.331192
0.253393
0.0777995
0.241847
-0.0236223
-0.218225
0.108084
-0.145012
-0.113896
-0.426879
-0.00467655
-0.492088
0.208348
0.0182359
0.334293
-0.00158489
0.00664989
-0.005065
0.0104056
0.0257976
-0.0362033
-0.105389
0.162088
-0.00701298
-0.155075
-0.000429036
0.00184585
-0.00141682
-0.605277
0.178635
0.426642
-0.193016
0.327917
-0.231561
-0.261596
-0.142906
0.404503
0.0895983
0.0114793
0.00659489
0.184109
-0.00130655
-0.182802
-0.320178
0.373498
-0.628469
0.379236
-0.450566
0.316015
0.134551
0.164136
-0.496585
0.0153983
-0.417215
0.245631
-0.423057
-0.0440527
0.150898
-0.00347933
-0.000512637
0.263495
-0.447198
0.183703
0.00424555
-0.00143613
-0.00280941
0.175135
-0.137594
0.014647
-0.0159245
0.153143
0.065314
-0.218457
-0.516432
0.0589279
0.0593156
-0.04891
0.0521229
0.000810344
0.0910707
0.277358
-0.368428
-0.32642
0.0810431
0.245377
0.0516204
0.116191
-0.167812
0.0313579
-0.0313597
0.289361
-0.0542562
0.0425444
-0.375176
0.415434
-0.502262
-0.044766
0.547028
-0.0106226
0.0800446
0.228005
-0.131135
0.415155
0.0732761
0.262243
0.00579976
-0.00825282
0.00245307
0.093008
-0.0195796
-0.0734284
0.092363
-0.547574
-0.170688
0.174012
-0.00332465
-0.0813453
0.0903373
0.0171291
-0.456205
0.343809
0.134905
-0.478713
-0.117127
0.333258
-0.154264
0.41776
-0.0236844
-0.393738
0.417423
-0.483377
-0.0842137
-0.00628253
0.417769
-0.0665764
0.0150567
-0.000931229
-0.238995
-0.129442
0.125043
-0.121432
0.202831
0.143573
-0.346404
-0.596951
0.183201
0.41375
0.409889
-0.495141
0.0852527
-0.00542683
0.219156
0.00274633
0.00149921
-0.556769
0.155291
0.401478
0.00994739
0.0784949
-0.0884422
0.0350164
-0.002694
-0.14129
-0.0358751
0.381926
-0.491123
0.109198
-0.00858413
0.123495
0.0143488
-0.0133991
0.216868
-0.165248
-0.184645
-0.0460604
0.230706
-0.24454
0.00233874
0.242201
-0.359752
0.0128888
-0.51766
0.504771
0.0378292
-0.173422
-0.00605217
0.091879
-0.0858268
0.210642
0.390618
0.631742
-0.271406
-0.360336
-0.628119
0.200962
0.427156
0.064848
-0.273982
0.209134
0.0308297
-0.00400656
0.48366
-0.224474
-0.259185
-0.559644
0.189761
0.369883
-0.00410729
0.165681
-0.0116541
-0.499232
0.389431
0.109801
0.452894
-0.250063
0.00236452
-0.000761141
0.0551406
-0.0517087
-0.00343194
0.340293
-0.432233
0.09194
0.0120281
0.297093
0.329844
-0.347693
-0.000683369
0.00147926
-0.0944065
-0.468579
-0.00448132
0.229183
-0.224701
-0.242255
-0.00486513
0.24712
0.00275402
0.0388546
-0.0416086
0.384362
-0.0566979
-0.139112
0.145807
-0.00669498
-0.429695
0.0303094
-0.00235002
0.000537159
0.00181286
-0.0364001
0.0402309
-0.00383079
0.224899
-0.22938
0.237291
-0.00250351
-0.0393455
0.00294542
0.0803155
-0.0703681
0.403589
-0.307471
-0.0954458
0.402917
0.112645
0.264868
-0.377513
-0.378809
-0.17796
0.493996
-0.0103366
-0.41346
0.336346
0.0771141
-0.216714
0.626602
-0.0108433
0.0600741
-0.0492307
-0.00638925
-0.143648
0.150037
0.434727
-0.542167
0.107439
0.209579
-0.422885
0.486452
-0.0635676
0.145945
0.0061189
0.635772
-0.255805
-0.510049
0.0559359
-0.416131
0.10866
0.0438466
-0.443941
-0.273191
0.364262
-0.0049431
0.138217
0.487703
0.00629312
-0.137599
0.0590326
0.160321
-0.106692
-0.00515984
0.232361
-0.424819
-0.108547
-0.256108
0.364654
0.209815
0.421927
0.0114176
0.0798134
-0.091231
0.100272
-0.112841
0.0125687
-0.119555
-0.317768
0.481904
-0.0993173
0.00417919
0.116938
-0.121117
0.0154406
-0.0176112
0.00217066
0.384926
-0.252474
-0.132452
-0.00101326
-0.00204458
0.523382
-0.162105
-0.361277
0.0973799
-0.360314
0.262934
0.590955
-0.252633
-0.338322
0.00206737
0.000554642
0.00726886
0.116296
-0.123565
0.210625
0.380698
-0.131417
0.149696
-0.46503
-0.103778
-0.395453
-0.139899
-0.0238936
0.575242
-0.151282
-0.42396
0.36514
-0.22854
-0.136601
0.095772
0.436228
-0.0258125
-0.013533
0.353708
-0.256328
0.126762
0.238378
0.470463
-0.127454
0.14667
-0.0115481
-0.135122
0.00732674
0.220589
0.256902
0.293204
0.120183
-0.413387
-0.00340823
-0.155219
0.158627
0.508611
-0.412839
-0.210952
-0.0467674
-0.00983103
-0.149869
0.1597
0.193528
-0.00116634
-0.480183
-0.0468873
0.52707
0.430569
-0.110434
-0.495233
0.560386
-0.0651532
0.0536317
-0.278697
0.46161
0.12749
0.0157199
-0.00850941
-0.00721047
-0.127505
0.0039546
0.12355
0.00332392
-0.186434
-0.0393383
0.034476
0.129385
-0.0620372
-0.0673476
0.160293
0.414949
0.156084
0.0361312
-0.0712261
-0.00927752
-0.0644461
-0.232994
0.286626
0.250842
0.0489165
0.00463882
0.000825152
-0.0816565
0.00933114
0.0723254
-0.419414
0.0596975
-0.532636
0.0162038
-0.191236
-0.053304
0.233136
0.254567
-0.160109
0.150278
0.128707
-0.360268
0.00215372
0.0183145
-0.0204682
0.408534
0.18242
0.124051
-0.366394
0.242343
-0.270805
0.347675
-0.0768698
-0.000177605
-0.0144204
-0.447149
0.222674
0.00068662
0.00805351
-0.0829153
0.093541
-0.0106257
0.0121189
0.00116985
-0.120362
0.114924
-0.534585
0.36025
-0.371349
-0.25712
0.0361029
-0.0333489
0.00635401
-0.00655017
0.00840871
0.0719068
0.126868
0.021887
-0.480875
-0.0253452
0.506221
0.0213617
-0.00701285
0.077119
0.431491
0.158841
0.219357
-0.378197
-0.00169059
0.00315816
-0.00146757
-0.137849
0.530842
0.0624957
0.468953
-0.248365
-0.104395
-0.38418
0.488575
0.578171
-0.387957
-0.190214
-0.269768
-0.1104
-0.456959
-0.102585
-0.13874
-0.218308
0.357048
0.371818
0.0558305
-0.427648
-0.00431382
-0.0261815
0.0304954
0.365737
0.178721
0.590312
-0.584312
-0.00599932
0.194026
-0.190702
-0.00108462
-0.019042
0.101504
-0.0824623
0.279541
0.243841
-0.0129139
-0.435093
-0.130655
0.032954
-0.0367702
-0.596438
0.462213
0.134225
-0.208307
0.00539174
-0.294614
0.0523589
-0.507493
-0.0889452
0.013641
0.00207892
-0.0702389
0.112849
0.016536
-0.243484
0.47662
-0.0667886
0.182197
-0.115409
0.260998
0.162205
0.175805
0.00216679
-0.177971
-0.00369661
0.00200603
0.00116552
-0.473835
-0.0284272
-0.00222848
0.017669
-0.196477
0.443453
-0.246976
-0.515132
-0.0944704
0.360004
0.138748
-0.498752
-0.211597
-0.089377
0.300974
-0.109171
0.0829022
0.0262686
-0.31039
-0.00375718
0.314147
-0.113093
0.675673
-0.467281
-0.208392
0.433342
-0.289769
0.0112199
0.081788
-0.0633277
0.0726588
-0.211261
-0.0529233
0.264184
-0.448349
0.334335
0.114015
0.0128741
0.440315
-0.100022
0.0114664
-0.113524
0.102058
-0.363774
0.255227
-0.00150718
-0.00712814
0.076138
-0.406472
-0.126237
0.532709
0.492392
-0.100022
0.436626
-0.00532087
0.00568726
-0.122676
0.480542
-0.357867
-0.0943147
0.500759
-0.42364
-0.310908
-0.0922316
0.403139
-0.19645
0.330106
-0.286053
0.0534674
0.232586
-0.0144911
0.00598168
0.156691
-0.158184
-0.0900435
-0.00104454
0.00315298
0.0386708
-0.030262
-0.285308
-0.227343
-0.0587105
0.0130089
-0.0143721
0.402397
0.00697692
0.064802
-0.291295
0.234824
0.056471
-0.0969292
-0.35142
0.111851
-0.107672
-0.298957
-0.000935872
-0.00106471
0.00200058
0.0337607
-0.0357204
0.334173
-0.340239
-0.380713
0.486679
-0.0691038
0.0582605
0.0152735
-0.0131198
0.0156369
0.00572476
0.0415514
-0.0478374
0.00628593
-0.224807
-0.286977
0.511783
-0.361681
0.548067
-0.186386
0.39129
0.109852
-0.501142
-0.0379739
0.0348872
0.00308668
0.423032
0.0348181
-0.45785
-0.51414
0.135416
0.378724
0.602011
-0.346498
-0.124387
0.318112
-0.503081
0.141401
0.0066006
0.113542
-0.0804588
0.0728793
0.00757949
-0.43746
0.364783
0.072677
0.292495
0.298826
-0.355159
0.0563335
-0.00120573
0.364367
0.271405
0.0561684
0.00371558
-0.059884
0.0370712
-0.04308
0.00600886
0.572728
-0.140192
-0.255414
0.395606
0.118223
-0.599099
0.000681264
0.0356411
-0.00353278
-0.0321083
-0.335248
0.258343
0.133011
-0.394608
-0.582214
0.214899
0.367315
0.221942
0.113923
-0.335865
-0.151883
-0.0408766
0.00456429
0.212424
0.276072
-0.500879
0.000211782
-0.00180571
0.185915
-0.609289
0.337883
-0.170332
0.124518
-0.0213674
-0.103151
-0.00316572
-0.00385238
0.00701811
0.385618
0.106774
-0.167879
-0.00967358
0.177552
-0.0128745
0.0862419
-0.180626
-0.329854
0.24335
0.0865038
-0.432911
0.0696824
-0.0336648
-0.0938397
0.445033
-0.0732147
0.13655
0.0148411
-0.0429373
0.573056
-0.30142
-0.539924