/*--------------------------------*- C++ -*----------------------------------*\
| =========                 |                                                 |
| \\      /  F ield         | OpenFOAM: The Open Source CFD Toolbox           |
|  \\    /   O peration     | Version:  v2012                                 |
|   \\  /    A nd           | Website:  www.openfoam.com                      |
|    \\/     M anipulation  |                                                 |
\*---------------------------------------------------------------------------*/
FoamFile
{
    version     2.0;
    format      ascii;
    class       surfaceScalarField;
    location    "100";
    object      phi_0;
}
// * * * * * * * * * * * * * * * * * * * * * * * * * * * * * * * * * * * * * //

dimensions      [0 3 -1 0 0 0 0];
oriented        oriented;


internalField   nonuniform List<scalar> 
21967
(
0.0609286
-0.462921
0.401993
0.651602
-0.247731
-0.403871
0.0731051
-0.0776593
0.00455416
-0.396457
-0.140422
0.536878
0.326716
-0.204938
-0.121777
-0.132268
0.424102
-0.291835
0.000126392
-0.00486263
0.00473624
0.252514
-0.0658733
-0.18664
0.135533
-0.568251
0.432718
-0.387756
-0.192752
0.580508
0.0725806
0.489743
-0.562324
0.00605403
-0.00685473
0.000800697
-0.387096
-0.188537
0.575633
-0.31071
0.0102863
0.300423
-0.0282362
0.0160582
0.0121781
-0.506707
0.226627
0.28008
0.000214526
-0.000270163
5.56377e-05
-0.0565982
-0.254111
-0.245651
-0.261056
0.558875
-0.497946
0.666074
-0.352367
-0.313708
0.139285
0.187431
-0.452384
0.389873
0.0625105
0.28954
-0.429719
0.140179
0.30321
-0.435699
0.132488
0.000914627
0.00486589
-0.00578052
0.00362067
-0.00349427
0.569853
-0.0821479
-0.487705
-0.0163463
-0.01189
-0.0250565
-1.70102e-06
0.0250582
0.091551
-0.0965262
0.00497525
-0.000102967
0.000317492
0.204218
0.107434
-0.311652
0.24829
0.0042239
0.0584705
-0.0029473
-0.0555232
0.173162
-0.565747
0.392585
-0.453945
0.593948
-0.140002
0.426648
-0.137107
-0.0271622
-0.0777783
0.10494
-0.421793
-0.123951
0.545743
-0.00568875
0.119281
-0.113592
0.114911
-0.142074
0.021353
-0.180602
0.159249
-0.186731
-0.171584
0.358315
-0.207475
-0.0148309
0.222306
-0.0390899
-0.00516577
0.0442556
-0.0101185
-0.102276
0.112395
0.137589
-0.534045
0.205487
-0.195335
-0.010152
0.255512
0.410562
0.609751
-0.319926
-0.289825
-0.589387
0.601258
-0.0118717
0.704835
-0.471068
-0.233767
-0.438696
-0.0136883
-0.0673875
0.271605
0.11206
0.457793
-0.00325412
0.00416875
0.0003959
-0.000666063
0.283279
-0.243058
-0.0402213
0.239801
-0.626897
0.000280039
-0.000383006
-0.0119922
0.0704627
0.132201
-0.560894
0.428693
0.379966
0.271636
-0.216907
0.38709
-0.170183
0.000342308
0.00571173
-0.486093
0.386522
0.0995717
0.0795803
0.389292
-0.468872
0.301861
-0.689617
0.112912
-0.362191
0.249279
-0.363303
0.113977
0.249326
-0.377581
0.457161
-0.258625
0.348273
-0.0896482
-0.176873
-0.0214422
0.198315
-0.0596406
-0.0249798
0.0846205
0.313898
0.295853
-0.150331
0.420305
-0.269975
-0.228346
0.215606
0.0127392
-0.160997
0.606996
-0.445999
0.150645
-0.317513
0.166869
-0.210619
0.361263
0.596917
-0.104539
-0.492379
-0.0136495
-0.16419
0.177839
0.0148272
-0.000203641
-0.0146235
0.658143
-0.658143
0.326186
-0.449461
0.123275
-0.0040655
0.515224
-0.511158
0.176744
0.360984
-0.537728
-0.320661
0.227946
0.0927154
-0.195107
-0.125554
-0.0244745
0.138432
-0.113958
-0.351414
0.528159
0.122607
-0.544399
-0.361995
0.5332
-0.171205
-0.60499
0.312884
0.292106
0.0305837
-0.0149533
-0.0156304
-0.480896
0.616347
-0.135451
-0.197188
-0.378566
0.1349
0.243666
0.0645999
0.532317
-0.0477404
0.00865056
0.122433
-0.0194854
-0.102947
-0.0215383
0.133274
-0.111736
0.0531699
-0.270077
0.138669
-0.159413
0.0207439
0.421505
-0.118295
0.484931
-0.149543
-0.335387
-0.549435
-0.0289991
0.578434
-0.333439
-0.0451271
-0.00273798
0.00262188
0.000116102
-0.46508
-0.0843544
0.366234
0.118697
0.00201301
-0.0021483
-0.0445962
-0.183111
0.227707
0.261349
-0.307061
0.045712
-0.0717891
0.0737243
-0.00193523
-0.0137592
-0.105801
0.11956
-0.170863
0.192216
-0.492556
0.201318
0.291238
0.431788
-0.578594
0.146807
-0.0746549
0.0150143
0.152831
-0.0141617
-0.472136
0.110142
0.14222
-0.155869
-0.265929
0.125959
-0.170555
-0.477903
0.473837
-0.710615
0.37697
0.333645
0.0779004
-0.143774
0.000296609
-0.0253531
-0.565757
0.420575
0.145182
0.00852103
0.0220626
0.561467
-0.425934
0.148893
-0.0728633
-0.0760299
0.212451
0.492384
-0.163644
0.0157983
0.147846
-0.049713
-0.0673954
0.117108
0.0420379
-0.389755
0.347717
-0.0015498
0.133287
-0.17715
0.0438623
-0.536565
0.0826198
-0.158235
-0.416964
0.5752
0.387059
-0.345022
-0.337229
0.150498
-0.101957
0.124802
-0.0228448
0.362261
-0.563441
0.201179
0.120476
-0.134235
-0.148732
0.0709532
0.0114717
-0.0141609
0.00268929
-0.506002
0.40219
0.103812
-0.460557
-0.0255365
-0.415087
-0.15067
0.0706113
-0.0921496
-0.124639
0.0226817
0.157791
-0.620712
0.40622
0.156689
-0.562909
-0.337
0.404016
-0.0670155
0.325109
-0.293064
-0.0320453
-0.457821
0.391614
0.0662075
0.0139355
-0.0024638
0.616002
-0.258328
-0.357674
-0.593732
0.430714
0.163017
-0.332449
-0.378166
0.403231
0.243044
-0.306522
0.0634774
-0.00867768
0.00736084
0.00131684
-0.468289
-0.169834
0.638123
-0.314645
-0.290345
0.366879
-0.57233
0.205451
0.115077
0.210032
0.306111
0.309891
-0.254836
-0.00378836
0.0102488
0.0488273
-0.0590762
-0.109051
0.471312
0.213905
-0.237046
0.0231412
0.0119323
-0.00220745
-0.00972489
-0.141509
-0.00743249
0.148941
-0.00355837
0.00390068
0.0761809
-0.0659321
0.562506
-0.195627
0.662881
-0.315335
-0.347547
-0.00194764
0.207434
-0.337779
0.438084
-0.100306
0.215961
0.067318
-0.212127
0.593731
-0.381604
0.00337986
0.0710444
-0.0744242
-0.112377
-0.0512673
0.00987574
-0.00905979
-0.000815954
0.0332233
0.11567
-0.546048
0.0777596
0.59523
-0.319909
-0.275322
0.0611789
-0.000445896
-0.060733
-4.63936e-05
-0.00418597
0.00423236
0.295967
-0.344131
0.0481639
-0.0653296
0.063507
0.0018226
-0.145888
-0.06705
0.212938
0.0855766
-0.0977338
0.0121572
0.00926112
0.000614628
-0.425167
0.0873883
0.0529023
-0.042919
-0.0099833
-0.0885888
0.430078
-0.34149
0.428324
-0.582065
0.153742
-0.144469
-0.449262
0.00951465
0.0694223
-0.0789369
-0.353265
0.220998
-0.151425
0.148755
0.00266984
0.086167
0.00538395
0.415593
-0.323273
-0.0923209
0.0157619
-0.192635
-0.562347
0.468072
0.0942753
-0.513401
0.509184
0.00421783
-0.0615364
0.0649162
0.138733
-0.555698
-0.536148
0.395726
-0.00356014
0.0455897
-0.0420295
-0.51682
-0.0405715
0.557391
0.449524
0.0292221
-0.478746
0.325747
-0.499147
0.1734
0.0624106
-0.112124
-0.0124454
0.428039
-0.368217
0.0897722
0.278445
0.175411
-0.0750186
-0.100392
0.624198
-0.45521
-0.168988
0.437154
0.125352
0.00484667
-0.018028
0.0131813
-0.13597
-0.0154548
-5.88651e-06
0.0119382
-0.53276
0.0159402
-0.179531
0.56316
-0.383628
-0.143035
-0.0145431
0.157578
-0.183474
-0.0448715
-0.000807672
-0.0645219
0.449121
-0.363229
-0.085892
-0.0291475
-0.169091
-0.0337346
0.202825
0.362386
-0.0361998
-0.0249915
-0.0503191
0.0753106
0.101098
-0.0155216
0.460763
-0.207362
-0.253401
0.106956
0.0374426
-0.144399
-0.00985286
0.00849085
0.00136202
-0.210659
0.209464
0.00119438
0.168018
0.0505575
-0.218576
0.0060702
-0.0014842
-0.429169
-0.144468
0.573637
-0.551267
0.15202
0.399247
-0.213887
-0.00799746
0.221884
-6.56751e-05
0.000609811
-0.000544136
-0.290933
0.214347
0.0765862
0.31158
-0.0628585
0.0727022
-0.00984372
-0.00437458
0.126807
0.191814
0.322867
-0.386368
0.0635005
-0.0221009
0.473728
-0.451627
0.368
-0.501947
0.133946
0.0161499
-0.00132273
-0.0559925
-0.00865967
0.0646522
0.000799145
0.0521031
0.00552209
0.000548117
0.428948
-0.106081
-0.12597
-0.309729
0.412387
-0.434488
0.337932
-0.543827
0.205895
0.247873
0.347357
-0.000145558
0.00632619
-0.00618064
-0.556485
0.397518
0.158967
-0.16276
0.53076
-0.000854509
-0.0145982
0.0154527
0.545935
-0.413734
0.362163
-0.492701
0.130538
0.00402102
0.141464
-0.145485
-0.116076
0.110388
-0.004452
-0.00540086
0.162609
-0.165721
0.00311283
-0.183922
-0.0172938
-0.496108
0.190923
-0.142513
-0.0484101
0.421984
0.0225383
0.152873
-0.456554
-0.0999308
-0.036226
0.0375638
-0.00133775
0.337937
0.111184
-0.00111426
0.234787
-0.233673
0.342513
0.11825
0.00813028
-0.00681342
-0.00131686
-0.228401
0.000453605
0.0032876
-0.00374121
0.558836
-0.315022
-0.243814
-0.00595164
0.00788618
-0.00193453
0.00490692
-0.00505248
0.0655117
0.125411
-0.118328
0.555482
0.0661642
-0.0781564
0.121981
0.304666
0.308983
-0.0476336
-0.0559317
0.0633194
-0.0073877
-0.315957
0.423203
-0.107246
0.0500358
-0.252615
0.202579
0.548872
-0.397275
-0.151597
0.729345
-0.457419
-0.271926
0.226218
-0.239642
0.0134243
0.300508
0.20768
0.00792583
0.343009
0.281189
0.0770219
-0.0363723
-0.0406496
0.161855
-0.492749
0.330894
-0.574975
0.446742
0.128233
-0.00127932
0.0268251
-0.0255457
-0.101289
-0.238854
0.340144
-0.0812872
0.480479
-0.399192
0.475008
-0.149261
-0.0662739
0.0609832
0.00529075
-0.362986
-0.142867
-0.000168665
-0.583322
0.54842
0.0349024
-0.311908
-0.702752
0.321699
0.381052
-0.086321
-0.706869
0.146292
0.560577
0.331295
0.39805
-0.346691
0.120108
0.226583
0.0733679
-0.0983594
-0.0735066
0.00785258
0.065654
-0.109973
-0.158669
0.575591
-0.416922
-0.235104
-0.133112
-0.0817473
0.00995817
0.0521217
-0.0658554
0.0137337
-0.187009
0.18553
0.00147942
-0.230798
-0.0590545
0.289853
-0.423479
0.462166
-0.0386871
0.104623
-0.00221573
0.00266934
0.345036
-0.508114
0.163078
0.0079432
0.00018708
0.182786
-0.0201772
-0.00218218
0.002045
0.000137186
0.0752654
-0.00422098
0.00199155
-0.00783204
0.0100328
-0.00220075
-0.0352411
0.112615
-0.0773743
0.0047968
0.000933982
-0.00573078
0.0713226
0.00240177
-0.315427
0.45416
-0.354987
0.204656
0.0282356
0.00155605
-0.0297916
0.00431476
-0.00436115
0.545835
-0.117511
-0.393476
0.268901
0.124575
0.196995
-0.218438
0.428389
0.138912
-0.567301
0.572193
-0.252634
-0.319559
-0.034735
-0.103271
0.138006
0.534887
-0.401216
-0.133671
0.759778
-0.428483
0.0215409
-0.202913
0.181372
-0.56759
0.138421
-0.00898258
-0.064524
0.444441
-0.359717
-0.0847244
-0.339105
-0.00843257
0.347538
-0.599847
0.510577
0.0892702
0.125807
-0.115915
-0.00989116
0.0446148
-0.0414911
-0.00312367
-0.00159541
-0.00058677
0.00748153
0.218736
0.104224
0.340217
-0.0237823
0.0938588
0.0412627
0.00335209
-0.0572136
-0.281892
0.326182
0.433597
-0.0133196
0.01419
-0.000870411
0.704953
-0.3025
-0.402452
-0.152127
-0.0453469
0.197474
0.55857
-0.48599
0.00692435
-0.0684607
0.00197721
-0.00231281
0.000335602
0.599526
-0.109783
-0.607977
0.259798
0.348179
-0.0241541
-0.135192
0.159346
0.354757
-0.436044
0.494987
-0.0244476
0.0208933
0.00355425
0.249097
0.0624832
0.23118
0.473773
-0.549822
-0.0388454
0.588668
0.372208
0.199986
0.477489
0.0573979
-0.00866054
0.0135072
-0.559543
0.0786474
-0.0323986
-0.00382744
0.184377
0.109032
-0.293409
-0.222003
0.0157705
0.206233
-0.145608
-0.56126
-0.106903
-0.00374686
0.00574775
-0.00200089
0.0950268
-0.127416
0.0323895
0.000326486
-0.18747
0.187144
0.24103
-0.0271255
-0.0027289
0.125671
-0.122942
0.326544
-0.261094
-0.0654501
-0.358741
0.438092
-0.0793509
0.0102759
-0.00852996
-0.00174597
0.0625268
-0.0104051
0.141309
-0.0773665
-0.0639428
-0.186459
-0.104474
0.228381
-0.0672228
-0.161158
-0.616302
0.470693
-0.41411
-0.00103142
0.415141
-0.567906
0.409237
-0.512786
0.629922
-0.117137
0.173206
-0.160932
-0.0122736
0.000214364
0.000615846
0.525814
-0.363959
0.0517716
-0.475251
-0.0499033
0.26793
-0.218027
0.495994
-0.400094
-0.0959
-0.0533419
-0.309961
0.198378
0.128166
0.0532396
-0.271495
0.175022
-0.0258281
-0.149194
-0.0522047
0.0398123
0.0123924
0.326383
-0.489194
0.162811
0.546451
-0.454113
-0.0923386
-0.136519
0.101277
0.00051814
-0.00154541
0.00102727
-0.152762
0.16735
-0.0145879
-0.159781
0.386562
-0.226781
0.418698
0.127136
-0.589618
0.432427
0.157191
-0.135349
-0.0898494
0.225199
0.0292492
-0.0338735
0.00462431
0.323354
-0.423513
0.100159
-0.0267074
-0.0254974
-0.224113
0.175614
0.0484993
0.001343
-0.00082486
0.413413
0.133039
-0.0333892
0.0338713
-0.000482105
0.00142908
-0.0988223
0.363503
-0.264681
0.0271343
0.201246
-0.524688
-0.0646987
-0.0393913
0.221085
-0.181694
-0.212606
-0.101903
0.0184256
0.0834775
-0.186058
0.512441
-0.441133
0.352544
-0.0913324
0.0823498
0.105428
0.0358818
0.221399
-0.289633
0.0682336
0.0337607
-0.0335627
-0.000198004
0.117844
-0.0228173
-0.0105542
-0.00170218
0.0122564
0.331847
-0.597388
0.265542
-0.0608826
0.0687351
0.295895
-0.543626
-0.166842
-0.328769
0.309123
0.019646
0.235105
0.0738773
0.00806855
0.502474
-0.174333
-0.328141
0.181097
-0.231
0.393982
-0.492651
0.0986691
-0.00480143
0.00175235
0.144804
-0.184195
-0.181833
0.36621
-0.0141823
-0.0014196
0.0156019
-0.302474
0.203651
-0.0987186
0.540251
-0.402662
-0.00702286
-0.00131206
0.00833492
0.00220424
0.00611299
-0.00131619
0.00748453
-0.157831
0.159747
-0.0891354
0.750212
-0.424031
-0.144225
0.149019
-0.00479356
-0.407231
0.286672
0.12056
-0.0159266
-0.0343891
0.0308289
0.103507
0.0562402
-0.0707322
0.0766149
-0.0058828
-0.195819
0.690806
0.0614949
-0.231599
-0.118333
0.349932
0.0463238
-0.00953623
-0.0367875
0.00121615
-0.0288934
-0.00449579
0.0080736
-0.00624921
-0.00182438
-0.136722
0.152065
-0.0153422
0.0333197
-0.185447
0.00496343
-0.0201387
0.0151753
0.189609
-0.552508
0.362899
0.577787
-0.383107
-0.19468
-0.411286
0.116417
0.29487
0.412423
0.165365
0.189321
0.192362
-0.192036
-0.40618
0.129298
0.276882
0.447712
0.00177523
0.35604
0.068062
0.141623
-0.449016
0.307394
-0.158967
0.0222444
0.33676
0.165715
-0.140488
0.572915
0.062942
-0.0534273
-0.158602
-0.0254916
0.0332496
-0.00775796
-0.180696
-0.137279
0.0300238
0.260351
-0.0389518
0.0134037
-0.0126513
-0.000752372
-0.00381622
0.0320465
-0.0282302
-0.341551
0.52698
-0.185429
-0.0802936
-0.249277
0.32957
0.621931
-0.374058
0.117499
-0.120228
0.0302271
-0.000977918
0.00814297
0.117664
-0.0086175
-0.00119893
0.00981643
-0.0013633
0.0133326
-0.0119693
-0.00439923
0.124875
0.0158539
-0.00780628
-0.00804758
0.00153282
0.0174491
-0.0189819
-0.107648
0.104374
0.00327377
0.652132
-0.346354
-0.305778
-0.157103
0.563323
-0.000757285
-0.203003
0.0571148
0.166391
-0.133071
-0.653776
0.353991
0.299785
0.302522
0.349611
-0.391979
0.130632
0.261347
0.154026
-0.168569
0.0113432
-0.0121977
-0.0876407
0.410994
-0.0364835
0.0338314
0.00265204
-0.515791
-0.0131317
0.528922
-0.383176
0.325962
-0.311626
-0.241516
0.553142
0.0638637
-0.370319
0.306456
-0.0150584
-0.516856
0.107119
0.409737
0.328188
-0.445697
0.117509
0.179637
0.478507
-0.511852
-0.601953
0.0021056
-0.459083
0.117532
-0.3807
-0.189776
0.570477
-0.169412
0.0921781
0.0772342
-0.31513
0.504739
-0.0349846
0.256889
0.0295202
-0.286409
0.321816
-0.418987
0.0971701
-0.00470264
-0.00150122
0.00620387
-0.240095
-0.413681
-0.000180929
0.000630426
-0.000449497
0.379606
0.141597
-0.521203
0.0599266
0.208004
-0.358566
-0.049334
0.4079
-0.140366
-0.00114248
0.373333
-0.585459
-0.0177443
0.201348
-0.183604
0.0298131
-0.00926208
-0.0205511
0.515653
-0.096955
0.0123426
-0.234346
0.0751203
-0.119507
0.0443871
0.00454895
-0.0674074
-0.0105105
-0.00239663
0.0129072
-0.21538
-0.223316
0.239796
-0.113837
-0.107598
0.00483266
0.329525
0.208897
-0.538422
-0.492579
-0.0572433
0.0414293
-0.0309268
-0.0105025
-0.509928
0.00424576
0.505682
0.00860588
-0.205389
0.00126018
0.000863318
-0.562034
0.0532047
0.508829
-0.0237505
0.50548
-0.48173
0.133746
-0.533298
0.399552
0.589099
-0.609601
0.020502
0.458257
-0.128733
0.359572
-0.425295
0.0657235
0.485888
-0.0993669
-0.0142086
-0.14349
0.157699
0.128206
0.293299
0.0161391
-0.0146063
-0.00353769
0.00393708
-0.000399391
0.00190587
-0.00214587
0.000239998
-0.0920065
-0.0774058
0.433725
-0.105537
-0.0019591
0.0301947
0.0596496
-0.0590765
-0.000573036
-0.528669
0.411062
0.117607
0.0704806
-0.301279
-0.000517623
0.00242349
0.161389
-0.179133
-0.271946
-0.234056
0.17274
-0.0394524
-0.262681
-0.274144
0.00837967
0.342907
-0.460475
0.117568
-0.0951138
0.103316
-0.00820208
0.0358107
-0.00205004
-0.135588
0.157129
0.000214971
0.567635
-0.118111
-0.127854
0.47076
-0.0106608
0.0156242
0.559662
-0.131273
-0.165413
0.16426
0.00115337
0.0175016
-0.0948681
-0.145626
0.138193
-0.00399235
0.00150599
0.00248637
0.374978
0.0155784
-0.390557
-0.238225
0.351137
0.0201509
0.0695682
-0.303385
0.233816
-0.264456
-0.239476
0.503933
0.331882
0.101092
-0.432974
-0.524275
0.0143468
0.439455
0.110098
-0.549553
0.00211769
-7.26952e-05
-0.538684
0.0228934
-0.113815
-0.567182
0.406185
0.102075
-0.112194
-0.280663
0.10032
0.180343
0.157387
-0.163793
0.00640608
-0.0210899
0.264134
0.316118
-0.192074
0.458566
-0.266492
-0.127796
-0.247794
0.37559
0.216988
-0.00930774
-0.531395
0.150695
0.392991
0.122662
0.0540877
0.349284
-0.403372
0.532
-0.409394
-0.534432
0.0778776
0.155452
-0.000118691
-0.155334
-0.0686798
0.000795619
0.000467834
-0.00126345
0.121738
-0.642145
0.249988
0.392157
0.0155679
-0.142069
-0.349445
-0.158896
-0.0217059
0.00193666
0.0172934
0.231375
-0.248668
0.133809
0.192361
-0.32617
0.269258
0.168826
-0.0413161
0.00284256
0.0384736
-0.296305
-0.161516
0.299879
-0.282586
0.0367325
-0.00736054
-0.029372
-0.0294422
0.0318765
-0.00243428
-0.0125441
0.0646903
-0.0521462
0.451689
-0.113757
0.439831
-0.559011
0.11918
0.000617536
-0.0232511
0.0226335
0.236002
-0.237116
-0.39711
0.0385438
-0.49676
0.232303
0.0119108
-0.225797
-0.0639415
0.323939
0.043426
-0.367365
-0.0631622
0.450222
-0.0850149
0.0789386
0.00607632
0.00104511
0.55084
-0.111009
0.26204
-0.106627
-0.155413
-0.139956
0.115481
0.00380742
-0.421017
0.310264
0.110753
-0.170254
-0.325709
0.495964
-0.065219
0.071783
-0.00656404
0.642573
-0.411394
-0.142174
0.35253
-0.0614011
-0.291129
0.456292
-0.543087
0.0867955
0.0196286
-0.0190111
-0.0125523
0.00204179
-0.312943
0.376807
-0.175014
-0.0124564
0.269943
-0.440198
0.32548
0.103469
0.350775
0.175039
0.00398636
0.153401
-0.00101485
-0.00172313
0.330998
0.311575
0.0260556
0.649735
-0.193443
-0.458792
-0.0872565
0.00335004
0.0370046
-0.0403546
-0.000418642
-0.000502507
0.000921148
-2.36063e-05
-0.00351408
-0.0805043
0.0301852
-0.353964
0.408052
0.00316985
0.296952
-0.484995
0.188043
0.0310293
0.231011
0.00874014
-0.000768302
-0.00797184
0.00141528
-0.00319751
-0.000360859
-0.0454311
0.120551
0.47017
-0.00691706
-0.463253
-0.0552409
-0.528081
-0.00543815
-0.110638
-0.0225307
-0.0139528
0.437103
-0.308897
0.0673436
0.210936
-0.278279
-0.371465
-0.171558
0.543023
0.176736
-0.0212842
0.06313
-0.0544417
-0.00868829
-0.00552379
-0.0553588
0.182623
-0.342404
0.444692
-0.0996555
-0.475108
-0.141193
0.350758
-0.026819
0.00021234
-0.308482
-0.102805
-0.348587
-0.144163
-0.201418
-0.370911
0.000473294
-0.00305789
0.213439
-0.537078
0.323639
0.105639
-0.44654
0.340901
-0.502377
-0.0596565
-0.0044626
-0.0549676
0.0594302
0.128888
-0.153042
-0.279394
0.278046
-0.102263
-0.426406
0.281439
-0.214095
-2.81743e-05
-0.0914373
0.325961
-0.234524
-0.00324289
0.0689542
-0.382918
0.516664
0.48604
-0.537272
0.051232
0.216133
-0.30757
-0.19276
0.151962
0.040798
-0.225092
0.285019
0.0048951
0.204569
0.0141257
-0.0165223
0.217449
-0.188219
-0.0292302
-0.117479
-0.0760109
0.00257243
0.0570771
0.234374
0.387557
-0.108221
-0.340795
0.0945532
0.347678
-0.442231
-0.00225934
0.00273263
0.00598445
-0.000196169
-0.00569388
0.00589005
0.00899263
-0.100435
0.0914425
0.521665
-0.415118
-0.106547
-0.562985
0.0878766
0.0132328
0.00291711
0.222569
-0.402101
-0.00193259
7.98289e-05
0.00185276
0.000297017
-0.00255635
0.44246
-0.336821
0.105966
0.381025
-0.486991
0.000365236
0.00739139
-0.00775662
0.254569
0.0556684
-0.310237
0.188912
0.0508846
0.371829
0.0484764
-0.00353163
0.00391893
-0.0003873
-0.284016
-0.217931
-0.00734871
0.098908
-0.0915593
0.626786
-0.249234
-0.377552
0.216545
0.383703
0.0150075
-0.0017747
-0.238798
0.00421458
0.234583
0.0756272
-0.0951126
-0.0574751
0.0590437
-0.00156863
0.0533037
-0.443059
-0.328932
0.423486
0.0365883
0.00484108
-0.228166
-0.0011065
0.229273
-0.319148
0.449513
-0.117666
0.44213
-0.11665
-0.00745197
-0.25379
0.186567
-0.0696816
0.287192
0.149911
-0.439076
0.511276
-0.0722001
0.111469
0.384525
-0.00397456
0.0069512
-0.00297664
-0.438273
-0.159115
-0.546059
0.103292
0.442766
-0.0986718
-0.0102073
0.108879
0.11235
0.494646
-0.203675
0.273243
0.494754
0.00840248
-0.503156
-0.123829
0.141331
-0.424817
-0.0907261
0.515543
0.435456
-0.121233
-0.314223
0.0280379
0.00777279
-0.116702
0.531977
-0.415274
0.0132888
-0.0072158
-0.0179294
-0.3193
0.0896057
-0.0704068
-0.0191989
-0.124342
-0.483635
0.391427
0.000186457
-0.00150042
0.0086387
-0.00713828
-0.252024
-0.0921064
0.0340194
-0.0059815
0.316158
-0.37932
-0.0327435
-0.457498
-0.110753
0.397408
-0.12815
-0.013669
-0.0526049
0.117008
0.423243
0.395687
-0.513235
0.117548
0.438413
-0.462164
-0.10346
-0.00486245
-0.0291123
0.0339747
-0.0973466
-0.336377
0.433724
0.236555
-0.380168
0.143613
0.00622021
0.195128
0.60853
-0.45184
0.0347935
-0.0314435
0.284019
0.149707
-0.00803456
-0.000643117
0.517484
-0.400476
0.240825
0.00454806
0.0252651
0.101079
-0.089588
-0.0114913
0.461487
-0.507837
0.0463495
-0.327395
0.199599
-0.056676
0.00160343
-0.00130641
-0.0339956
0.0421466
-0.00815102
0.355966
-0.511126
0.15516
-0.309199
-0.104911
0.421521
-0.342112
-0.079409
0.462269
0.105276
-0.567545
0.547191
-0.0849217
-0.105794
0.016121
-0.0163247
0.0883529
-0.05575
-0.0326029
0.354262
0.0672588
-0.00149362
0.157066
-0.155572
-0.0805196
0.407572
-0.327052
0.320143
0.115312
-0.00490125
0.00453343
0.00036782
-0.00813579
-0.110136
0.299759
-0.050662
0.238212
0.00453321
-0.540774
0.424071
0.490017
-0.134051
0.0587816
0.0308241
0.300957
-0.0463883
0.00726708
-0.0777556
0.335515
-0.0769011
-0.258614
0.27993
-0.165953
0.501336
0.102603
0.400516
0.148355
0.1502
0.197617
-0.000621375
-0.00150908
-0.0122789
0.013788
-0.567109
0.0276537
-0.452471
-0.406513
-0.144755
-0.332164
0.628058
-0.0369271
-0.169026
0.205953
0.482317
-0.244256
0.467111
0.0323231
-0.0343944
0.00207137
0.0690121
-0.00550511
-0.257738
0.204403
0.0533349
0.544813
-0.194038
0.00222097
0.0136329
0.494295
-0.197343
-0.0776565
0.291047
-0.213391
0.00105338
-0.0116076
-0.328295
-0.0789364
0.246767
-0.0619636
0.00699598
0.034395
0.00801055
0.126402
-0.134413
0.0555917
0.0327612
-0.209841
0.0713962
0.138445
0.636996
-0.442388
-0.194608
0.578243
-0.364804
-0.506979
0.392406
0.114573
0.0402573
-0.394222
0.0161258
-0.117105
-0.0513078
0.426286
0.483818
-0.386767
-0.331601
0.253028
0.0785731
0.241847
-0.0236223
-0.218225
0.108085
-0.145012
-0.113896
-0.426878
-0.00467649
-0.492314
0.208298
0.0182372
0.334293
-0.00158491
0.00664986
-0.00506495
0.0104024
0.0258066
-0.036209
-0.105389
0.162089
-0.00701345
-0.155075
-0.000429043
0.00184577
-0.00141673
-0.605276
0.178633
0.426643
-0.193017
0.327916
-0.23156
-0.261596
-0.142907
0.404503
0.0895994
0.0114799
0.00659505
0.184109
-0.0013057
-0.182803
-0.320157
0.373461
-0.628466
0.379232
-0.450566
0.316015
0.134552
0.164136
-0.496585
0.0153983
-0.417215
0.245631
-0.423056
-0.0439246
0.150881
-0.00347938
-0.000512977
0.263496
-0.4472
0.183703
0.0042465
-0.00143768
-0.00280882
0.175149
-0.137706
0.0146462
-0.0159255
0.153143
0.0653148
-0.218457
-0.516433
0.0589344
0.0593205
-0.048918
0.0521237
0.000810476
0.090915
0.277448
-0.368363
-0.32642
0.0810426
0.245377
0.0516189
0.116192
-0.167811
0.0313586
-0.0313603
0.289361
-0.0542555
0.0425444
-0.375176
0.415433
-0.502262
-0.044766
0.547028
-0.0106229
0.0800452
0.228005
-0.131134
0.415153
0.0732734
0.262242
0.00580085
-0.00825411
0.00245327
0.0930114
-0.0195804
-0.073431
0.0923628
-0.547573
-0.170688
0.174013
-0.00332512
-0.0813464
0.090339
0.0171288
-0.456205
0.343807
0.134904
-0.478712
-0.117123
0.333256
-0.154265
0.417762
-0.0236836
-0.393738
0.417422
-0.483376
-0.0842136
-0.00628362
0.417768
-0.0665893
0.0150569
-0.000931218
-0.238996
-0.129442
0.125043
-0.121432
0.202853
0.143409
-0.346262
-0.59695
0.1832
0.41375
0.409889
-0.495142
0.0852528
-0.0054273
0.219157
0.00274608
0.00150042
-0.556768
0.155291
0.401477
0.00994782
0.0784955
-0.0884433
0.0350171
-0.00269404
-0.141414
-0.0357353
0.381926
-0.491123
0.109197
-0.00858452
0.123496
0.014352
-0.0133963
0.216867
-0.165248
-0.184646
-0.0460595
0.230705
-0.24454
0.00233804
0.242202
-0.359773
0.0129122
-0.517658
0.504746
0.0378317
-0.17342
-0.00605194
0.0918797
-0.0858278
0.210641
0.390617
0.631827
-0.271325
-0.360502
-0.62812
0.200962
0.427158
0.0648487
-0.273983
0.209134
0.0308301
-0.00400501
0.483536
-0.224274
-0.259263
-0.559643
0.189761
0.369882
-0.00410865
0.165682
-0.0116559
-0.499231
0.38943
0.1098
0.452598
-0.249745
0.00236481
-0.000761383
0.0551436
-0.0517105
-0.00343305
0.340294
-0.432233
0.0919394
0.0120291
0.297093
0.329871
-0.347692
-0.000683487
0.00147911
-0.0944065
-0.468578
-0.00447524
0.229179
-0.224704
-0.242254
-0.00486586
0.24712
0.0027542
0.0388551
-0.0416093
0.384361
-0.0566988
-0.139112
0.145808
-0.00669562
-0.429695
0.0303096
-0.00235041
0.000537547
0.00181286
-0.0364006
0.0402316
-0.00383102
0.224903
-0.229378
0.237291
-0.00250417
-0.0393462
0.00294558
0.0803166
-0.0703687
0.403588
-0.307471
-0.0954448
0.402916
0.112646
0.264868
-0.377513
-0.378808
-0.17796
0.494079
-0.0105427
-0.413459
0.336347
0.0771119
-0.216714
0.626604
-0.0108437
0.0600758
-0.049232
-0.00638996
-0.143648
0.150038
0.434727
-0.542166
0.107439
0.209579
-0.422891
0.486463
-0.0635721
0.145945
0.00611988
0.635771
-0.255805
-0.510048
0.0559358
-0.41613
0.108659
0.0438461
-0.44394
-0.273214
0.364129
-0.00494365
0.138218
0.487645
0.00643408
-0.137598
0.0590331
0.160236
-0.106801
-0.00516533
0.232788
-0.424863
-0.108547
-0.256107
0.364654
0.209687
0.42214
0.0114179
0.0798138
-0.0912317
0.100273
-0.112842
0.0125691
-0.119557
-0.317768
0.481904
-0.0993168
0.00417998
0.116939
-0.121119
0.0154407
-0.0176114
0.00217063
0.384926
-0.252474
-0.132452
-0.00101293
-0.00204496
0.523381
-0.162105
-0.361277
0.0973807
-0.360314
0.262933
0.590933
-0.25257
-0.338363
0.0020673
0.000554581
0.00726927
0.116296
-0.123565
0.210624
0.380697
-0.131418
0.149695
-0.46503
-0.103778
-0.395453
-0.139899
-0.0238944
0.575241
-0.151283
-0.423958
0.36514
-0.228539
-0.136601
0.0957729
0.436228
-0.0258128
-0.0135334
0.353709
-0.256328
0.126763
0.238377
0.470462
-0.127453
0.146673
-0.011547
-0.135126
0.00732692
0.220587
0.256902
0.293203
0.120183
-0.413387
-0.0034088
-0.155219
0.158628
0.508611
-0.412838
-0.210958
-0.0467808
-0.00983217
-0.149869
0.159701
0.193529
-0.0011669
-0.480182
-0.0468871
0.52707
0.430505
-0.110362
-0.495232
0.560388
-0.0651555
0.0536247
-0.278717
0.461609
0.12749
0.01572
-0.00850943
-0.00721054
-0.127508
0.00395506
0.123553
0.00332322
-0.186434
-0.0393388
0.0344763
0.129391
-0.0620407
-0.0673502
0.160294
0.414947
0.156083
0.0361329
-0.0712268
-0.00927746
-0.0647016
-0.233013
0.286638
0.250843
0.0489161
0.00464406
0.000825178
-0.0816572
0.00933141
0.0723258
-0.419414
0.0596971
-0.532629
0.0161969
-0.191236
-0.0533036
0.232928
0.254717
-0.16011
0.150277
0.128708
-0.360267
0.00215339
0.0183152
-0.0204685
0.408563
0.182369
0.124052
-0.366394
0.242342
-0.270806
0.347675
-0.076869
-0.000177555
-0.0144207
-0.447015
0.222742
0.000686643
0.0080535
-0.0829164
0.0935496
-0.0106331
0.012119
0.00116983
-0.120362
0.114924
-0.534577
0.360244
-0.371348
-0.257118
0.0361035
-0.0333493
0.00635405
-0.00655022
0.00840912
0.0719074
0.126869
0.0218862
-0.480877
-0.0253436
0.506221
0.0213643
-0.00701229
0.0771199
0.431491
0.158841
0.219357
-0.378198
-0.00169031
0.00315829
-0.00146798
-0.13785
0.530841
0.0624961
0.468952
-0.248364
-0.104394
-0.38418
0.488574
0.57817
-0.387957
-0.190213
-0.269768
-0.1104
-0.456959
-0.102585
-0.138824
-0.218335
0.357159
0.371817
0.05583
-0.427647
-0.0043139
-0.0261817
0.0304956
0.36597
0.178843
0.590312
-0.584314
-0.00599797
0.194026
-0.190703
-0.00108452
-0.0190527
0.10151
-0.0824571
0.27954
0.243841
-0.0129138
-0.435092
-0.130655
0.0329542
-0.0367705
-0.596437
0.462211
0.134226
-0.208304
0.005391
-0.294614
0.0523595
-0.50749
-0.0889474
0.0136411
0.00207891
-0.0702393
0.112853
0.0165381
-0.24367
0.476598
-0.0667895
0.182198
-0.115409
0.260998
0.162204
0.175801
0.00215595
-0.177957
-0.00369676
0.00200645
0.00116638
-0.473835
-0.0284272
-0.00222846
0.0176692
-0.196476
0.443452
-0.246977
-0.515131
-0.0944702
0.360003
0.138748
-0.49875
-0.211596
-0.0893777
0.300974
-0.109172
0.082903
0.0262693
-0.310399
-0.00374258
0.314141
-0.113093
0.675669
-0.467355
-0.208314
0.43312
-0.289711
0.0112203
0.0817911
-0.063328
0.0726594
-0.21126
-0.0529246
0.264185
-0.448348
0.334336
0.114012
0.0128639
0.440315
-0.100021
0.0114669
-0.113525
0.102058
-0.363774
0.255227
-0.00150662
-0.00713587
0.076148
-0.406472
-0.126238
0.53271
0.492419
-0.100014
0.435951
-0.0053187
0.00568394
-0.122683
0.480554
-0.357871
-0.0943137
0.50076
-0.42364
-0.310908
-0.0922308
0.403139
-0.196448
0.330256
-0.286057
0.0534663
0.23259
-0.0144912
0.00598172
0.156692
-0.158185
-0.0900523
-0.00104432
0.00315303
0.0386714
-0.0302623
-0.285267
-0.227346
-0.0587109
0.0130089
-0.0143722
0.402559
0.00697663
0.0648064
-0.291297
0.234828
0.0564688
-0.0969271
-0.351421
0.111853
-0.107673
-0.298956
-0.000936204
-0.00106456
0.00200077
0.0337622
-0.0357213
0.334061
-0.34046
-0.380713
0.486679
-0.0691057
0.058262
0.0152735
-0.0131201
0.015638
0.00572624
0.0415563
-0.0478408
0.00628448
-0.224805
-0.286958
0.511762
-0.361681
0.548068
-0.186387
0.391289
0.109852
-0.50114
-0.0379749
0.034889
0.00308582
0.423033
0.0348163
-0.457849
-0.514139
0.135415
0.378723
0.60201
-0.346497
-0.124387
0.318113
-0.503082
0.141401
0.00660155
0.113542
-0.0804622
0.0728828
0.00757939
-0.43746
0.364784
0.0726766
0.292681
0.298824
-0.355158
0.0563341
-0.00120274
0.364366
0.271405
0.056169
0.00371575
-0.0598847
0.0370759
-0.0430827
0.00600681
0.572728
-0.140243
-0.255458
0.3957
0.118222
-0.5991
0.000681301
0.0356416
-0.00353293
-0.0321087
-0.335244
0.258343
0.133012
-0.394608
-0.582213
0.214899
0.367314
0.221941
0.113924
-0.335864
-0.151882
-0.0408776
0.00456535
0.212423
0.276063
-0.500868
0.000211784
-0.00180654
0.185915
-0.609481
0.338156
-0.170332
0.124519
-0.0213681
-0.103151
-0.00316513
-0.00385417
0.0070193
0.385663
0.106756
-0.167877
-0.00967548
0.177553
-0.0128749
0.0862428
-0.180626
-0.329853
0.243351
0.0865016
-0.43291
0.0696817
-0.0336661
-0.0938416
0.445031
-0.0732142
0.137302
0.0148416
-0.0429371
0.573055
-0.30142
-0.539923
0.400743