/*--------------------------------*- C++ -*----------------------------------*\
| =========                 |                                                 |
| \\      /  F ield         | OpenFOAM: The Open Source CFD Toolbox           |
|  \\    /   O peration     | Version:  v2012                                 |
|   \\  /    A nd           | Website:  www.openfoam.com                      |
|    \\/     M anipulation  |                                                 |
\*---------------------------------------------------------------------------*/
FoamFile
{
    version     2.0;
    format      ascii;
    class       volVectorField;
    location    "100";
    object      U;
}
// * * * * * * * * * * * * * * * * * * * * * * * * * * * * * * * * * * * * * //

dimensions      [0 1 -1 0 0 0 0];


internalField   nonuniform List<vector> 
14804
(
(0.984216 -0.000565457 1.98061e-22)
(0.987097 0.000743196 8.53925e-22)
(0.799171 0.100844 7.88561e-23)
(0.990827 0.00258229 -1.59276e-21)
(1.11167 0.047015 -1.05646e-20)
(1.03199 0.0377595 0)
(0.102331 0.011917 0)
(1.09762 0.0645204 0)
(1.00194 0.00140608 2.94949e-22)
(0.991188 -0.00239623 3.81508e-23)
(0.999664 0.00556257 2.13334e-22)
(-0.0696647 0.0169893 2.74034e-20)
(0.965875 0.00213839 -8.56849e-22)
(0.89351 0.0506779 -1.39699e-22)
(0.346947 0.0537374 -2.22014e-20)
(1.04647 0.035776 -4.60878e-23)
(-0.0035056 0.00538884 3.3873e-23)
(0.929667 0.0507722 6.57919e-22)
(1.04758 0.0357157 0)
(0.983901 -0.000532784 -3.39929e-24)
(0.993607 0.00468752 -7.84451e-22)
(1.11016 0.0475468 3.74795e-20)
(1.01639 0.0158022 -6.52509e-22)
(1.04501 0.0388996 -1.39709e-20)
(0.865447 -0.021847 -2.73954e-23)
(0.112297 0.0118948 -2.36076e-20)
(0.0869925 0.0086378 0)
(1.0095 0.0142571 -6.46992e-21)
(0.34631 0.0557073 2.4574e-20)
(0.359282 0.0537517 0)
(0.445856 0.0659277 1.76861e-21)
(-0.00719039 0.00437433 -5.25325e-21)
(1.08517 0.0457543 -2.36744e-20)
(1.09614 0.0654917 0)
(0.785507 0.101456 -8.89786e-21)
(0.991778 0.00333905 0)
(1.00866 0.00367089 3.45366e-21)
(1.04378 0.0377162 1.36759e-20)
(1.1413 0.110897 -8.26348e-21)
(0.983572 -0.000609237 1.7109e-22)
(1.13888 0.114761 0)
(1.14489 0.109555 -4.20596e-20)
(1.07039 0.106908 0)
(1.06698 0.0267008 0)
(0.758551 0.0418068 0)
(0.279789 0.053388 0)
(1.12981 0.114082 0)
(0.990958 0.0024538 7.97422e-22)
(1.06211 0.0919622 1.20977e-20)
(0.993394 0.00453119 6.49133e-22)
(1.01916 0.018199 3.27116e-22)
(0.988319 0.000371045 1.66735e-21)
(0.996371 0.000903662 -4.03832e-22)
(1.0155 0.0160887 0)
(1.08525 0.0469942 5.3285e-20)
(1.00899 0.0138325 5.78676e-21)
(0.0983983 0.00902359 0)
(0.00788724 0.0082523 -8.1192e-21)
(0.667525 0.0025714 4.37641e-21)
(0.95825 0.00912055 6.45048e-22)
(0.00116057 0.00622179 0)
(0.810127 0.104426 2.06389e-20)
(0.983997 -0.000625952 -2.79167e-22)
(0.98678 0.000699077 -7.62788e-22)
(1.07807 0.0306449 1.76139e-20)
(-0.0642945 0.0132284 -3.16626e-20)
(0.886451 0.0449742 -8.27962e-22)
(1.00769 0.0093546 1.79347e-22)
(0.991635 -0.0023539 -2.20911e-23)
(1.03774 0.0397597 -4.84194e-21)
(1.05701 0.0466172 -1.00269e-20)
(1.00681 0.00903002 1.43119e-22)
(1.08192 0.026939 -1.05357e-20)
(1.09865 0.0800907 -1.61572e-20)
(0.806407 0.104484 4.22721e-21)
(1.01853 0.0180408 5.27686e-21)
(1.04138 0.0210751 0)
(1.06925 0.0898355 3.31821e-21)
(0.984198 -0.000963524 0)
(1.02537 0.0506557 1.06729e-22)
(1.02523 0.0495906 0)
(0.997849 1.23535e-06 -1.63612e-22)
(1.11493 0.0761335 2.79778e-20)
(0.260968 0.0316206 0)
(0.991336 9.2164e-05 0)
(1.03713 0.023305 2.77452e-21)
(0.983514 8.90574e-05 0)
(0.995938 0.00518376 0)
(1.08318 0.0583939 -1.46319e-20)
(1.08459 0.0577702 -1.54249e-20)
(0.76468 0.0932666 1.85222e-21)
(0.995566 0.00475624 0)
(0.983427 -0.000549045 -5.61328e-23)
(1.02656 0.0123489 7.00225e-21)
(0.992759 -0.0024332 -9.24177e-23)
(0.310968 0.0466856 1.69221e-20)
(0.98707 0.000334483 3.25361e-22)
(0.79614 0.0431426 1.79187e-22)
(1.04228 0.0446642 6.23721e-21)
(0.997664 -0.00161093 0)
(0.250181 0.0498125 0)
(0.776417 0.104545 -1.99289e-22)
(1.12042 0.110909 -3.95181e-20)
(1.08009 0.031154 -2.30227e-20)
(1.1188 0.100666 2.11738e-21)
(0.835596 -0.0404149 4.89926e-22)
(1.02385 0.0313055 2.43604e-21)
(0.985842 0.000242697 -1.4009e-22)
(1.04349 0.0453029 -1.32217e-20)
(-0.000763525 -0.0495162 -2.90163e-21)
(0.985657 0.000344869 0)
(1.02337 0.0311099 -4.27545e-21)
(-0.0211875 0.00833823 -1.8679e-20)
(1.10237 0.0740532 2.52043e-20)
(1.06214 0.053438 -7.32076e-21)
(0.793473 0.10232 4.80623e-20)
(1.11593 0.114637 -1.93038e-20)
(1.06918 0.10942 0)
(1.04586 0.0374965 -1.00618e-20)
(0.987911 0.000340435 2.74846e-22)
(0.772248 0.100205 0)
(1.11747 0.0997921 0)
(1.02659 0.011903 -3.85219e-21)
(1.11601 0.0776281 -1.05323e-20)
(1.04686 0.0373942 1.83492e-20)
(1.10365 0.07546 -3.39887e-20)
(0.98387 0.000212897 5.44135e-22)
(0.981654 -0.000191967 0)
(1.09702 0.0635061 0)
(0.347173 0.050458 4.33349e-21)
(0.983102 0.000125037 -1.34751e-22)
(0.308507 0.0469407 -8.51798e-23)
(1.0012 0.00137654 2.73192e-22)
(0.471085 0.0576009 4.76113e-21)
(0.996121 0.000869033 5.97813e-22)
(0.756806 0.090835 1.97243e-23)
(1.15995 0.115648 3.24446e-20)
(1.00864 0.0118526 0)
(0.774123 0.0999127 0)
(0.573253 0.0267073 2.9109e-21)
(1.00908 0.00328269 0)
(1.00024 0.00107492 0)
(1.0083 0.0109611 0)
(1.06874 0.0271878 0)
(1.14546 0.113946 -2.8967e-20)
(1.00707 0.0126353 -2.543e-22)
(1.10787 0.11323 1.67993e-20)
(1.14225 0.1122 -2.87849e-20)
(0.224694 0.028106 0)
(1.02209 0.0299216 3.01118e-21)
(0.890331 0.0760555 6.98729e-22)
(0.983223 0.000160786 1.16959e-22)
(1.11709 0.111343 0)
(1.14865 0.115096 3.42329e-20)
(0.984395 -0.00054725 -2.94265e-22)
(0.983449 0.000240346 4.44572e-23)
(0.790819 0.0226491 1.6262e-22)
(1.07451 0.0361443 1.95282e-20)
(1.03267 0.0244108 0)
(0.235755 0.0310131 0)
(1.01548 0.0158676 5.58881e-21)
(0.991821 -5.59423e-05 7.10012e-22)
(0.981978 -0.000215603 -1.40544e-22)
(1.00105 0.00109058 -5.1935e-22)
(1.07267 0.0531394 -3.62295e-20)
(0.0608882 0.0329052 -9.01967e-22)
(0.98221 -0.000120784 -1.5521e-23)
(0.992741 -0.00227674 -8.34956e-23)
(1.00134 0.027915 -6.8663e-22)
(1.07309 0.0363224 -3.24337e-20)
(1.015 0.0157151 -6.51907e-22)
(1.08176 0.025646 6.72825e-21)
(0.661028 0.0926811 1.52168e-20)
(1.00724 0.0125892 6.61558e-22)
(1.02423 0.0859196 0)
(0.198266 0.0310592 -3.1523e-20)
(1.07786 0.11604 -1.45041e-20)
(-0.0481704 0.011626 -3.41606e-20)
(0.70781 0.0973587 1.30504e-20)
(0.994223 0.0304639 2.32694e-23)
(0.995784 0.00103321 -4.35347e-22)
(1.06052 0.0904491 -1.0432e-20)
(1.0323 0.0180135 -2.04993e-23)
(0.692868 -0.0058746 -1.75953e-22)
(0.992613 0.000724853 5.48063e-22)
(0.77922 0.100651 -2.22931e-20)
(0.785162 0.0932778 -2.70941e-21)
(0.16424 0.0295478 -4.0736e-21)
(0.458053 0.051517 -2.38145e-21)
(0.983216 -0.000162863 -5.05212e-24)
(1.00498 0.0126414 1.75241e-21)
(0.753034 0.101427 -9.46778e-21)
(-0.0279333 0.0448002 2.03445e-20)
(0.721937 0.102293 1.81714e-22)
(0.457811 0.0745684 -2.46654e-21)
(0.677603 0.0335692 -1.84402e-21)
(0.611391 0.0896749 -6.76964e-22)
(0.158086 0.0278455 4.63753e-21)
(1.03243 0.0174479 0)
(0.464455 0.0765884 -2.00478e-20)
(1.02654 0.0186191 0)
(1.00253 0.0108271 0)
(0.992082 8.23537e-05 1.78918e-22)
(0.888069 0.110079 0)
(1.03235 0.0387022 0)
(1.10196 0.101567 -9.45262e-21)
(0.411984 0.0620833 -1.11027e-21)
(0.914397 0.0279257 -1.93438e-21)
(1.10045 0.080926 0)
(1.02493 0.0125928 0)
(0.983865 -9.2933e-07 0)
(0.72536 0.0966031 1.17322e-20)
(0.999581 0.00130655 0)
(0.991094 0.00287738 7.30704e-22)
(0.472965 0.0755535 8.11259e-21)
(1.02642 0.0019247 0)
(0.900187 0.0393504 -2.51114e-22)
(1.03476 0.00393987 1.21382e-20)
(1.15206 0.114546 -3.4297e-20)
(0.882934 0.0201454 6.54616e-22)
(1.04031 0.0651437 7.54999e-21)
(0.556249 0.0190554 5.95278e-21)
(1.00313 0.00152311 5.50294e-21)
(0.991358 0.0212819 6.56863e-22)
(0.253328 0.0567318 3.22931e-20)
(1.10318 0.10083 -1.19392e-20)
(0.192304 0.0295562 3.06179e-20)
(1.02694 0.00211371 4.89839e-24)
(0.922206 0.112705 -1.27448e-21)
(1.05917 0.114113 0)
(1.07102 0.0910043 0)
(0.434143 0.0733605 -5.70811e-21)
(1.02933 0.0193448 1.40851e-20)
(1.02587 0.0128386 1.70592e-21)
(0.64336 0.0302612 1.36053e-21)
(1.03615 0.0229165 -8.75955e-22)
(0.853178 0.107679 0)
(0.64791 0.0921151 -6.55168e-21)
(1.04722 0.0188988 0)
(0.514056 -0.000535908 -3.01611e-22)
(0.0959445 0.015543 1.94302e-20)
(1.0594 0.0868596 -2.59918e-21)
(0.765372 0.0497159 0)
(0.0908124 0.029678 -5.30931e-21)
(0.999438 0.00100069 9.86934e-21)
(0.988045 0.000866309 6.59499e-22)
(1.05479 0.0787151 7.66289e-21)
(-0.00302331 0.00737778 6.41756e-20)
(1.09545 0.0593906 -2.07417e-20)
(1.09463 0.0248331 1.37919e-20)
(0.781147 0.102496 -1.57641e-23)
(0.804269 0.106539 -1.36878e-20)
(0.995598 0.000941123 0)
(1.01451 0.0212938 3.49643e-22)
(0.989742 0.000511985 -2.50908e-21)
(1.0332 -0.015706 4.23751e-22)
(0.254837 0.0297484 0)
(0.760678 0.102544 1.75627e-22)
(0.478278 0.0780575 7.85133e-21)
(0.0830922 0.027806 0)
(1.01451 0.0211996 0)
(0.853329 -0.00749354 5.1521e-23)
(0.990966 0.000853735 1.27925e-21)
(1.0074 -0.0040095 -2.81499e-22)
(1.00463 0.0123503 -2.39052e-21)
(0.141693 0.0128921 1.35193e-20)
(1.02158 0.00716489 4.52459e-23)
(1.03303 -0.0129665 -4.00752e-22)
(0.261727 0.0289385 0)
(0.983755 -0.000601681 5.29076e-24)
(1.02754 0.0113336 2.42101e-20)
(1.07497 0.113244 5.72695e-21)
(1.13084 0.112544 0)
(0.103669 0.0160373 -2.36368e-20)
(1.13177 0.0848788 0)
(0.680322 0.0319244 -2.59489e-21)
(0.983232 4.19382e-05 -5.03962e-22)
(1.0942 0.0935969 0)
(0.98372 -0.000635953 1.23036e-22)
(0.547184 0.0128132 -5.37844e-21)
(1.02225 0.00731299 -3.48121e-21)
(0.479929 0.0751314 0)
(1.02842 0.0190935 -1.30433e-20)
(1.05738 0.075027 0)
(1.04657 0.0195311 -1.53759e-20)
(0.127515 0.0295911 -4.55345e-20)
(1.04608 0.0388136 1.59512e-20)
(0.0740419 0.0116226 2.98284e-20)
(1.01677 0.0168817 -6.54441e-21)
(0.134612 0.0300845 -3.7733e-20)
(0.126807 0.00979481 -2.97312e-20)
(1.0928 0.0939564 1.88099e-20)
(0.983238 0.0190563 8.24319e-22)
(0.867412 0.109876 -4.18368e-20)
(1.04276 0.037859 1.93165e-20)
(1.06141 0.0543495 6.81665e-21)
(0.756095 0.102607 1.9461e-20)
(1.04264 0.00492757 3.65023e-21)
(1.1071 0.0453653 1.07333e-20)
(0.981772 3.5892e-05 -1.3283e-23)
(1.0009 0.000950656 0)
(1.04383 0.0719934 -1.15158e-21)
(1.01615 0.016754 -1.02487e-20)
(1.06757 0.0904541 1.05721e-20)
(1.00265 0.00151459 -3.15856e-21)
(0.28752 0.0211007 8.05248e-23)
(0.885137 -0.0725537 -2.43173e-22)
(1.024 0.0130795 1.28397e-20)
(0.248233 0.068147 0)
(1.02619 0.0485359 -2.079e-22)
(0.986123 0.000376648 -1.49136e-21)
(1.03516 0.00427788 -1.86135e-20)
(0.67779 0.0940583 1.66793e-20)
(0.991484 0.00301709 8.32323e-22)
(1.04472 0.114637 2.77694e-21)
(0.985323 -0.00021352 1.53164e-22)
(1.02625 0.0495206 -5.39013e-22)
(0.981648 -0.000189575 -2.91412e-23)
(1.14527 0.112131 -3.78596e-21)
(0.982625 -0.000236609 -2.01964e-23)
(1.00078 0.00114293 0)
(1.05026 0.0326802 -1.01954e-20)
(0.907292 0.110242 0)
(0.344395 0.0491594 0)
(1.02757 0.0118974 -1.24651e-20)
(0.992082 0.0038311 -2.6793e-22)
(1.04123 0.0663812 -1.29801e-20)
(0.763046 0.0994259 -2.86335e-20)
(0.721001 0.0995201 0)
(1.13775 0.0678732 -2.25708e-20)
(1.02946 0.0596449 -2.5504e-22)
(0.996675 0.00588292 0)
(1.04211 0.00431857 0)
(0.0594773 0.00830438 0)
(1.00579 0.0103193 0)
(0.120078 0.0277458 4.81238e-20)
(1.13099 0.0859658 -3.57358e-21)
(0.0382617 0.00665041 0)
(0.806059 0.102126 4.65198e-20)
(0.123012 0.0271271 3.39506e-20)
(0.171187 0.0301171 -8.11003e-21)
(1.0968 0.112311 7.91602e-21)
(0.0501479 0.0274264 4.66401e-20)
(0.765078 0.0990577 -4.24658e-20)
(0.998873 0.00122094 6.45563e-22)
(1.04093 0.0204073 0)
(0.316781 0.0624874 -4.89464e-21)
(-0.0217504 0.0462755 0)
(1.00274 0.0108739 3.99971e-22)
(1.04195 0.0391527 -1.29996e-20)
(1.0982 0.0780888 2.74333e-20)
(0.986839 -0.000177629 0)
(0.990954 0.00355256 0)
(0.591674 0.066131 5.85725e-22)
(0.99927 0.00872289 2.27238e-21)
(0.999503 0.00111233 -7.00173e-22)
(0.975574 0.0962229 8.96931e-24)
(0.998352 0.000779756 -6.74813e-21)
(0.361587 0.0539249 0)
(1.04198 0.00807459 0)
(1.02961 0.0546861 1.95042e-21)
(0.983662 0.000233815 3.65858e-22)
(0.908487 0.111551 0)
(0.541903 0.0787523 0)
(0.0443973 0.00850397 -2.39994e-22)
(1.04249 0.0717638 -2.37775e-21)
(1.04123 0.00842712 6.58374e-21)
(0.351384 0.00593246 2.71682e-21)
(0.525605 0.0765037 0)
(1.03001 0.0550163 -2.60089e-21)
(0.999369 0.00124407 -2.26784e-22)
(0.240721 0.0308199 1.64797e-20)
(0.996736 0.00110196 0)
(0.605431 0.0123801 4.53772e-21)
(0.999618 0.00332151 -1.54684e-22)
(0.697937 0.0935661 -3.89752e-20)
(-0.00800708 -0.0405536 1.40039e-21)
(0.997514 0.00441776 -3.7597e-22)
(1.01732 0.00378691 4.18972e-23)
(1.08414 0.100147 3.31597e-20)
(0.986647 0.000492454 0)
(0.996955 0.00107688 -6.38253e-23)
(0.280529 0.0451733 -3.25629e-20)
(1.09283 0.0256753 -4.23364e-20)
(0.996493 0.00108437 4.01043e-22)
(0.981565 -7.54529e-05 1.52558e-23)
(0.990726 0.00342423 0)
(0.998956 0.00849408 -1.12258e-21)
(0.227805 0.0530419 0)
(0.986883 0.000145119 7.08027e-22)
(0.495983 0.076359 -4.41271e-21)
(1.03184 0.0541843 0)
(1.1118 0.0516065 0)
(0.982364 -0.000103666 -7.43343e-23)
(1.02481 0.013284 0)
(0.0976919 0.0302782 0)
(1.13723 0.115774 -6.96248e-21)
(1.11897 0.0627798 -1.75379e-20)
(1.0307 0.0835817 -5.18303e-23)
(1.14229 0.0954335 -6.298e-21)
(1.08461 0.0521318 0)
(1.02154 0.0294057 0)
(0.159192 0.0300416 8.42092e-21)
(0.753379 0.103039 -5.84908e-22)
(1.11153 0.112843 0)
(1.09681 0.0584469 1.97726e-20)
(1.05521 0.0992598 0)
(0.982316 -4.55786e-06 -7.56007e-23)
(1.02188 0.0315711 0)
(0.992626 0.00402479 -4.81791e-22)
(0.998059 0.00174993 0)
(1.13509 0.083808 5.75274e-20)
(-0.0102531 0.00503504 -7.47109e-20)
(0.230428 0.0287854 -1.92699e-21)
(0.897893 -0.0665033 -7.40972e-23)
(0.996471 0.00590418 -8.57845e-23)
(0.961434 0.0554346 0)
(1.02296 0.0151233 1.74651e-20)
(1.05853 0.0470328 -1.18027e-20)
(1.08368 0.0530487 -2.60144e-22)
(0.296563 0.0196576 1.79289e-21)
(1.04299 0.039123 -1.39388e-20)
(1.07619 0.107302 0)
(0.365772 0.0743089 4.33731e-21)
(1.00744 0.0121344 0)
(1.03095 0.00231945 8.91784e-21)
(1.0986 0.111127 -6.56317e-21)
(0.000579636 -0.0224487 -5.17604e-20)
(1.12693 0.0863203 0)
(1.05273 0.0355377 -1.40126e-22)
(1.00229 0.0105211 -1.89801e-21)
(0.988123 0.00026941 0)
(0.603604 -0.0136886 0)
(0.377016 0.0549481 1.57714e-20)
(1.02456 0.0287112 -4.73431e-21)
(0.375338 0.075902 -1.76147e-20)
(1.09175 0.0965288 2.77267e-20)
(0.0025714 -0.0253776 4.0194e-20)
(1.03056 0.00242668 -2.43699e-20)
(0.419185 0.0761752 5.54831e-20)
(0.160943 0.0273988 0)
(1.04082 0.0233474 0)
(1.05333 0.0993265 0)
(0.988721 0.000517969 -4.62303e-22)
(1.07226 0.0752413 1.29746e-20)
(1.06087 0.0884086 0)
(0.38565 0.0383304 -6.90684e-22)
(1.00777 0.0120461 0)
(1.02711 0.0193961 0)
(0.416099 0.0608155 -1.64867e-21)
(1.1105 0.11318 -2.84302e-20)
(0.920479 0.0609191 7.40314e-23)
(0.469762 0.0765134 4.16927e-20)
(1.13329 0.114109 -6.74059e-23)
(0.208295 0.0302254 0)
(0.994939 0.00154833 1.86779e-21)
(0.306683 0.0408808 1.6922e-21)
(0.987909 0.00100151 -1.04365e-21)
(1.07156 0.111019 -4.86237e-21)
(1.04015 0.0620842 -1.03775e-20)
(1.05979 0.0537886 -1.22327e-20)
(1.14002 0.0680787 0)
(1.0105 0.0151192 8.52381e-23)
(0.884049 0.0518076 0)
(1.02856 0.0107995 -1.45476e-20)
(-0.0478281 0.020675 1.94494e-20)
(1.07308 0.0767473 0)
(1.03198 0.053398 0)
(0.273437 0.0327856 -3.13623e-21)
(1.04164 0.0240324 4.76226e-21)
(1.02853 0.0113401 1.45947e-20)
(0.99088 0.00217015 8.35285e-22)
(0.13908 0.0296087 0)
(-0.0146523 0.00574484 0)
(0.0651971 0.0341829 -2.82826e-20)
(1.1341 0.0850516 -6.80541e-20)
(0.988322 0.000342998 -4.43568e-22)
(1.11905 0.112733 0)
(0.998081 0.00115293 -4.41961e-22)
(1.11464 0.100115 0)
(1.0342 0.0363888 -4.79689e-21)
(0.287591 0.0441568 1.87713e-20)
(0.442937 0.071545 -1.88412e-20)
(1.11767 0.113121 -2.02774e-20)
(0.805945 0.102179 -2.8035e-21)
(0.995528 -0.00103653 1.41741e-22)
(0.370384 0.00101665 0)
(1.07274 0.0157654 -1.73938e-20)
(0.536012 0.0786319 -1.39428e-20)
(0.15256 0.028129 1.20045e-21)
(0.438349 0.0774964 -5.96711e-20)
(0.122098 0.0299896 -1.91461e-20)
(1.08675 0.111331 -1.73504e-20)
(0.619585 0.0296252 1.20646e-21)
(0.292414 0.0563484 0)
(0.982479 -0.000360727 -5.7255e-23)
(0.993063 0.000739368 -2.00058e-22)
(0.902557 0.100087 -1.66372e-21)
(0.992831 0.000731997 -4.06931e-22)
(1.10839 0.0468277 -4.31324e-20)
(1.11811 0.0606624 -3.27143e-20)
(1.03973 0.0380489 0)
(0.997904 0.00121841 0)
(0.0858724 0.0272888 0)
(1.03098 0.0369444 0)
(1.02373 0.0295241 -4.17142e-22)
(1.08862 0.112407 2.04872e-20)
(1.01007 0.0147186 0)
(0.988509 0.00026246 1.4539e-22)
(0.838005 0.107009 -2.21752e-20)
(1.09304 0.0958556 -1.55679e-20)
(0.447055 0.0792047 -5.17211e-20)
(0.586635 0.00994082 -1.23243e-21)
(1.04074 0.0380726 1.25944e-20)
(1.1289 0.087025 1.06865e-20)
(0.873364 0.0634699 0)
(0.227961 0.0302782 0)
(0.435797 0.0778137 1.79025e-20)
(1.0238 0.00660465 -1.96316e-20)
(1.02705 0.0476546 -1.51586e-21)
(1.00394 0.0118679 8.1778e-22)
(1.14297 0.0972015 3.28869e-20)
(0.392378 0.0579988 0)
(0.875726 0.110449 0)
(0.17722 0.0298178 3.48702e-20)
(0.223424 0.0305864 1.35408e-20)
(1.10499 0.112337 2.00877e-20)
(0.23606 0.0242982 0)
(0.313234 0.0563755 -3.00931e-20)
(1.16433 0.116885 0)
(0.984889 -0.0401934 0)
(0.983548 0.000263532 -5.33932e-23)
(0.221633 0.0285261 0)
(0.737395 0.0425596 0)
(0.654009 0.0304558 1.84091e-21)
(0.995282 0.000979138 -3.18891e-21)
(0.992359 -0.042886 -6.62012e-22)
(1.03887 0.0390212 0)
(1.06632 0.111932 9.88726e-21)
(0.246958 0.0253234 0)
(1.02433 0.0289457 0)
(0.191945 0.00369033 5.46616e-22)
(1.02799 0.000741349 4.18257e-22)
(1.03031 0.0541121 1.71513e-21)
(0.994399 -0.00197221 0)
(1.02947 0.0360937 -7.05114e-21)
(1.17133 0.115752 1.28264e-21)
(1.00702 0.00859364 3.83442e-21)
(1.01576 0.0229455 6.72782e-23)
(0.98724 7.56544e-05 2.8824e-24)
(0.986771 -2.3009e-05 0)
(0.983532 0.000187424 -3.5433e-22)
(1.02392 0.00627844 1.51363e-20)
(0.986097 0.000638475 0)
(1.12754 0.0990715 -2.11563e-20)
(0.982049 -0.000401959 0)
(0.710604 0.0432117 0)
(0.950086 0.0627447 0)
(1.02215 0.0268416 8.07671e-21)
(0.102249 0.0298924 0)
(0.995685 0.000987533 -9.72854e-22)
(0.013902 0.00809127 3.63901e-20)
(1.01004 0.0074004 -4.46438e-21)
(0.983488 0.0540292 -1.19305e-21)
(1.02567 0.0249766 0)
(1.06607 0.115721 2.83944e-21)
(0.993369 0.00076709 4.06986e-22)
(1.03918 0.098761 4.46707e-21)
(0.388788 0.057779 1.02903e-20)
(1.00248 0.010514 1.54276e-21)
(1.11389 0.0515947 -4.53221e-22)
(1.11047 0.115925 -4.69252e-20)
(0.752365 0.0994527 -4.46234e-21)
(0.237797 0.0226991 -3.30254e-20)
(1.01482 0.0174499 0)
(1.10308 0.0769838 3.34259e-20)
(0.53144 0.0608883 1.62783e-21)
(0.521644 0.0769573 0)
(1.01173 0.0185773 5.24699e-22)
(0.981839 -3.49122e-05 -3.24485e-23)
(0.427781 0.0642921 3.06296e-20)
(0.985158 -0.00050234 -2.35905e-22)
(1.1162 0.100851 0)
(0.622331 -0.01668 0)
(0.115067 0.0280113 5.38265e-21)
(0.128036 0.027554 0)
(1.01872 0.00240592 -1.55411e-20)
(1.02303 0.00158264 0)
(0.98561 0.000925837 -1.78451e-22)
(1.02019 0.00138242 0)
(1.00992 0.0210666 0)
(1.02575 0.0291342 4.33755e-21)
(0.873559 0.0207791 2.32559e-24)
(0.713022 0.0750743 -7.07698e-22)
(0.856439 -0.0501382 3.90249e-21)
(0.288753 0.0525141 -3.07151e-20)
(0.0833962 0.00703723 0)
(0.0437061 0.00582807 0)
(1.12904 0.0987586 0)
(1.01573 0.0229656 0)
(0.328606 0.0649695 0)
(0.761201 0.102795 0)
(1.00786 0.00859023 -3.88808e-21)
(1.03017 0.0606912 -2.8018e-22)
(0.0542247 0.00805942 -1.23649e-20)
(1.025 0.101375 -3.91469e-21)
(1.0227 0.0305236 4.46855e-21)
(0.550019 0.0267851 -1.82569e-21)
(1.03989 0.0391371 0)
(1.03099 0.0545926 0)
(0.420468 0.0752136 5.08214e-20)
(1.00204 0.010712 8.37373e-22)
(0.650539 0.0906422 5.97888e-21)
(0.44926 0.0747048 -3.34497e-20)
(0.902216 0.094703 -3.99259e-21)
(0.003355 0.00636454 -3.69105e-20)
(0.886542 0.0345528 -4.27351e-22)
(1.00211 0.0107828 0)
(0.268667 0.0527196 -3.06267e-20)
(0.987185 -0.000219352 0)
(1.12392 0.087264 3.12659e-20)
(1.11006 0.111833 -1.23666e-20)
(1.08404 0.115695 1.49449e-20)
(-0.053807 -0.000369406 1.4431e-20)
(1.02213 0.0304588 -3.03914e-21)
(1.0376 0.0405297 1.08566e-20)
(0.714056 0.0884891 1.39313e-21)
(1.0526 0.0475974 1.00177e-20)
(1.01582 -0.0201436 0)
(1.01628 0.0234812 -2.25074e-21)
(0.985322 -0.000455564 2.43674e-22)
(0.984236 -0.00098487 1.27939e-22)
(0.0485896 0.00756819 0)
(1.02907 0.000972116 0)
(1.01626 0.0235308 -7.06007e-23)
(0.984362 -0.00103928 1.52776e-23)
(1.12464 0.11205 2.30292e-20)
(0.687163 -0.0310344 -2.97321e-22)
(1.10273 0.0917809 4.45505e-20)
(1.07213 0.0543127 2.11268e-20)
(0.712713 0.0886347 1.8366e-22)
(0.928591 -0.0826767 -1.0574e-21)
(1.04887 0.0155833 -2.85906e-20)
(1.06599 0.0889196 -4.99857e-22)
(0.985789 0.000559942 1.87176e-22)
(1.00203 0.0101576 1.41765e-21)
(1.02701 0.0295613 3.54172e-21)
(0.983237 -0.000525058 0)
(1.02254 0.00676782 6.08303e-21)
(1.10849 0.0902714 -3.92152e-20)
(0.396218 0.0440331 0)
(-0.0126833 -0.0221455 -1.47601e-21)
(1.07457 0.0155941 2.20265e-20)
(0.994945 0.000821187 0)
(1.13361 0.11515 -7.60645e-21)
(0.609344 0.0254543 4.61957e-21)
(0.822984 0.035352 -2.21094e-21)
(1.07242 0.106421 0)
(1.12567 0.0878969 -3.70874e-21)
(1.0266 0.0617934 -7.24587e-22)
(0.788704 -0.00867207 3.19846e-21)
(1.0313 0.0180702 1.8227e-23)
(0.533463 0.0772944 1.53309e-20)
(1.03368 0.0247165 -1.68568e-23)
(1.02803 0.0615741 -3.31129e-22)
(0.467135 0.0780856 4.36564e-20)
(0.450777 0.0779951 0)
(0.753707 0.103175 2.049e-20)
(1.0083 -0.00722852 0)
(0.984443 -0.00108454 8.03967e-23)
(0.272887 0.0618452 1.09459e-20)
(1.05698 0.0766259 -6.94671e-21)
(1.02598 0.0246663 -2.12338e-21)
(1.01635 -0.0161574 0)
(1.05599 0.0803438 0)
(1.02543 0.0293604 -4.49807e-21)
(0.99922 0.0759039 0)
(1.00736 0.0097732 0)
(0.34968 0.0216027 1.53067e-22)
(0.0909196 0.0278082 0)
(0.984682 -0.00115321 -9.35082e-23)
(1.03354 0.0868408 2.6232e-21)
(0.835152 0.0974289 0)
(0.428019 0.0759367 0)
(1.02394 0.0298173 0)
(1.01893 0.0233414 1.18599e-22)
(0.53907 0.0870285 -1.30394e-20)
(0.995378 0.000964235 0)
(0.981943 -0.000182819 2.00436e-23)
(1.0425 0.0565027 0)
(0.981777 3.88073e-06 -3.24103e-23)
(0.243386 0.060675 -2.22469e-20)
(0.227254 0.0195721 2.26631e-20)
(1.02921 0.035186 0)
(1.12081 0.0629449 5.34138e-20)
(1.01947 0.0240667 1.27522e-22)
(1.01409 0.0205142 0)
(0.911916 -0.0808043 9.82678e-23)
(1.10117 0.091096 -5.75314e-20)
(-0.00377338 -0.0456575 -1.29375e-20)
(0.995209 0.000913267 2.5996e-22)
(0.73399 0.0916411 -1.0463e-21)
(0.982203 2.06885e-05 4.43081e-23)
(0.982548 -3.32397e-05 -3.67157e-24)
(0.530742 0.0815543 -2.1181e-20)
(0.0190871 0.00813934 0)
(0.091197 0.00850866 0)
(0.813249 0.104583 0)
(1.02639 0.0286413 3.43729e-21)
(0.449001 0.0761075 -4.91485e-20)
(1.00919 0.00756226 0)
(1.03174 0.0858635 0)
(0.165751 0.0242808 -1.4376e-20)
(0.166123 0.0277808 -2.95967e-20)
(-0.0368015 0.0147664 3.86732e-20)
(1.10824 0.114574 3.59925e-20)
(0.999685 0.00901912 0)
(0.983782 -0.00020463 1.48391e-22)
(1.13187 0.111571 -3.3761e-21)
(0.186152 -0.00241058 -3.94412e-22)
(0.907777 -0.0423725 0)
(1.08541 0.0405622 1.31127e-20)
(0.992934 0.00118043 0)
(1.10745 0.0910175 4.67505e-20)
(0.445624 0.0799901 1.70674e-20)
(0.288296 0.0374365 -2.41373e-22)
(1.05222 0.0344711 3.23549e-20)
(1.00604 0.0101631 8.40545e-23)
(0.982556 2.49293e-05 3.57746e-23)
(0.999965 0.0728772 5.42366e-24)
(-0.0159911 0.00519381 3.93989e-20)
(0.915196 0.118037 0)
(0.875131 -0.0458623 -1.27633e-22)
(1.00589 0.0321406 -1.4663e-22)
(-0.035237 0.0396497 -1.45862e-20)
(1.02549 0.00433734 6.56338e-21)
(1.0174 0.0231549 1.9082e-21)
(1.01949 0.00267776 1.06738e-20)
(0.461684 0.0810191 0)
(1.08415 0.0986065 3.07107e-20)
(1.02369 0.0299651 0)
(0.800816 -0.000748665 -1.25783e-21)
(1.00846 0.0088989 1.36211e-20)
(1.08396 0.0392082 3.84203e-20)
(0.0410512 0.00610469 0)
(1.03396 0.0517807 1.76067e-21)
(-0.0497953 0.0196409 8.02234e-21)
(0.999252 0.00871537 0)
(0.985453 0.000781746 -5.22897e-22)
(0.982724 -0.000623965 -3.4252e-23)
(1.03386 0.052771 0)
(1.06973 0.0976941 9.25732e-21)
(1.01479 0.0546899 -5.7752e-22)
(1.0576 0.0871436 0)
(0.252126 0.0263535 -2.75883e-20)
(1.08132 0.0826809 -1.01398e-20)
(0.643414 0.0702504 8.13603e-22)
(1.02669 0.0298436 5.02456e-21)
(0.734158 0.100029 0)
(1.00359 0.0115791 -1.66892e-21)
(1.02309 0.0297629 0)
(1.04069 0.00959452 -7.2362e-21)
(-0.0308742 0.0394771 9.54956e-23)
(0.617247 0.0893417 -6.61944e-21)
(0.151122 0.010952 1.37505e-20)
(0.945603 0.111591 -1.71243e-20)
(0.992841 0.0010536 3.94897e-21)
(0.98235 -3.1253e-05 1.6229e-22)
(0.257574 0.0294001 -2.80995e-20)
(0.913849 0.129455 0)
(-0.0190065 -0.0287587 1.80851e-20)
(-0.0313672 0.0330518 0)
(1.01697 0.0224128 -5.72877e-21)
(1.03035 0.00952914 2.22071e-20)
(0.0496687 0.0587956 1.3266e-20)
(1.02242 0.0369212 -7.86853e-22)
(1.10144 0.0778454 6.67017e-21)
(1.04063 0.0216268 0)
(0.0803243 0.002018 3.65815e-20)
(1.0235 -0.028411 -4.56047e-24)
(0.92677 0.108815 1.18739e-20)
(0.993196 0.000338118 0)
(1.02538 0.00025461 7.87975e-21)
(0.267876 0.0323753 2.04028e-20)
(1.053 0.0723365 6.31399e-21)
(0.707676 0.099171 -9.69206e-21)
(0.543239 0.0856123 -4.65161e-22)
(1.01003 0.0131918 6.48195e-22)
(1.03968 0.009157 7.26364e-21)
(0.438028 0.0655142 -1.3972e-20)
(1.02931 0.079571 5.32977e-23)
(1.02702 0.048623 1.82442e-21)
(0.993824 0.00109976 -9.35039e-22)
(1.0141 0.0203903 5.33242e-23)
(1.02325 0.00697761 -3.65101e-21)
(1.05571 0.097046 0)
(0.512597 0.0852765 -7.04755e-21)
(0.929994 -0.0430737 -9.57965e-22)
(1.03418 0.00837139 -2.58631e-21)
(1.02207 0.0148568 -1.36882e-20)
(-0.076245 0.0217891 -3.19618e-20)
(0.995313 0.00159511 1.73581e-21)
(1.02286 0.0134207 0)
(0.649263 0.0891003 3.24439e-21)
(0.984209 -0.000967086 4.801e-24)
(1.05195 0.0464765 -2.26224e-20)
(1.00662 0.0021658 0)
(1.11194 0.111185 8.36081e-21)
(1.00905 0.0147388 -1.63888e-21)
(1.0299 0.0323155 -5.47971e-22)
(0.449847 0.0738998 0)
(0.988669 0.000952319 -1.57141e-21)
(0.220788 0.0535661 0)
(1.06986 0.0265309 -1.97769e-20)
(0.835816 0.105297 -3.20532e-20)
(1.01799 0.00390437 9.86482e-21)
(1.03231 0.0248704 0)
(0.149725 0.0298718 3.79238e-20)
(0.721391 0.11323 8.02024e-22)
(0.472588 0.0773588 0)
(1.00719 0.00920013 0)
(0.90633 0.0656864 -1.13143e-21)
(1.00217 0.00175384 3.41199e-22)
(1.03123 0.0185461 -5.74045e-21)
(0.70093 0.0953744 -1.53326e-20)
(0.990555 0.00200838 6.81352e-22)
(1.03486 0.00303116 2.49059e-20)
(1.02355 0.00210942 0)
(1.03525 0.00344808 -2.31604e-20)
(0.47824 0.0772629 -2.25972e-20)
(1.01859 0.0223553 -2.4652e-21)
(1.05283 0.0328877 -1.03837e-20)
(1.04208 0.0966278 -1.41189e-21)
(0.983141 0.000164689 -7.64664e-23)
(0.490038 0.0770785 2.15337e-20)
(1.01519 0.0223441 -1.66059e-21)
(0.0545463 0.0378042 2.14928e-21)
(0.990466 0.00173986 -2.31689e-21)
(1.02843 0.0601121 -9.4713e-23)
(0.395799 0.0582771 -9.98071e-21)
(0.968025 0.111874 -1.87144e-20)
(0.884151 0.123755 -6.7645e-22)
(1.04816 0.0149477 0)
(0.522939 0.08311 3.86822e-20)
(-0.0261681 0.0304257 0)
(0.520997 0.076522 7.71204e-21)
(0.995465 0.00512647 -4.30682e-21)
(1.02175 0.0327643 0)
(1.02202 0.030758 0)
(0.997181 0.00273686 3.33846e-22)
(0.996718 0.00258095 -3.64923e-22)
(1.00757 0.00889407 0)
(0.278293 0.0355045 2.40866e-20)
(0.830415 0.10295 8.75466e-21)
(1.02152 0.0300648 2.38563e-21)
(1.11166 0.0896436 0)
(1.0305 0.0235748 -9.77674e-21)
(1.02837 0.0335284 3.32634e-22)
(-0.0644589 0.0074153 2.98994e-20)
(1.138 0.115453 0)
(1.05123 0.0322693 0)
(1.09321 0.0276287 2.19523e-20)
(0.824808 0.047662 0)
(0.778426 0.100759 -2.1161e-20)
(0.989393 0.00119109 0)
(0.99544 0.00528747 2.17823e-21)
(0.836694 0.10427 0)
(1.02252 0.0362058 6.73532e-22)
(0.540675 0.0778052 -1.42681e-20)
(0.872283 0.106441 3.90612e-20)
(1.02942 0.0481433 -2.03575e-21)
(1.05621 0.045461 0)
(0.98325 0.00010282 2.01233e-23)
(0.910849 0.0877167 1.18586e-21)
(0.981518 8.29133e-06 1.41052e-23)
(0.992484 0.00101438 -1.88717e-21)
(1.09633 0.077354 -2.56575e-20)
(0.246654 0.0311865 1.46764e-20)
(0.98143 8.42554e-06 1.80319e-23)
(1.0092 0.0145705 0)
(0.988469 0.000955848 -2.71113e-21)
(0.987991 0.00118741 2.2006e-22)
(1.09227 0.0878233 1.30783e-20)
(0.992928 0.000185451 0)
(1.03134 0.00146365 0)
(0.422272 0.0637357 -1.41751e-20)
(0.421351 0.0709112 7.03129e-21)
(1.01866 0.0624987 -1.14981e-22)
(0.914032 -0.102285 -2.75707e-22)
(0.232128 0.0240012 2.56967e-20)
(1.00902 0.00783722 0)
(1.04887 0.0564857 0)
(0.19795 0.0277994 8.35165e-21)
(1.03517 0.0369959 0)
(1.07134 0.0145588 0)
(0.436149 0.0792874 -1.25885e-20)
(0.993799 0.00126878 -5.04451e-21)
(1.10808 0.108682 3.11259e-20)
(0.827286 0.103394 -8.15153e-21)
(1.07982 0.068489 3.16782e-20)
(0.991605 0.00394052 4.88002e-22)
(1.02502 0.00386473 6.32494e-21)
(1.01854 0.014362 2.96791e-22)
(1.02676 0.0283893 0)
(1.07414 0.107928 -6.88926e-22)
(1.01756 0.0141366 1.74335e-22)
(1.02192 0.0303389 3.08156e-21)
(0.866037 -0.00612356 -7.01031e-22)
(0.730734 0.00256292 -5.8777e-22)
(1.04629 0.0738315 -5.02439e-21)
(1.09323 0.089242 -4.58151e-20)
(0.989805 0.00132463 -6.92851e-22)
(0.723611 0.100375 0)
(1.02445 -0.0252484 0)
(1.0413 0.056394 0)
(0.112665 0.0300396 0)
(0.299861 0.058334 -2.31137e-21)
(1.00983 0.00772521 2.54428e-21)
(1.13842 0.0826713 0)
(0.0383819 0.0079938 6.64521e-20)
(0.996526 0.000866665 2.33926e-22)
(1.04163 0.0433638 0)
(1.03884 0.0400703 -1.83561e-20)
(1.04512 0.028362 -1.29494e-20)
(0.943307 0.110993 1.81322e-20)
(0.725998 0.100504 0)
(1.09304 0.0847135 -2.66131e-20)
(1.01041 0.0141146 1.10001e-22)
(0.993992 0.000484473 4.09031e-22)
(1.04271 0.0200215 1.35936e-20)
(0.981001 -4.1517e-05 2.29637e-22)
(0.986105 0.000237884 1.41282e-21)
(1.06605 0.0252644 -2.46818e-20)
(1.01917 0.023095 1.46801e-22)
(0.506125 -0.00299479 2.6104e-21)
(-0.0569424 -0.000460366 0)
(1.00686 0.0097659 0)
(-0.033561 0.0284983 0)
(0.556439 0.0113123 -3.48865e-21)
(0.215461 0.0664676 0)
(1.08319 0.0691668 0)
(1.00181 0.00206823 -3.17711e-22)
(0.346873 0.0642967 4.72173e-21)
(0.781308 0.100996 3.22449e-20)
(-0.070123 0.0111015 -1.8236e-20)
(1.041 0.0512181 3.19062e-22)
(1.08519 0.0253565 -2.21043e-20)
(1.05959 0.0959043 0)
(0.382871 0.058189 0)
(1.05897 0.0544096 1.58027e-20)
(0.983855 -6.87198e-05 6.09594e-24)
(1.02616 0.0274345 0)
(0.984298 1.83576e-05 0)
(0.917107 0.111379 0)
(1.0553 0.0768897 1.52884e-20)
(1.01516 0.0223203 2.1185e-21)
(1.02873 0.0470137 3.2745e-21)
(-0.0846193 0.0210127 -1.12019e-20)