/*--------------------------------*- C++ -*----------------------------------*\
| =========                 |                                                 |
| \\      /  F ield         | OpenFOAM: The Open Source CFD Toolbox           |
|  \\    /   O peration     | Version:  v2012                                 |
|   \\  /    A nd           | Website:  www.openfoam.com                      |
|    \\/     M anipulation  |                                                 |
\*---------------------------------------------------------------------------*/
FoamFile
{
    version     2.0;
    format      ascii;
    class       volVectorField;
    location    "100";
    object      U_0;
}
// * * * * * * * * * * * * * * * * * * * * * * * * * * * * * * * * * * * * * //

dimensions      [0 1 -1 0 0 0 0];


internalField   nonuniform List<vector> 
14804
(
(0.984216 -0.000566046 1.98975e-22)
(0.987095 0.000742996 8.52989e-22)
(0.799184 0.100849 7.88545e-23)
(0.990825 0.0025822 -1.59173e-21)
(1.11167 0.0470175 -1.05647e-20)
(1.03199 0.0377621 0)
(0.10233 0.0119171 0)
(1.09762 0.0645236 0)
(1.00194 0.00139227 2.95766e-22)
(0.991188 -0.00240123 3.83097e-23)
(0.999577 0.00547605 2.14972e-22)
(-0.0696773 0.016988 2.74025e-20)
(0.965765 0.0017816 -8.61531e-22)
(0.893709 0.0508848 -1.39188e-22)
(0.346951 0.053739 -2.22011e-20)
(1.04647 0.0357783 -4.60862e-23)
(-0.00350788 0.00538878 3.38746e-23)
(0.92986 0.0509479 6.55726e-22)
(1.04758 0.035718 0)
(0.983901 -0.000533299 -3.42536e-24)
(0.993604 0.00468643 -7.83121e-22)
(1.11016 0.0475492 3.74799e-20)
(1.01644 0.015789 -6.52529e-22)
(1.04501 0.0389021 -1.39699e-20)
(0.865552 -0.0225607 -2.39012e-23)
(0.112296 0.0118949 -2.36076e-20)
(0.0869914 0.00863788 0)
(1.00949 0.0142577 -6.46836e-21)
(0.346314 0.0557089 2.45738e-20)
(0.35929 0.0537512 0)
(0.445783 0.0659813 1.77779e-21)
(-0.00719279 0.0043742 -5.25335e-21)
(1.08517 0.0457567 -2.36742e-20)
(1.09614 0.0654949 0)
(0.785511 0.101458 -8.89803e-21)
(0.991775 0.00333895 0)
(1.00866 0.00367107 3.45317e-21)
(1.04378 0.0377187 1.36749e-20)
(1.1413 0.1109 -8.26361e-21)
(0.983573 -0.000610739 1.71876e-22)
(1.13888 0.114764 0)
(1.1449 0.109557 -4.20603e-20)
(1.07039 0.106915 0)
(1.06698 0.0267025 0)
(0.758735 0.042079 0)
(0.279837 0.053451 0)
(1.12982 0.114086 0)
(0.990956 0.00245372 7.96894e-22)
(1.06211 0.0919673 1.20965e-20)
(0.993392 0.00453009 6.47943e-22)
(1.01916 0.0182002 3.27071e-22)
(0.988317 0.000371007 1.66642e-21)
(0.99637 0.000903329 -4.05167e-22)
(1.01555 0.0160595 0)
(1.08525 0.0469967 5.32846e-20)
(1.00899 0.013833 5.78536e-21)
(0.0983976 0.00902371 0)
(0.00788515 0.00825226 -8.11935e-21)
(0.667654 0.00186069 4.37233e-21)
(0.95808 0.00871094 6.48482e-22)
(0.00115836 0.0062217 0)
(0.810132 0.104428 2.06393e-20)
(0.983997 -0.000627252 -2.80451e-22)
(0.986778 0.000698883 -7.61961e-22)
(1.07808 0.0306468 1.76138e-20)
(-0.0643058 0.0132274 -3.16615e-20)
(0.886106 0.0436561 -8.30123e-22)
(1.00768 0.00935996 1.79774e-22)
(0.991634 -0.00235894 -2.21838e-23)
(1.03774 0.0397624 -4.84135e-21)
(1.05701 0.0466198 -1.00264e-20)
(1.0068 0.00903359 1.43609e-22)
(1.08192 0.0269408 -1.05357e-20)
(1.09865 0.0800947 -1.61571e-20)
(0.806421 0.104489 4.22708e-21)
(1.01852 0.018042 5.27612e-21)
(1.04138 0.0210765 0)
(1.06925 0.0898405 3.31799e-21)
(0.984201 -0.000964586 0)
(1.02533 0.0506718 1.10335e-22)
(1.02519 0.0496004 0)
(0.997824 -7.99487e-05 -1.64223e-22)
(1.11493 0.0761369 2.7978e-20)
(0.260971 0.0316215 0)
(0.991336 9.21605e-05 0)
(1.03713 0.0233066 2.77436e-21)
(0.983513 8.90159e-05 0)
(0.995936 0.00518353 0)
(1.08319 0.0583969 -1.46317e-20)
(1.08459 0.0577732 -1.54247e-20)
(0.764694 0.0932986 1.85074e-21)
(0.995563 0.00475601 0)
(0.983427 -0.000550213 -5.6389e-23)
(1.02656 0.0123497 7.00179e-21)
(0.992758 -0.00243929 -9.28054e-23)
(0.310975 0.0466839 1.69209e-20)
(0.987068 0.00033441 3.25117e-22)
(0.796355 0.043369 1.78531e-22)
(1.04228 0.0446673 6.23659e-21)
(0.997658 -0.00168121 0)
(0.250236 0.0498695 0)
(0.77644 0.10455 -1.99347e-22)
(1.12043 0.110914 -3.95183e-20)
(1.08009 0.0311559 -2.30226e-20)
(1.11881 0.100671 2.11739e-21)
(0.835894 -0.0411809 4.92981e-22)
(1.02385 0.0313076 2.4353e-21)
(0.98584 0.000242637 -1.39959e-22)
(1.04349 0.0453059 -1.32205e-20)
(-0.000764082 -0.049514 -2.90147e-21)
(0.985655 0.000344796 0)
(1.02336 0.0311122 -4.27406e-21)
(-0.0212051 0.00832248 -1.86827e-20)
(1.10237 0.0740568 2.52042e-20)
(1.06214 0.0534409 -7.32043e-21)
(0.793484 0.102324 4.8062e-20)
(1.11593 0.114643 -1.93036e-20)
(1.06918 0.109429 0)
(1.04586 0.0374989 -1.00612e-20)
(0.987909 0.000340048 2.76031e-22)
(0.772262 0.10021 0)
(1.11747 0.0997964 0)
(1.02659 0.0119038 -3.85195e-21)
(1.11601 0.0776315 -1.05323e-20)
(1.04686 0.0373965 1.83481e-20)
(1.10366 0.0754636 -3.39886e-20)
(0.983868 0.000212837 5.42947e-22)
(0.981654 -0.000191951 0)
(1.09702 0.0635092 0)
(0.34718 0.0504577 4.33321e-21)
(0.983101 0.00012455 -1.36106e-22)
(0.308515 0.0469388 -8.52144e-23)
(1.0012 0.001366 2.74035e-22)
(0.471006 0.0574764 4.77347e-21)
(0.996121 0.00086979 5.99848e-22)
(0.7568 0.090867 1.96934e-23)
(1.15995 0.115651 3.24452e-20)
(1.0086 0.0118209 0)
(0.774137 0.0999173 0)
(0.573284 0.0271859 2.90422e-21)
(1.00907 0.00328285 0)
(1.00025 0.00106879 0)
(1.00826 0.0109328 0)
(1.06874 0.0271896 0)
(1.14546 0.11395 -2.89675e-20)
(1.00706 0.0126318 -2.53573e-22)
(1.10787 0.113236 1.67991e-20)
(1.14225 0.112203 -2.87853e-20)
(0.224696 0.0281069 0)
(1.02209 0.0299243 3.01004e-21)
(0.889812 0.0748148 7.00549e-22)
(0.983222 0.000160296 1.18177e-22)
(1.11709 0.111347 0)
(1.14866 0.115099 3.42335e-20)
(0.984395 -0.00054778 -2.95608e-22)
(0.983448 0.00023999 4.50631e-23)
(0.790588 0.021489 1.6046e-22)
(1.07451 0.0361464 1.9528e-20)
(1.03266 0.0244124 0)
(0.235757 0.031014 0)
(1.01547 0.0158687 5.58793e-21)
(0.991818 -5.97376e-05 7.1276e-22)
(0.981978 -0.000215614 -1.41613e-22)
(1.00105 0.00108224 -5.20762e-22)
(1.07267 0.0531422 -3.62286e-20)
(0.0609329 0.0328663 -8.99328e-22)
(0.982209 -0.000120769 -1.60333e-23)
(0.992739 -0.0022824 -8.38258e-23)
(1.0011 0.027705 -6.90581e-22)
(1.07309 0.0363245 -3.24333e-20)
(1.015 0.0157161 -6.51803e-22)
(1.08176 0.0256477 6.72826e-21)
(0.661043 0.0926845 1.52159e-20)
(1.00724 0.0125847 6.60052e-22)
(1.02421 0.0858897 0)
(0.198267 0.0310599 -3.1523e-20)
(1.07787 0.116048 -1.45035e-20)
(-0.0481811 0.0116239 -3.41589e-20)
(0.707827 0.0973626 1.30497e-20)
(0.993961 0.0301587 2.33639e-23)
(0.995783 0.00103125 -4.36792e-22)
(1.06052 0.0904537 -1.04308e-20)
(1.0323 0.0180147 -2.0498e-23)
(0.693081 -0.00648369 -1.77201e-22)
(0.992612 0.000726144 5.50143e-22)
(0.779233 0.100656 -2.22926e-20)
(0.785164 0.0933076 -2.70686e-21)
(0.164239 0.0295482 -4.07363e-21)
(0.457988 0.051359 -2.38719e-21)
(0.983216 -0.000162854 -5.59052e-24)
(1.00498 0.0126414 1.751e-21)
(0.75304 0.10143 -9.46794e-21)
(-0.0279478 0.0447736 2.03408e-20)
(0.721584 0.101602 1.83813e-22)
(0.457852 0.0746009 -2.46716e-21)
(0.677814 0.0335239 -1.84089e-21)
(0.611428 0.0896906 -6.76824e-22)
(0.158086 0.0278459 4.63756e-21)
(1.03243 0.0174491 0)
(0.464468 0.076588 -2.0046e-20)
(1.02654 0.0186203 0)
(1.00252 0.0108264 0)
(0.992079 7.82921e-05 1.79614e-22)
(0.888075 0.110081 0)
(1.03235 0.0387049 0)
(1.10197 0.101573 -9.45249e-21)
(0.411903 0.0621341 -1.1167e-21)
(0.913893 0.0272873 -1.93219e-21)
(1.10045 0.0809299 0)
(1.02493 0.0125936 0)
(0.983864 -9.62682e-07 0)
(0.725372 0.0966072 1.1732e-20)
(0.999581 0.0013003 0)
(0.991091 0.00287729 7.30182e-22)
(0.472977 0.0755538 8.11193e-21)
(1.02642 0.00192485 0)
(0.899811 0.0387792 -2.52526e-22)
(1.03476 0.00394034 1.21378e-20)
(1.15206 0.114549 -3.42974e-20)
(0.882514 0.0193901 6.59015e-22)
(1.04031 0.0651456 7.54889e-21)
(0.556463 0.0189766 5.94214e-21)
(1.00313 0.00152312 5.50198e-21)
(0.991204 0.0209707 6.58429e-22)
(0.253329 0.0567323 3.22937e-20)
(1.10318 0.100835 -1.19391e-20)
(0.192305 0.0295569 3.06178e-20)
(1.02694 0.00211388 4.89898e-24)
(0.921518 0.111862 -1.28769e-21)
(1.05918 0.114124 0)
(1.07102 0.0910095 0)
(0.434187 0.0733866 -5.70904e-21)
(1.02933 0.019346 1.4084e-20)
(1.02587 0.0128395 1.7058e-21)
(0.643489 0.0306214 1.35413e-21)
(1.03615 0.0229181 -8.759e-22)
(0.853186 0.107683 0)
(0.647945 0.0921336 -6.55241e-21)
(1.04722 0.0189002 0)
(0.514192 -0.000173045 -3.03166e-22)
(0.0959382 0.0155373 1.9429e-20)
(1.0594 0.0868635 -2.59888e-21)
(0.765492 0.0496289 0)
(0.0908115 0.0296782 -5.30941e-21)
(0.999436 0.00100068 9.8673e-21)
(0.988042 0.000866163 6.58971e-22)
(1.05479 0.0787172 7.66177e-21)
(-0.00302552 0.00737773 6.41768e-20)
(1.09545 0.0593936 -2.07416e-20)
(1.09463 0.0248348 1.3792e-20)
(0.781155 0.102499 -1.57642e-23)
(0.804293 0.106545 -1.36871e-20)
(0.995597 0.000940011 0)
(1.01451 0.0212913 3.4924e-22)
(0.989739 0.000511925 -2.50797e-21)
(1.03351 -0.0152019 4.37114e-22)
(0.25484 0.0297492 0)
(0.760684 0.102546 1.75641e-22)
(0.478292 0.078057 7.85063e-21)
(0.0830913 0.0278061 0)
(1.01451 0.0211963 0)
(0.853244 -0.00834144 5.63523e-23)
(0.990963 0.000853658 1.27868e-21)
(1.00753 -0.00409692 -2.81086e-22)
(1.00462 0.0123501 -2.38851e-21)
(0.141693 0.0128924 1.35192e-20)
(1.02157 0.00716535 4.52504e-23)
(1.03332 -0.0123017 -4.12496e-22)
(0.261731 0.0289378 0)
(0.983755 -0.000602952 5.32097e-24)
(1.02754 0.0113344 2.42087e-20)
(1.07496 0.113252 5.7267e-21)
(1.13084 0.112547 0)
(0.103663 0.0160319 -2.36354e-20)
(1.13178 0.0848822 0)
(0.680496 0.0322227 -2.58452e-21)
(0.983231 4.18925e-05 -5.02804e-22)
(1.09421 0.0936018 0)
(0.98372 -0.000637505 1.23603e-22)
(0.547407 0.0127771 -5.36882e-21)
(1.02225 0.00731347 -3.48097e-21)
(0.479935 0.0751337 0)
(1.02842 0.0190948 -1.30423e-20)
(1.05738 0.0750296 0)
(1.04657 0.0195325 -1.53755e-20)
(0.127515 0.0295914 -4.55351e-20)
(1.04608 0.038816 1.59501e-20)
(0.0740405 0.0116227 2.98287e-20)
(1.01677 0.0168828 -6.54343e-21)
(0.134612 0.0300848 -3.77335e-20)
(0.126807 0.00979499 -2.9731e-20)
(1.0928 0.0939614 1.88095e-20)
(0.983095 0.0186765 8.2712e-22)
(0.867417 0.109878 -4.18376e-20)
(1.04276 0.0378614 1.9315e-20)
(1.06141 0.0543524 6.81633e-21)
(0.756101 0.102609 1.94613e-20)
(1.04264 0.00492825 3.65016e-21)
(1.1071 0.0453677 1.07334e-20)
(0.981771 3.59056e-05 -1.38926e-23)
(1.0009 0.000961036 0)
(1.04383 0.0719928 -1.15135e-21)
(1.01614 0.0167551 -1.0247e-20)
(1.06757 0.0904591 1.05712e-20)
(1.00265 0.00151461 -3.15797e-21)
(0.287451 0.0211278 8.22133e-23)
(0.885582 -0.0738017 -2.48335e-22)
(1.024 0.0130803 1.28387e-20)
(0.248245 0.0681362 0)
(1.02616 0.048544 -2.08178e-22)
(0.986121 0.000376623 -1.49016e-21)
(1.03516 0.00427837 -1.8613e-20)
(0.677798 0.0940611 1.66794e-20)
(0.991482 0.003017 8.31786e-22)
(1.04473 0.114647 2.77687e-21)
(0.985324 -0.000213592 1.53769e-22)
(1.02622 0.0495335 -5.36725e-22)
(0.981647 -0.000189585 -2.96308e-23)
(1.14528 0.112134 -3.78601e-21)
(0.982624 -0.000236641 -1.93692e-23)
(1.00078 0.00115399 0)
(1.05026 0.0326823 -1.01949e-20)
(0.9073 0.110245 0)
(0.344286 0.0491477 0)
(1.02757 0.0118983 -1.24644e-20)
(0.992079 0.00383022 -2.67369e-22)
(1.04124 0.0663824 -1.29779e-20)
(0.763057 0.0994297 -2.86333e-20)
(0.721006 0.0995222 0)
(1.13775 0.0678761 -2.25712e-20)
(1.02948 0.0596653 -2.56294e-22)
(0.996673 0.00588173 0)
(1.04211 0.00431922 0)
(0.0594757 0.00830443 0)
(1.00579 0.0103165 0)
(0.120078 0.027746 4.81245e-20)
(1.13099 0.0859692 -3.57363e-21)
(0.0382599 0.00665045 0)
(0.806071 0.102131 4.65188e-20)
(0.123011 0.0271274 3.39511e-20)
(0.171187 0.0301176 -8.11008e-21)
(1.0968 0.112317 7.91584e-21)
(0.0501371 0.0274194 4.66368e-20)
(0.765088 0.0990616 -4.24655e-20)
(0.998873 0.00121598 6.47563e-22)
(1.04093 0.0204087 0)
(0.316792 0.062483 -4.89407e-21)
(-0.0217651 0.0462529 0)
(1.00274 0.0108729 3.99641e-22)
(1.04195 0.0391552 -1.29984e-20)
(1.09821 0.0780926 2.7433e-20)
(0.986837 -0.000180258 0)
(0.990952 0.00355189 0)
(0.591607 0.0660356 5.8555e-22)
(0.999267 0.00872222 2.27093e-21)
(0.9995 0.00112101 -7.02531e-22)
(0.97556 0.0962248 8.94631e-24)
(0.99835 0.000779744 -6.74673e-21)
(0.361485 0.0539435 0)
(1.04198 0.00807538 0)
(1.02961 0.054715 1.9515e-21)
(0.983661 0.000233716 3.64714e-22)
(0.90851 0.111558 0)
(0.541912 0.0787552 0)
(0.0443956 0.00850402 -2.39998e-22)
(1.04249 0.0717626 -2.37722e-21)
(1.04123 0.00842791 6.58357e-21)
(0.351399 0.00589902 2.69776e-21)
(0.525614 0.0765065 0)
(1.03001 0.0550416 -2.60225e-21)
(0.999365 0.00125234 -2.27571e-22)
(0.240723 0.0308209 1.64794e-20)
(0.996731 0.00110542 0)
(0.605524 0.0115259 4.55237e-21)
(0.999555 0.00325281 -1.55366e-22)
(0.697949 0.09357 -3.89745e-20)
(-0.00800785 -0.04055 1.40033e-21)
(0.997441 0.00429669 -3.7865e-22)
(1.01731 0.00378713 4.19024e-23)
(1.08414 0.100153 3.31585e-20)
(0.986645 0.000492346 0)
(0.996921 0.000967396 -6.36628e-23)
(0.280536 0.0451706 -3.25605e-20)
(1.09284 0.0256771 -4.23367e-20)
(0.996488 0.00108638 4.02508e-22)
(0.981564 -7.56345e-05 1.53857e-23)
(0.990724 0.00342353 0)
(0.998953 0.00849342 -1.12188e-21)
(0.227806 0.0530424 0)
(0.986881 0.000145057 7.07549e-22)
(0.495989 0.0763612 -4.4127e-21)
(1.03184 0.0541999 0)
(1.1118 0.0516091 0)
(0.982363 -0.000103708 -7.33552e-23)
(1.02481 0.0132849 0)
(0.0976911 0.0302784 0)
(1.13723 0.115778 -6.96256e-21)
(1.11897 0.0627827 -1.75381e-20)
(1.03068 0.0835506 -5.15655e-23)
(1.14229 0.0954368 -6.29811e-21)
(1.08461 0.0521345 0)
(1.02161 0.0293949 0)
(0.159192 0.030042 8.42099e-21)
(0.753385 0.103042 -5.84917e-22)
(1.11153 0.112848 0)
(1.09681 0.0584498 1.97725e-20)
(1.05521 0.0992674 0)
(0.982315 -4.63036e-06 -7.44844e-23)
(1.02192 0.031564 0)
(0.992624 0.00402383 -4.807e-22)
(0.998057 0.00174995 0)
(1.1351 0.0838113 5.75283e-20)
(-0.0102554 0.00503493 -7.47123e-20)
(0.23043 0.0287863 -1.92695e-21)
(0.898327 -0.0675432 -7.11875e-23)
(0.996468 0.00590315 -8.56305e-23)
(0.961554 0.0554437 0)
(1.02296 0.0151242 1.74635e-20)
(1.05853 0.0470354 -1.18022e-20)
(1.08368 0.0530515 -2.60153e-22)
(0.2965 0.0196426 1.78224e-21)
(1.04298 0.0391256 -1.39377e-20)
(1.07619 0.107309 0)
(0.365797 0.0742995 4.33644e-21)
(1.00744 0.0121274 0)
(1.03095 0.00231974 8.91754e-21)
(1.0986 0.111133 -6.56302e-21)
(0.000576478 -0.0224487 -5.17577e-20)
(1.12693 0.0863238 0)
(1.05273 0.0355399 -1.40137e-22)
(1.00228 0.0105201 -1.89638e-21)
(0.988121 0.000268049 0)
(0.60391 -0.0146781 0)
(0.377023 0.0549488 1.57706e-20)
(1.02456 0.0287131 -4.73339e-21)
(0.375362 0.0758937 -1.76113e-20)
(1.09175 0.0965339 2.77261e-20)
(0.00256879 -0.0253773 4.01919e-20)
(1.03056 0.00242696 -2.43691e-20)
(0.419188 0.0761762 5.5484e-20)
(0.160943 0.0273992 0)
(1.04082 0.023349 0)
(1.05332 0.0993342 0)
(0.988719 0.00051792 -4.62058e-22)
(1.07226 0.075245 1.2974e-20)
(1.06087 0.0884129 0)
(0.385597 0.0381087 -6.91969e-22)
(1.00776 0.0120376 0)
(1.02711 0.0193973 0)
(0.416 0.0608237 -1.65445e-21)
(1.1105 0.113185 -2.843e-20)
(0.9202 0.0608019 7.47874e-23)
(0.469767 0.0765149 4.16931e-20)
(1.13329 0.114113 -6.74114e-23)
(0.208296 0.0302262 0)
(0.994937 0.00154828 1.86716e-21)
(0.306574 0.040875 1.68993e-21)
(0.987907 0.00100127 -1.04257e-21)
(1.07156 0.111027 -4.86216e-21)
(1.04015 0.0620877 -1.03761e-20)
(1.05979 0.0537914 -1.22321e-20)
(1.14002 0.0680816 0)
(1.01049 0.0151186 8.53635e-23)
(0.884183 0.0517896 0)
(1.02856 0.0108003 -1.45467e-20)
(-0.0478272 0.020684 1.94508e-20)
(1.07308 0.076751 0)
(1.03198 0.0534124 0)
(0.27344 0.0327864 -3.13611e-21)
(1.04164 0.024034 4.76204e-21)
(1.02852 0.0113409 1.45939e-20)
(0.990878 0.00217008 8.34756e-22)
(0.13908 0.029609 0)
(-0.0146624 0.00573583 0)
(0.0651867 0.0341749 -2.82806e-20)
(1.13411 0.085055 -6.80551e-20)
(0.988319 0.0003423 -4.45465e-22)
(1.11905 0.112738 0)
(0.998077 0.0011591 -4.43489e-22)
(1.11464 0.10012 0)
(1.0342 0.0363912 -4.79627e-21)
(0.287599 0.0441544 1.877e-20)
(0.442948 0.0715448 -1.88396e-20)
(1.11767 0.113126 -2.02774e-20)
(0.805958 0.102183 -2.80343e-21)
(0.995518 -0.00116756 1.4227e-22)
(0.370425 0.000925052 0)
(1.07274 0.0157668 -1.73938e-20)
(0.536021 0.0786349 -1.39423e-20)
(0.15256 0.0281294 1.20046e-21)
(0.438352 0.0774975 -5.96721e-20)
(0.122098 0.0299899 -1.91464e-20)
(1.08676 0.111338 -1.73498e-20)
(0.619543 0.0288775 1.21001e-21)
(0.292416 0.0563492 0)
(0.982481 -0.000360968 -5.74915e-23)
(0.993061 0.000741622 -2.00812e-22)
(0.90176 0.099265 -1.67727e-21)
(0.992828 0.000734286 -4.08468e-22)
(1.10839 0.0468302 -4.31328e-20)
(1.11812 0.0606653 -3.27147e-20)
(1.03973 0.0380514 0)
(0.997899 0.00122349 0)
(0.0858715 0.027289 0)
(1.03098 0.0369468 0)
(1.02377 0.0295479 -4.14707e-22)
(1.08862 0.112413 2.04865e-20)
(1.01005 0.0147157 0)
(0.988507 0.000260704 1.45997e-22)
(0.838011 0.107012 -2.21756e-20)
(1.09304 0.0958606 -1.55676e-20)
(0.447058 0.0792058 -5.17219e-20)
(0.586782 0.00900768 -1.2371e-21)
(1.04074 0.0380751 1.25934e-20)
(1.1289 0.0870285 1.06867e-20)
(0.873031 0.0633464 0)
(0.227962 0.0302791 0)
(0.4358 0.0778147 1.79028e-20)
(1.0238 0.00660512 -1.96304e-20)
(1.02703 0.0476612 -1.51306e-21)
(1.00393 0.0118676 8.17125e-22)
(1.14297 0.0972048 3.28875e-20)
(0.392385 0.0579997 0)
(0.875751 0.110456 0)
(0.17722 0.0298184 3.48704e-20)
(0.223425 0.0305872 1.35407e-20)
(1.105 0.112343 2.00875e-20)
(0.236064 0.0242964 0)
(0.313236 0.0563764 -3.00934e-20)
(1.16433 0.116888 0)
(0.985281 -0.0403958 0)
(0.983547 0.000263052 -5.39986e-23)
(0.221634 0.028527 0)
(0.737575 0.0425063 0)
(0.653956 0.0297534 1.84595e-21)
(0.995279 0.000979115 -3.18796e-21)
(0.992772 -0.0429542 -6.49583e-22)
(1.03887 0.0390239 0)
(1.06632 0.111943 9.88675e-21)
(0.246962 0.0253226 0)
(1.02433 0.0289477 0)
(0.19196 0.00386747 5.42366e-22)
(1.02798 0.000741418 4.18242e-22)
(1.03031 0.054133 1.71515e-21)
(0.994394 -0.00197927 0)
(1.02947 0.036096 -7.04962e-21)
(1.17133 0.115755 1.28266e-21)
(1.00702 0.00859399 3.83369e-21)
(1.01575 0.0229467 6.72361e-23)
(0.98724 7.56594e-05 1.68018e-24)
(0.986771 -2.30141e-05 0)
(0.98353 0.000187347 -3.53365e-22)
(1.02392 0.00627888 1.51354e-20)
(0.986096 0.000638342 0)
(1.12754 0.0990754 -2.11566e-20)
(0.982051 -0.000402231 0)
(0.710754 0.0431167 0)
(0.949899 0.0627246 0)
(1.02215 0.0268436 8.07491e-21)
(0.102249 0.0298926 0)
(0.995683 0.000987509 -9.72574e-22)
(0.0138999 0.00809126 3.63908e-20)
(1.01004 0.00740082 -4.46373e-21)
(0.983616 0.0540698 -1.18711e-21)
(1.02567 0.0249782 0)
(1.06609 0.115728 2.83932e-21)
(0.993367 0.000768245 4.08468e-22)
(1.03916 0.0987669 4.46297e-21)
(0.388794 0.0577809 1.029e-20)
(1.00248 0.0105128 1.54143e-21)
(1.11389 0.0515973 -4.53226e-22)
(1.11048 0.115931 -4.69244e-20)
(0.752372 0.0994558 -4.46237e-21)
(0.237801 0.0226991 -3.30238e-20)
(1.01485 0.017413 0)
(1.10308 0.0769875 3.34258e-20)
(0.53136 0.0607878 1.63498e-21)
(0.521653 0.0769601 0)
(1.01155 0.0185383 5.27849e-22)
(0.981838 -3.51658e-05 -3.27269e-23)
(0.427788 0.0642937 3.06282e-20)
(0.985158 -0.000503236 -2.36936e-22)
(1.11621 0.100855 0)
(0.622712 -0.0177265 0)
(0.115067 0.0280116 5.38273e-21)
(0.128035 0.0275542 0)
(1.01872 0.00240606 -1.55399e-20)
(1.02303 0.00158275 0)
(0.985608 0.000925584 -1.77867e-22)
(1.02019 0.00138251 0)
(1.0097 0.0209861 0)
(1.02575 0.0291362 4.33675e-21)
(0.873431 0.0191789 -4.84108e-25)
(0.712961 0.0750085 -7.11247e-22)
(0.85689 -0.050656 3.86362e-21)
(0.288755 0.052515 -3.07153e-20)
(0.0833952 0.00703728 0)
(0.0437044 0.00582808 0)
(1.12905 0.0987624 0)
(1.01572 0.0229665 0)
(0.328618 0.0649647 0)
(0.761208 0.102797 0)
(1.00786 0.00859062 -3.88741e-21)
(1.0302 0.0607057 -2.80677e-22)
(0.0542231 0.00805946 -1.2365e-20)
(1.025 0.101385 -3.90984e-21)
(1.0227 0.0305261 4.46695e-21)
(0.550002 0.0273096 -1.82178e-21)
(1.03989 0.0391397 0)
(1.03099 0.0546109 0)
(0.420471 0.0752146 5.08222e-20)
(1.00204 0.0107121 8.3696e-22)
(0.650572 0.0906674 5.97978e-21)
(0.449264 0.0747063 -3.345e-20)
(0.902198 0.0947091 -3.98219e-21)
(0.00335279 0.00636449 -3.69112e-20)
(0.886161 0.033913 -4.29048e-22)
(1.0021 0.0107828 0)
(0.268668 0.0527203 -3.0627e-20)
(0.987183 -0.000222015 0)
(1.12392 0.0872676 3.12662e-20)
(1.11006 0.111838 -1.23666e-20)
(1.08404 0.115702 1.49443e-20)
(-0.0538107 -0.000364609 1.44307e-20)
(1.02213 0.0304617 -3.03783e-21)
(1.0376 0.0405326 1.08553e-20)
(0.714266 0.0873976 1.41578e-21)
(1.0526 0.0476002 1.00171e-20)
(1.01613 -0.0201086 0)
(1.01628 0.0234829 -2.24952e-21)
(0.985322 -0.000456688 2.44739e-22)
(0.984238 -0.000986716 1.28509e-22)
(0.0485879 0.00756823 0)
(1.02907 0.000972199 0)
(1.01626 0.0235324 -7.05565e-23)
(0.984364 -0.00104042 1.53433e-23)
(1.12465 0.112055 2.30294e-20)
(0.687536 -0.031452 -3.0099e-22)
(1.10274 0.0917854 4.45501e-20)
(1.07213 0.0543155 2.11262e-20)
(0.712633 0.0875789 1.83611e-22)
(0.928983 -0.081813 -1.079e-21)
(1.04887 0.0155845 -2.85899e-20)
(1.06599 0.0889243 -4.99912e-22)
(0.985787 0.000559811 1.86903e-22)
(1.00203 0.0101564 1.41631e-21)
(1.02701 0.0295633 3.54116e-21)
(0.983237 -0.000526202 0)
(1.02253 0.00676827 6.08261e-21)
(1.10849 0.0902756 -3.92151e-20)
(0.396147 0.0438501 0)
(-0.0126842 -0.0221405 -1.47596e-21)
(1.07457 0.0155955 2.20265e-20)
(0.994944 0.00082301 0)
(1.13361 0.115154 -7.60652e-21)
(0.60955 0.0253768 4.60643e-21)
(0.822544 0.0344108 -2.21494e-21)
(1.07242 0.106429 0)
(1.12568 0.0879005 -3.70878e-21)
(1.02664 0.0617999 -7.20635e-22)
(0.789001 -0.00900994 3.17154e-21)
(1.0313 0.0180714 1.82258e-23)
(0.533471 0.0772974 1.53304e-20)
(1.03368 0.0247181 -1.68607e-23)
(1.02807 0.0615844 -3.32719e-22)
(0.46714 0.078087 4.36569e-20)
(0.45078 0.0779962 0)
(0.753712 0.103177 2.04903e-20)
(1.00846 -0.00731333 0)
(0.984445 -0.001086 8.07512e-23)
(0.272896 0.0618394 1.09448e-20)
(1.05698 0.0766285 -6.94588e-21)
(1.02598 0.0246678 -2.12312e-21)
(1.01661 -0.0161328 0)
(1.05599 0.0803463 0)
(1.02543 0.0293624 -4.49726e-21)
(0.998846 0.0759485 0)
(1.00733 0.00974134 0)
(0.349663 0.0213102 1.53351e-22)
(0.0909187 0.0278084 0)
(0.984684 -0.00115462 -9.39219e-23)
(1.03352 0.0868266 2.61846e-21)
(0.835166 0.0974562 0)
(0.428022 0.0759377 0)
(1.02397 0.0298484 0)
(1.01893 0.0233431 1.1861e-22)
(0.539101 0.0870299 -1.30384e-20)
(0.995373 0.000964962 0)
(0.981942 -0.000182837 2.0045e-23)
(1.0425 0.0565067 0)
(0.981776 3.64609e-06 -3.29364e-23)
(0.243394 0.0606688 -2.22443e-20)
(0.227257 0.0195721 2.2662e-20)
(1.02921 0.0351882 0)
(1.12082 0.0629478 5.34145e-20)
(1.01947 0.0240686 1.27534e-22)
(1.01409 0.020511 0)
(0.912442 -0.0815214 8.37514e-23)
(1.10117 0.0911004 -5.75309e-20)
(-0.00377412 -0.0456552 -1.29369e-20)
(0.995204 0.000912676 2.60893e-22)
(0.733998 0.0916767 -1.04727e-21)
(0.982202 2.0363e-05 4.47989e-23)
(0.982547 -3.32192e-05 -4.23994e-24)
(0.530749 0.0815565 -2.1181e-20)
(0.0190851 0.00813935 0)
(0.0911961 0.00850875 0)
(0.813257 0.104586 0)
(1.02639 0.0286432 3.43673e-21)
(0.449005 0.076109 -4.9149e-20)
(1.00919 0.00756266 0)
(1.03173 0.0858443 0)
(0.165751 0.0242813 -1.4376e-20)
(0.166123 0.0277812 -2.95968e-20)
(-0.0368128 0.0147629 3.86714e-20)
(1.10825 0.114581 3.59919e-20)
(0.999682 0.00901856 0)
(0.983783 -0.000204709 1.48928e-22)
(1.13187 0.111574 -3.37615e-21)
(0.186172 -0.00224346 -3.94392e-22)
(0.908232 -0.0426762 0)
(1.08541 0.0405645 1.31126e-20)
(0.992932 0.00118034 0)
(1.10745 0.0910218 4.67503e-20)
(0.445648 0.0799853 1.7065e-20)
(0.288196 0.0374771 -2.41866e-22)
(1.05222 0.0344732 3.23536e-20)
(1.00604 0.0101604 8.36846e-23)
(0.982554 2.48264e-05 3.51578e-23)
(0.9995 0.0727678 5.72821e-24)
(-0.0159935 0.00519375 3.93997e-20)
(0.914426 0.117422 0)
(0.87543 -0.0474503 -1.29784e-22)
(1.0056 0.0319812 -1.45554e-22)
(-0.0352351 0.0396555 -1.45861e-20)
(1.02549 0.00433767 6.56303e-21)
(1.0174 0.0231566 1.90768e-21)
(1.01949 0.00267792 1.0673e-20)
(0.461713 0.081016 0)
(1.08415 0.0986121 3.07096e-20)
(1.02372 0.0299894 0)
(0.800764 -0.00186283 -1.25778e-21)
(1.00846 0.00889934 1.36187e-20)
(1.08396 0.0392104 3.84202e-20)
(0.0410495 0.00610473 0)
(1.03396 0.0517889 1.7603e-21)
(-0.0497961 0.0196498 8.02293e-21)
(0.999249 0.00871479 0)
(0.985452 0.00078151 -5.21111e-22)
(0.982726 -0.000624489 -3.44048e-23)
(1.03386 0.05278 0)
(1.06973 0.0977004 9.25667e-21)
(1.01489 0.0547444 -5.73732e-22)
(1.05759 0.0871473 0)
(0.252129 0.0263536 -2.7587e-20)
(1.08132 0.0826852 -1.01395e-20)
(0.643343 0.0701827 8.17682e-22)
(1.02669 0.0298456 5.02369e-21)
(0.734165 0.100032 0)
(1.00359 0.0115785 -1.66755e-21)
(1.02314 0.0297755 0)
(1.04069 0.00959535 -7.23602e-21)
(-0.030873 0.039483 9.55138e-23)
(0.617283 0.0893642 -6.62049e-21)
(0.151123 0.0109523 1.37503e-20)
(0.945617 0.111597 -1.71238e-20)
(0.992838 0.00105354 3.94752e-21)
(0.982349 -3.13603e-05 1.60826e-22)
(0.257577 0.0294009 -2.80986e-20)
(0.913241 0.128719 0)
(-0.0190084 -0.0287554 1.80844e-20)
(-0.0313666 0.0330579 0)
(1.01697 0.0224145 -5.72724e-21)
(1.03035 0.00952986 2.2206e-20)
(0.0496643 0.0587678 1.3262e-20)
(1.02242 0.0369041 -7.84311e-22)
(1.10144 0.0778491 6.67013e-21)
(1.04063 0.0216283 0)
(0.0803204 0.00201577 3.65795e-20)
(1.0239 -0.0280214 -1.32466e-23)
(0.926781 0.108819 1.18738e-20)
(0.993191 0.00033401 0)
(1.02538 0.000254639 7.8795e-21)
(0.267879 0.0323762 2.04021e-20)
(1.053 0.0723386 6.31317e-21)
(0.707698 0.0991748 -9.69141e-21)
(0.543255 0.085613 -4.65197e-22)
(1.00997 0.0131714 6.4983e-22)
(1.03968 0.00915781 7.26343e-21)
(0.438036 0.0655158 -1.39713e-20)
(1.02931 0.0795323 5.25375e-23)
(1.027 0.0486328 1.82044e-21)
(0.993822 0.00109972 -9.34725e-22)
(1.0141 0.0203863 5.32398e-23)
(1.02325 0.00697808 -3.65077e-21)
(1.05571 0.0970525 0)
(0.512626 0.0852758 -7.04686e-21)
(0.930574 -0.0431316 -9.27445e-22)
(1.03418 0.00837207 -2.5862e-21)
(1.02207 0.0148577 -1.36869e-20)
(-0.0762553 0.0217943 -3.19645e-20)
(0.99531 0.00159507 1.73526e-21)
(1.02286 0.0134215 0)
(0.649291 0.089133 3.24481e-21)
(0.984212 -0.000968317 4.82252e-24)
(1.05195 0.0464792 -2.26211e-20)
(1.00662 0.00216588 0)
(1.11194 0.11119 8.36079e-21)
(1.00904 0.0147394 -1.63843e-21)
(1.02986 0.0324401 -5.45919e-22)
(0.449852 0.0739014 0)
(0.988667 0.000952228 -1.57028e-21)
(0.220789 0.0535666 0)
(1.06987 0.0265326 -1.97767e-20)
(0.835827 0.105302 -3.2053e-20)
(1.01799 0.0039046 9.86401e-21)
(1.03231 0.024872 0)
(0.149725 0.0298721 3.79242e-20)
(0.721071 0.112919 8.10966e-22)
(0.472593 0.0773605 0)
(1.00717 0.00917313 0)
(0.906094 0.0656642 -1.14494e-21)
(1.00217 0.00173812 3.42129e-22)
(1.03123 0.0185474 -5.74006e-21)
(0.700938 0.0953773 -1.53327e-20)
(0.990553 0.0020083 6.80875e-22)
(1.03486 0.0030316 2.49052e-20)
(1.02355 0.00210956 0)
(1.03525 0.00344854 -2.31598e-20)
(0.478245 0.0772646 -2.25973e-20)
(1.01859 0.0223569 -2.46469e-21)
(1.05283 0.0328898 -1.03833e-20)
(1.04206 0.0966297 -1.41142e-21)
(0.98314 0.000164356 -7.75749e-23)
(0.490044 0.0770806 2.15337e-20)
(1.01519 0.0223444 -1.65929e-21)
(0.054587 0.0377595 2.14736e-21)
(0.990464 0.00173978 -2.31535e-21)
(1.02847 0.0601309 -9.12201e-23)
(0.395805 0.0582789 -9.98033e-21)
(0.968038 0.11188 -1.8714e-20)
(0.883649 0.122636 -6.69088e-22)
(1.04816 0.0149489 0)
(0.522954 0.0831105 3.86788e-20)
(-0.0261679 0.030432 0)
(0.521007 0.0765245 7.71169e-21)
(0.995462 0.00512617 -4.30487e-21)
(1.02178 0.032752 0)
(1.02202 0.0307618 0)
(0.99718 0.00273409 3.35198e-22)
(0.996717 0.00257859 -3.66405e-22)
(1.00757 0.00889445 0)
(0.278296 0.0355056 2.40859e-20)
(0.830424 0.102953 8.75469e-21)
(1.02152 0.0300691 2.38435e-21)
(1.11166 0.0896477 0)
(1.0305 0.0235763 -9.77591e-21)
(1.0283 0.033636 3.34618e-22)
(-0.0644681 0.00741647 2.98986e-20)
(1.138 0.115456 0)
(1.05123 0.0322713 0)
(1.09321 0.0276305 2.19524e-20)
(0.824978 0.0476441 0)
(0.778439 0.100763 -2.11605e-20)
(0.98939 0.00119098 0)
(0.995438 0.00528715 2.17725e-21)
(0.836705 0.104274 0)
(1.02253 0.0361914 6.71165e-22)
(0.540685 0.0778079 -1.42675e-20)
(0.872293 0.106446 3.9061e-20)
(1.02941 0.0481517 -2.03468e-21)
(1.05621 0.0454636 0)
(0.983249 0.000102831 2.17802e-23)
(0.910213 0.0867157 1.19817e-21)
(0.981517 8.26888e-06 1.47525e-23)
(0.992482 0.00101431 -1.88644e-21)
(1.09633 0.0773578 -2.56573e-20)
(0.246656 0.0311874 1.4676e-20)
(0.981429 8.45415e-06 1.86272e-23)
(1.0092 0.0145711 0)
(0.988467 0.000955706 -2.70895e-21)
(0.987989 0.00118713 2.19811e-22)
(1.09227 0.0878279 1.30781e-20)
(0.992924 0.000181178 0)
(1.03134 0.0014639 0)
(0.422281 0.0637367 -1.41743e-20)
(0.42139 0.0709535 7.03369e-21)
(1.01873 0.0624817 -1.15357e-22)
(0.91457 -0.102716 -2.69094e-22)
(0.232131 0.023999 2.56952e-20)
(1.00902 0.00783763 0)
(1.04887 0.0564889 0)
(0.197951 0.0278001 8.35161e-21)
(1.03517 0.0369984 0)
(1.07134 0.0145601 0)
(0.436176 0.0792825 -1.25867e-20)
(0.993797 0.00126871 -5.04267e-21)
(1.10809 0.108687 3.11256e-20)
(0.827295 0.103398 -8.15156e-21)
(1.07982 0.0684924 3.16773e-20)
(0.991603 0.00393989 4.87458e-22)
(1.02502 0.00386502 6.3246e-21)
(1.01861 0.0143794 2.95928e-22)
(1.02675 0.0283912 0)
(1.07414 0.107935 -6.88893e-22)
(1.01763 0.0141367 1.7471e-22)
(1.02192 0.0303421 3.08024e-21)
(0.866178 -0.00819144 -7.00689e-22)
(0.731196 0.000733961 -5.72007e-22)
(1.04629 0.0738314 -5.02336e-21)
(1.09323 0.0892466 -4.58143e-20)
(0.989803 0.00132452 -6.92367e-22)
(0.723616 0.100377 0)
(1.02484 -0.0249649 0)
(1.0413 0.0563983 0)
(0.112664 0.0300399 0)
(0.299914 0.0583707 -2.31188e-21)
(1.00983 0.00772564 2.54391e-21)
(1.13843 0.0826746 0)
(0.0383801 0.00799385 6.64531e-20)
(0.996525 0.000869589 2.34702e-22)
(1.04163 0.0433668 0)
(1.03884 0.040073 -1.83542e-20)
(1.04512 0.0283638 -1.29488e-20)
(0.943321 0.110999 1.81317e-20)
(0.726004 0.100506 0)
(1.09304 0.0847178 -2.66127e-20)
(1.01033 0.0140909 1.10291e-22)
(0.993987 0.000480471 4.10593e-22)
(1.04271 0.0200229 1.35931e-20)
(0.981 -4.15586e-05 2.31447e-22)
(0.986104 0.000237865 1.41168e-21)
(1.06605 0.0252661 -2.46815e-20)
(1.01917 0.0230967 1.46813e-22)
(0.5062 -0.00255538 2.6079e-21)
(-0.0569467 -0.00045588 0)
(1.00686 0.0097659 0)
(-0.033575 0.0284911 0)
(0.556592 0.0116592 -3.47868e-21)
(0.215471 0.0664556 0)
(1.08319 0.0691702 0)
(1.00181 0.00205553 -3.18576e-22)
(0.346918 0.0643333 4.72254e-21)
(0.781319 0.101 3.22447e-20)
(-0.0701334 0.0111026 -1.82355e-20)
(1.04083 0.0515736 3.10167e-22)
(1.08519 0.0253583 -2.21043e-20)
(1.05959 0.0959107 0)
(0.382879 0.058189 0)
(1.05897 0.0544125 1.58018e-20)
(0.983855 -6.87074e-05 7.09186e-24)
(1.02616 0.0274363 0)
(0.984298 1.83666e-05 0)
(0.917113 0.111381 0)
(1.0553 0.0768919 1.52865e-20)
(1.01516 0.0223203 2.11684e-21)
(1.02872 0.0470199 3.27172e-21)