/*--------------------------------*- C++ -*----------------------------------*\
| =========                 |                                                 |
| \\      /  F ield         | OpenFOAM: The Open Source CFD Toolbox           |
|  \\    /   O peration     | Version:  v2012                                 |
|   \\  /    A nd           | Website:  www.openfoam.com                      |
|    \\/     M anipulation  |                                                 |
\*---------------------------------------------------------------------------*/
FoamFile
{
    version     2.0;
    format      ascii;
    class       volScalarField;
    location    "100";
    object      ddt0(omega);
}
// * * * * * * * * * * * * * * * * * * * * * * * * * * * * * * * * * * * * * //

dimensions      [0 0 -2 0 0 0 0];


internalField   nonuniform List<scalar> 
15335
(
-0.000540379
-0.000146589
-0.00255578
9.88945e-07
1.12119e-05
3.85906e-07
0.000123659
5.70669e-06
-2.74149e-06
1.93283e-06
3.3896e-06
7.23217e-07
-0.000573467
7.60363e-05
3.32175e-05
-3.97445e-06
-0.000656866
0.000565178
7.36028e-07
1.86055e-05
-2.71926e-06
-0.00225255
2.49185e-05
-3.28999e-06
-0.00144864
-0.000894265
0.000161929
9.86094e-07
3.9406e-05
0.0786962
-7.50937e-07
0.000165046
-1.15624e-05
-2.81025e-05
0.000111771
2.21052e-05
1.90908e-06
-7.72668e-05
7.04623e-05
0.000499456
2.87813e-07
0.00431693
-1.10526e-06
-3.60603e-05
0.0226278
1.0026e-06
2.07221e-05
-4.89525e-06
4.98839e-05
4.97199e-06
-3.7048e-06
-4.19926e-07
2.68521e-06
6.73392e-05
0.00028622
0.00897809
0.000207266
-0.00117602
-9.22957e-05
-0.00380132
-0.00125674
1.4578e-05
2.72365e-06
-3.69708e-06
1.07841e-05
-5.33669e-05
0.0346201
9.56874e-07
3.93336e-05
5.2356e-07
0.00017767
2.43791e-05
2.31407e-06
0.0163158
4.58918e-06
0.159467
7.87426e-05
-1.71213e-05
1.23375e-06
8.29555e-05
-0.00079732
3.29215e-05
3.55095e-05
9.29258e-05
2.3153e-05
-0.00343779
-4.44146e-06
0.000147819
4.06475e-07
0.000101813
-0.000207691
0.000503331
-0.0111009
0.0132905
1.73721e-05
9.18341e-05
6.98927e-07
-0.000119382
-4.97325e-07
-0.000200371
5.15268e-08
-1.27218e-05
-4.31249e-05
-3.95021e-06
-4.1511e-06
1.07491e-06
0.00646667
6.16651e-06
0.000291344
6.74628e-05
-2.51173e-05
1.06186e-05
0.0236659
2.0502e-06
2.87635e-06
1.34124e-06
6.58009e-05
-1.80163e-07
0.0518906
0.00284134
-1.01202e-05
9.68444e-05
-0.00460277
7.44667e-07
7.31317e-05
1.76414e-06
6.03583e-07
0.0101415
8.34514e-05
0.000466696
1.95581e-06
0.00010121
-1.7602e-06
-0.000540499
3.10754e-06
-0.0299026
2.68607e-06
1.13961e-06
8.38285e-05
-2.28302e-05
3.17717e-06
-0.07202
4.60475e-07
-0.000929111
-0.0027923
4.20454e-06
0.170173
-0.00269108
1.76305e-06
-0.000675705
-2.79294e-06
0.0614209
-1.19597e-06
1.44524e-05
0.00099442
2.74238e-06
9.29918e-05
6.72972e-06
9.64904e-08
1.45495e-05
1.14321e-06
-0.00020222
2.31062e-06
-1.75409e-05
4.95497e-05
8.55673e-07
-3.95998e-07
0.056954
-3.20464e-07
4.10188e-07
6.99068e-06
1.51618e-06
3.39807e-06
2.48062e-06
4.45996e-05
1.12228e-05
-0.000732354
2.97994e-07
9.905e-05
-4.95349e-05
3.25095e-06
0.0837493
7.01055e-06
1.24363e-05
1.24513e-05
0.000196071
8.74182e-05
0.0830027
2.30678e-06
0.009233
-1.77014e-06
2.1207e-05
5.14975e-05
3.5001e-07
1.98481e-06
0.0459874
3.23254e-06
1.76708e-05
9.8227e-05
0.00103996
-0.0753752
4.27683e-05
1.34295e-06
9.54314e-05
-6.81669e-05
-0.00251924
-0.00436885
6.04661e-07
0.000155417
-0.00052715
-0.00079075
0.000654905
3.86597e-07
-0.000709852
0.000822794
3.27599e-05
5.67114e-06
6.08383e-05
4.67293e-06
0.00454919
1.18586e-05
-0.00013924
0.00147965
9.45039e-05
1.07333e-05
-0.00356826
0.000110888
3.70344e-06
9.35562e-05
0.000146536
-3.64505e-05
0.000272653
-8.61053e-05
2.60416e-05
2.48176e-06
5.66772e-06
1.73977e-06
-0.00476026
0.00199687
6.74714e-06
-0.000543534
9.1735e-07
-0.000195053
7.02159e-06
-0.000364932
1.58193e-05
0.0104132
3.3242e-05
0.00226195
0.0157789
1.37292e-05
-4.41389e-06
-0.00179864
0.000187601
-6.49032e-07
-0.000756367
4.18731e-06
-7.92411e-06
0.00153281
-1.00716e-06
0.0112807
0.00401434
0.00192358
0.00111966
0.00140285
-0.00636674
0.000784701
7.09596e-07
-0.00148825
3.08972e-06
3.84238e-05
-7.11053e-07
-0.000539514
6.18981e-06
5.23951e-06
-0.000156591
-0.00281179
-0.000267394
1.88746e-06
-0.000229379
7.43574e-07
6.71284e-07
5.28492e-06
1.72531e-06
4.9112e-05
1.72782e-06
1.78576e-05
8.69267e-07
0.000393407
1.5486e-05
-0.000443375
7.77689e-06
-5.33092e-07
1.56673e-06
-0.00116046
1.64774e-05
6.43509e-06
-2.64499e-07
2.92776e-06
5.56861e-06
0.152373
7.89674e-05
-0.236365
0.0851147
0.00210314
6.3982e-07
8.14957e-07
0.207801
-0.00483888
0.000105682
-0.0040654
7.26598e-06
0.000284813
-0.000731915
1.08076e-06
0.000936424
-1.47614e-05
-1.2827e-05
3.12812e-06
9.69715e-06
8.32167e-07
5.8327e-06
0.149425
0.0016183
1.69613e-05
-0.00848155
0.000431677
-1.13488e-05
-1.24661e-05
5.80676e-05
5.47189e-07
0.109313
-0.00117026
0.000450548
6.15852e-05
1.41972e-06
2.21727e-06
1.27348e-05
5.42363e-05
0.00835911
2.22054e-05
6.64191e-05
0.000117188
3.16992e-05
-2.60886e-05
0.00999378
8.51035e-05
0.00241967
7.53587e-06
8.13705e-06
-0.000210574
-1.23255e-05
3.01094e-06
-0.09659
0.120846
7.95793e-06
-8.01551e-05
-1.43023e-05
1.52923e-06
-0.0264979
4.41503e-07
4.68901e-07
1.70916e-05
4.24234e-07
-0.00242767
-0.000270226
4.48446e-06
3.38878e-06
5.09081e-05
5.10023e-07
3.10535e-05
-2.30137e-07
2.41315e-05
2.01408e-06
1.62517e-07
1.33654e-06
-1.75399e-06
-1.3059e-06
6.68832e-07
0.00158261
0.00145712
7.19251e-05
-0.00142782
-0.000168058
-0.00278128
3.28944e-05
4.53608e-07
0.00095598
1.42163e-06
1.55788e-06
3.26446e-06
1.87765e-05
-6.18297e-07
7.98553e-06
0.0111773
1.22297e-05
1.32794e-06
-1.21132e-06
6.46328e-07
0.0010806
3.41281e-05
-0.0297524
0.000161332
-1.21579e-06
6.15565e-07
7.06802e-05
4.42375e-07
2.72006e-06
0.000440796
1.27162e-06
-1.46722e-06
1.4975e-06
3.97131e-06
6.25922e-06
8.80228e-05
1.32111e-06
5.27241e-07
1.53435e-05
2.18224e-06
-2.84498e-05
8.18991e-05
9.41661e-07
0.00107797
6.58037e-07
1.73119e-05
0.0102268
7.71726e-07
2.24045e-06
1.55174e-06
0.0016195
0.00743384
-0.000979841
-1.07961e-05
-0.0147551
-1.11277e-06
4.14069e-07
0.000443836
8.07533e-05
9.51158e-07
3.8445e-05
-5.08803e-07
1.89341e-06
1.53316e-06
-0.000476504
8.08636e-06
0.00149428
4.26805e-05
7.78539e-07
1.55678e-05
0.00128832
-0.00109234
0.000690265
6.67955e-07
0.00452468
1.77509e-06
7.20792e-06
3.80602e-05
-0.0027825
0.000201457
1.75823e-06
6.91204e-06
2.09335e-05
0.000211202
7.16267e-06
0.00011946
0.00159297
2.12309e-05
0.000353126
8.03949e-06
5.75486e-06
1.11166e-06
-0.00014816
7.81285e-06
0.00342679
1.53675e-06
8.90614e-07
7.03584e-07
6.33157e-06
0.00264554
1.24423e-06
-6.41659e-07
3.24799e-06
3.65781e-06
5.18432e-07
1.2924e-06
0.00154683
9.52502e-06
1.94724e-06
1.01988e-06
6.49419e-06
0.104594
0.132202
6.48736e-07
-2.11603e-06
-0.00024569
0.00150753
0.00011466
3.19632e-05
3.79286e-05
0.000105605
0.000145455
-0.00608865
9.52527e-07
7.87351e-05
1.35419e-06
1.32035e-05
3.00902e-05
0.000123933
4.82986e-07
3.17312e-06
9.59281e-06
3.5795e-05
0.00470531
-3.12668e-05
0.000476326
-1.44699e-06
1.39679e-06
-2.60848e-06
6.45126e-05
0.0010152
-0.000247844
-0.00531565
7.55224e-06
3.28213e-07
-0.0196909
-8.96427e-06
0.00371538
8.00415e-06
-5.52575e-07
8.93441e-07
4.1839e-06
7.10463e-05
-0.000519737
-7.38947e-06
0.000132706
3.16994e-05
-0.0285119
-0.00187412
-4.73816e-06
6.14228e-06
-0.000530176
8.40387e-05
4.26069e-07
-0.00478415
6.4658e-07
0.00167338
-0.000260724
2.90566e-06
8.15341e-05
4.35748e-05
5.82082e-05
1.36301e-06
1.16599e-06
-2.54055e-07
-0.000947324
-0.00682969
4.63509e-07
1.1727e-05
8.48279e-07
-0.00261167
4.2788e-05
1.57448e-06
3.44881e-05
8.2e-07
-0.292617
5.24664e-06
3.24538e-05
1.85373e-05
7.57687e-05
-0.00185026
0.000157259
5.8465e-07
-3.11536e-08
7.19441e-05
2.43591e-06
-1.41006e-07
1.42884e-06
4.26768e-06
1.15326e-06
0.000984468
0.0018226
-0.00284434
6.03976e-05
3.89447e-05
3.84927e-05
0.00992717
0.00100032
2.09113e-05
2.2757e-05
-6.20027e-08
2.04452e-06
1.55177e-05
-0.262884
8.21615e-06
4.46628e-07
-0.0386961
4.12275e-05
0.0182244
8.39262e-07
-0.00228242
1.41044e-05
3.13543e-05
-2.01771e-05
0.000974019
4.56814e-05
4.72237e-07
7.4785e-05
2.51432e-06
-0.0603264
5.98895e-05
-0.047878
-0.0614993
0.00982128
1.06625e-06
3.40029e-06
0.000146617
6.50806e-05
0.0222326
5.21294e-06
9.30863e-07
-6.77471e-07
1.96454e-06
9.00577e-07
6.97462e-06
0.000114997
1.63511e-06
-4.67404e-07
-9.07768e-07
0.000115574
2.59748e-05
3.1892e-06
0.000255781
9.11998e-07
1.38367e-05
6.29086e-05
5.6805e-05
0.000448501
1.11541e-06
-2.51174e-06
2.98786e-05
8.43876e-05
7.40398e-07
1.09996e-06
-0.0042748
7.85399e-07
0.00017469
6.32569e-05
-2.1217e-06
7.41905e-06
-0.000130874
0.0126873
8.22647e-07
2.87634e-07
8.28452e-07
0.00106539
-5.66273e-07
0.0119329
1.49685e-06
6.909e-06
2.45654e-06
1.44529e-06
3.5552e-05
0.000106107
-0.375242
1.03177e-06
0.0371907
3.04204e-06
1.56331e-06
-0.188382
1.35302e-06
-0.000191841
8.07969e-06
1.67022e-05
4.55871e-07
7.03696e-05
1.87534e-09
9.91115e-07
6.18483e-07
5.05043e-06
-0.00138695
9.2104e-07
-0.0691555
-1.76566e-05
-3.40857e-06
-0.049745
-0.000420673
0.000124326
8.4129e-07
7.42676e-06
6.04367e-07
0.000901228
7.82347e-05
6.3929e-07
1.35298e-05
-1.06583e-06
0.000834141
0.0356354
1.29007e-06
8.72886e-06
-0.00488068
1.99983e-06
0.000761454
0.00699719
6.56824e-06
-4.66747e-07
-0.00424246
-0.000239943
3.9309e-05
2.97894e-05
0.0516799
4.24113e-07
3.39492e-06
0.144343
1.20082e-06
8.25478e-06
-0.000412816
-0.000892537
0.000575434
1.41825e-05
1.92908e-06
-4.4381e-06
1.31048e-06
1.51873e-06
6.9361e-06
3.57027e-05
2.84846e-05
-0.0193819
-0.00158261
3.41383e-05
0.00525895
-0.00079931
8.44015e-05
3.08519e-07
5.20272e-07
5.34585e-07
3.08357e-06
-2.29572e-06
8.22014e-06
5.47479e-07
2.14013e-05
4.45673e-05
1.39519e-07
-0.0050251
0.000270738
5.3989e-07
8.56119e-05
6.55308e-07
8.15033e-05
2.14993e-05
0.000119146
5.81155e-07
4.8878e-05
3.15215e-06
2.9745e-05
3.04332e-06
2.26951e-05
-0.0047865
-0.0013043
5.86267e-05
0.00193861
-1.99173e-05
0.000275404
1.18265e-06
0.00726701
-2.97482e-06
-0.000714164
6.36635e-07
2.91755e-08
1.81393e-05
-0.00501766
5.2164e-05
6.47997e-07
-0.00106745
7.27556e-05
-0.000403804
1.34729e-05
3.08414e-05
-0.000307575
6.2404e-07
0.184919
0.000361152
9.46837e-07
4.44055e-07
1.93067e-06
0.000183065
6.89703e-06
2.96096e-07
4.04885e-05
0.000125436
1.71614e-05
0.021347
0.0232449
6.49117e-07
0.000889385
1.53998e-06
-7.66015e-05
-2.22162e-05
1.4529e-06
0.000569405
1.02585e-05
6.45157e-05
2.77297e-05
1.97125e-06
1.76747e-06
0.0810009
1.62194e-06
1.91131e-05
3.52476e-06
-0.000136243
0.0363739
3.53149e-05
0.00349678
9.76925e-05
1.26429e-05
2.5933e-06
-0.000184642
6.23837e-07
6.44495e-06
1.45727e-06
7.727e-05
2.48363e-06
0.000248043
2.88709e-07
0.000112229
1.64863e-06
5.96884e-06
7.0054e-07
7.12957e-05
0.000891916
8.21951e-06
0.000233649
-0.10894
0.00820299
4.5386e-05
0.027469
-5.96422e-07
-3.46489e-07
1.27959e-06
-3.50458e-07
5.27998e-06
8.90416e-05
1.25431e-06
3.96388e-05
-3.21917e-07
8.30953e-07
3.9727e-07
-3.94148e-06
0.000480924
-1.90414e-05
0.000970696
6.31445e-07
1.42023e-06
7.11568e-07
1.73895e-05
7.68096e-06
7.9705e-07
4.97834e-06
0.00501688
1.61886e-06
-0.000640677
4.13758e-07
4.49356e-07
-0.00765836
7.89398e-07
0.000163649
-0.0232064
0.00500003
-0.000306649
1.66635e-06
7.54806e-05
0.000122655
6.29798e-05
5.80539e-06
4.11165e-07
0.000265977
-0.00158787
8.67709e-07
3.49786e-06
1.33802e-06
-0.17034
-1.24868e-05
0.0823221
9.45237e-06
1.25064e-07
1.513e-06
9.3292e-07
-0.000256274
6.09515e-07
8.05117e-06
0.0832171
1.51171e-06
6.9568e-05
6.59744e-07
-5.03349e-06
-1.33701e-05
1.01019e-05
0.0015926
1.40017e-06
0.00100328
-0.0800494
4.17049e-07
-0.0141667
1.6689e-06
1.49635e-06
0.000135083
3.46462e-06
5.46735e-05
1.28368e-06
-0.00344121
7.57619e-07
4.23355e-05
-4.3077e-06
-0.000377236
4.73164e-06
5.66817e-06
-1.81424e-05
6.01489e-05
3.19704e-07
0.000114524
-1.02045e-05
1.31835e-06
7.66397e-07
-2.60248e-05
0.233447
-0.00405131
1.37724e-06
0.000707676
-0.00289984
3.71834e-05
0.0908115
-0.0139945
0.00117145
8.97272e-05
0.153902
-0.0192883
6.48985e-07
8.14275e-07
3.49014e-05
5.63779e-07
-1.8082e-07
7.74916e-05
7.14591e-05
-0.000383978
-1.08334e-06
0.000924665
2.87248e-06
0.000121979
-0.000102962
3.14661e-05
3.08349e-07
-0.000243511
8.08303e-06
3.49005e-06
0.0193124
7.82223e-06
2.60271e-06
6.77028e-07
0.000996886
-1.80416e-06
0.00210727
7.56629e-07
7.59562e-05
0.000259977
-1.91797e-08
0.000974608
-1.56123e-07
-7.40999e-05
6.06322e-05
-1.28674e-06
-0.00045916
3.21843e-06
7.55846e-05
-3.2555e-06
1.62572e-05
0.00317721
0.000461132
-8.78122e-06
-0.00162435
0.000368064
-2.73522e-06
0.0440925
-2.62402e-05
-1.565e-05
-0.000174295
-0.0110449
3.34383e-07
-0.0460493
9.74182e-05
6.2127e-05
1.65231e-05
1.98443e-06
1.58323e-05
1.00062e-06
-0.172724
3.87921e-07
-0.000170928
-7.68129e-06
6.69044e-07
7.72397e-06
1.58344e-05
0.0544411
-0.0239712
1.35362e-06
8.27438e-05
-9.63109e-05
0.00198823
5.7705e-06
3.41021e-06
0.000128079
1.5068e-06
1.00727e-06
2.70552e-06
-6.54949e-07
1.62179e-06
-3.7687e-05
-4.69987e-06
-0.000417925
3.52905e-06
-3.92173e-05
-0.00058976
1.19021e-06
6.98902e-07
1.702e-06
3.12662e-06
-0.001656
-2.93591e-07
6.31281e-07
0.00136512
0.00566899
-4.36723e-07
-0.0002988
2.44324e-06
-0.13549
6.56492e-05
-0.00330003
-0.00150193
1.52643e-06
-0.0283883
2.04241e-06
0.000391195
7.79558e-07
7.96847e-05
1.4354e-06
0.00011061
0.000110042
1.47087e-06
-0.0096281
-0.0480397
-0.00367206
-0.000488342
0.00189407
3.81004e-06
-1.85138e-06
0.000250776
2.35384e-06
-0.397805
-0.0133103
-1.4582e-06
-0.000302213
3.16162e-06
4.29032e-07
4.23387e-07
1.08102e-05
8.45619e-07
0.000152251
-0.081539
5.48291e-06
7.76234e-07
1.08269e-05
0.00111194
2.81977e-06
8.11754e-07
0.000248556
4.43976e-06
0.0292404
-0.000942981
0.000131509
0.000187231
2.00227e-06
0.00290379
9.07893e-06
2.91827e-06
0.00199412
0.0124748
3.44618e-06
1.32797e-05
-8.87856e-05
6.40941e-06
0.0262005
5.04205e-05
7.22222e-07
0.0187785
0.00048367
6.00681e-05
-3.55566e-07
0.00135422
-0.00184836
8.37056e-06
8.35856e-06
4.09863e-07
-2.79065e-06
-9.11883e-06
4.18568e-07
-2.12999e-06
0.000617551
1.76617e-06
1.40301e-06
-3.41941e-05
6.29611e-07
0.00116118
5.99079e-07
4.23344e-07
-8.30216e-06
2.78568e-06
8.42335e-05
7.06947e-05
6.21273e-06
2.49917e-06
0.000101743
-4.40851e-06
1.26827e-06
1.48172e-06
6.67727e-06
-0.381539
0.288492
-1.75621e-06
-5.80449e-08
0.053348
6.96394e-05
5.68701e-07
-1.14329e-06
-4.84295e-07
5.7176e-07
2.98933e-05
-2.83052e-05
3.7406e-07
-4.16991e-06
3.30536e-06
-0.0150117
7.42707e-05
-6.72581e-06
-7.02663e-06
0.0214835
9.52204e-06
0.000169986
8.13273e-05
0.0528264
6.99034e-05
0.00116962
-1.46842e-05
-0.000439317
-0.417958
0.000438689
-9.10763e-05
-0.00101101
4.74393e-06
0.00173536
5.65609e-06
-0.000461329
-0.000926532
0.00368394
-0.114686
-6.25945e-06
0.136049
1.43662e-06
1.12308e-06
5.14984e-05
0.00224637
-4.67185e-05
0.000244456
1.08017e-06
1.14999e-06
6.16036e-06
1.92835e-06
8.7528e-06
-9.48147e-06
-0.0081453
-7.04199e-06
3.29057e-05
-0.0609353
8.2577e-07
3.57247e-05
1.79602e-06
3.74941e-05
1.7438e-06
8.42498e-06
-2.33982e-05
1.72617e-06
3.37486e-06
1.67487e-06
1.54157e-06
-9.9706e-06
0.000131156
6.82313e-07
6.89063e-05
-0.00896659
0.00139104
-0.250492
-0.000353658
7.02155e-07
0.000164564
0.00657878
0.344928
-8.92442e-07
-5.99557e-06
5.47237e-07
-0.221272
1.68114e-06
1.64237e-06
-0.00926833
0.000108327
0.0240976
-0.000846028
0.000869691
0.0115246
7.60093e-07
2.18021e-06
-0.0499017
-0.00147279
6.14874e-07
7.53165e-07
1.12676e-06
-0.00442815
2.89472e-06
-0.000956985
0.0141797
-4.15281e-05
-0.000512886
6.1166e-05
1.67944e-05
-0.000441429
0.00188175
0.213951
1.64136e-06
-0.00409812
7.78759e-07
0.0246897
-1.18028e-05
8.2588e-07
7.91061e-07
-3.66866e-06
0.000751713
1.2974e-06
0.00111533
0.000134362
0.056924
1.41994e-06
1.70578e-05
3.40341e-05
0.00136613
0.000239124
2.67927e-05
0.000620093
-0.00588437
-1.79094e-07
-4.22875e-05
6.41735e-05
1.15087e-05
0.000157244
0.000110436
1.34005e-06
6.41334e-05
0.0158765
-8.25909e-07
1.27078e-06
-0.0139556
-0.00145985
2.68846e-05
-3.95746e-06
-2.17813e-05
0.00181135
3.36695e-06
-0.0087437
-2.60691e-06
7.21664e-05
-1.72313e-05
0.00187449
0.0574515
1.73671e-06
1.71744e-05
4.60297e-07
2.97877e-05
7.29787e-06
3.71436e-05
4.29381e-06
1.76225e-06
-0.000945421
5.01704e-05
5.95299e-05
3.79213e-06
5.08209e-06
-2.4404e-05
-0.00415388
-0.000339062
5.75944e-05
0.198292
0.0443879
0.00778635
6.29909e-06
0.000326627
0.00513334
-3.76163e-05
-0.044726
0.000319251
0.0040792
2.83047e-07
1.25177e-06
-0.00828688
0.00011009
4.07558e-07
1.00442e-05
7.53708e-07
4.80384e-05
0.00191869
3.93944e-05
0.00190531
-0.0750725
7.40417e-07
1.60994e-06
1.17363e-06
7.25048e-08
5.14042e-07
7.6858e-06
-0.000822347
6.86496e-07
2.59937e-06
0.00015589
0.00834839
-4.36632e-06
0.00049413
1.17382e-06
9.06061e-09
-7.29788e-06
6.6423e-07
-3.20557e-05
5.14388e-06
3.73118e-06
0.00207845
0.0120925
6.12842e-05
-0.00104038
-0.816612
-0.00120525
8.05944e-07
-0.00257475
5.13536e-05
1.03221e-06
1.39711e-05
-0.0446104
0.00502331
-0.0126983
-0.185313
-0.000875498
1.20293e-06
-0.00558953
3.06876e-05
0.0104331
-0.000561026
1.12366e-06
-0.0730187
1.50531e-05
8.55654e-07
1.63654e-06
-2.4855e-05
0.000782043
-2.40569e-05
2.75099e-05
-2.98678e-06
-0.00192265
6.56531e-07
0.000405764
6.54372e-07
0.00239557
-9.97247e-05
7.01038e-05
7.40409e-06
9.53398e-06
-3.43968e-05
0.000612747
0.000108246
4.04746e-07
4.8035e-07
-0.0171164
6.15308e-05
0.000690071
7.56557e-05
0.00123811
6.82313e-06
1.23587e-05
7.77359e-07
2.27659e-06
1.86388e-05
7.4697e-07
9.37227e-07
-0.00172051
8.55969e-07
4.40294e-07
-0.00229468
0.0150644
1.49385e-06
1.00866e-06
0.0184181
-0.277413
2.2599e-06
0.000108948
-0.0333314
6.17375e-06
8.9088e-07
0.000648467
3.58546e-06
0.000213742
0.203793
9.23361e-07
1.30543e-05
-0.00193128
1.31553e-06
2.02626e-06
3.23903e-05
0.000100759
7.49378e-07
0.00202736
0.00234964
3.52368e-05
5.54693e-06
0.000136988
-0.245661
-8.16778e-07
7.18157e-07
9.87907e-07
6.83799e-06
-0.000910946
-0.0243292
0.0237546
0.0015374
-0.000794961
4.34198e-06
1.19184e-05
-7.90722e-05
-3.00863e-05
2.71099e-05
5.97735e-05
1.86337e-05
-3.70646e-06
5.80427e-05
-0.00125618
2.45832e-05
0.00184487
-0.00686727
0.000422186
0.129626
4.15743e-06
6.27885e-06
-0.000497869
-0.00373376
0.00185826
0.000293168
4.41039e-06
0.000581345
0.00124006
5.20369e-05
-1.96722e-05
-0.00451696
1.91938e-05
-0.000378573
2.11463e-06
5.22724e-05
1.71518e-05
7.87505e-05
1.38631e-06
-0.00470029
1.03751e-05
4.09311e-07
1.95513e-06
-0.00344187
0.0351533
1.08815e-05
5.39719e-05
-0.0431005
0.000556236
1.5091e-06
2.18425e-05
2.7104e-05
0.000608524
2.09449e-06
1.54242e-06
2.20682e-06
2.74269e-06
-0.0220407
7.9153e-06
0.000156046
1.04239e-06
3.17441e-06
0.00289856
4.98525e-07
1.75795e-06
5.37194e-05
9.64969e-06
1.38938e-06
1.13236e-06
4.53747e-06
5.42771e-05
0.00400434
1.77296e-05
6.6559e-05
3.89389e-06
4.04974e-07
2.4108e-06
2.38113e-06
0.00793162
5.48484e-06
-0.000609405
5.61989e-06
1.71566e-06
6.11847e-05
1.58023e-06
8.11244e-06
4.53547e-06
3.56621e-07
6.04991e-07
8.42061e-07
-0.00035746
1.18382e-06
2.98378e-05
2.24123e-06
0.00471306
-0.00684051
-0.0157986
1.23154e-06
0.0107521
4.71734e-05
3.43507e-05
4.12278e-07
5.00828e-07
-0.0173467
5.22343e-05
1.75671e-06
7.82782e-05
-0.000487615
1.82587e-05
0.00146846
-9.43398e-05
0.0156404
0.0227575
1.48703e-06
4.13619e-07
1.83166e-06
0.000651668
8.10805e-07
9.36164e-07
-6.65728e-06
0.184621
-0.00284297
0.000335656
3.31808e-06
-1.72163e-05
-0.00117172
0.000539921
0.041342
-0.30948
-0.156166
-0.000405281
-0.00149374
-0.000728464
2.61592e-05
-0.0076938
6.93898e-06
1.48788e-06
-0.00018686
-0.0242047
-0.00895486
-0.000896896
5.88965e-07
2.65301e-06
3.15788e-06
0.000667708
0.000299886
1.19697e-05
4.99439e-05
-0.00135199
8.0773e-05
1.52228e-05
4.58696e-07
0.000272464
-0.00605128
-8.57426e-05
7.70392e-06
8.37976e-06
0.000103133
0.000103945
8.35276e-06
1.67859e-06
5.0299e-07
1.79247e-06
-1.52368e-06
-0.00179119
0.00010412
1.3209e-06
6.46546e-05
1.73578e-06
-4.1937e-06
3.57296e-06
7.1591e-07
3.83744e-07
6.84296e-05
5.02734e-05
4.05775e-05
1.3334e-06
0.000122841
2.96649e-07
7.86981e-07
9.41512e-07
4.93695e-07
-3.16386e-06
1.74937e-06
-0.00174094
1.11208e-06
0.0607268
-0.0228042
0.000125679
2.2227e-05
4.01129e-07
-0.00619184
0.0151707
2.14317e-06
-0.00325118
-9.85967e-06
0.00181343
8.71627e-07
0.0439596
5.396e-05
5.68058e-07
-0.0737786
5.33866e-06
-0.00154369
4.1886e-07
3.88185e-07
9.02523e-07
7.35118e-05
2.91145e-06
1.51156e-06
-0.000551472
1.4794e-05
8.06506e-07
1.11916e-06
0.0420592
6.19283e-07
0.00111128
7.00226e-06
-0.0160959
8.79786e-05
0.000391113
0.012953
1.89291e-06
8.32149e-07
1.32951e-06
3.07756e-06
0.000542706
-0.00262785
7.47214e-06
9.82283e-07
0.325372
4.61932e-06
2.80161e-06
-4.11364e-06
0.00747458
3.24881e-06
0.000217361
-0.000376685
3.55771e-06
-0.00102319
-0.0153431
7.58545e-05
0.000126658
5.29986e-05
-0.0288977
0.00478308
-0.000409911
0.0509976
4.32937e-06
4.76485e-05
0.118721
1.21593e-05
1.57634e-06
1.77959e-06
0.0603262
-0.0205081
-0.00668888
-3.19346e-05
1.47085e-06
0.0010541
5.67104e-06
0.00125919
2.97505e-07
0.00087662
7.26083e-05
1.65817e-06
1.27796e-06
0.00453036
1.341e-05
0.0582056
-1.50855e-05
1.24597e-05
1.12276e-05
0.000848297
9.47743e-07
1.44832e-05
0.000324465
-0.03272
0.0043746
0.00174315
7.79458e-07
0.0617808
4.52407e-07
8.87984e-06
4.68375e-06
-0.00571222
-0.000224532
4.90976e-05
1.61492e-06
1.45034e-06
8.98348e-05
-0.000574362
0.0011807
-5.3367e-05
0.000594469
-0.0045043
1.28087e-06
4.33909e-07
4.20531e-07
0.000126082
-0.000526299
2.4727e-06
1.67525e-06
0.00240833
1.42034e-06
-0.0010846
-0.00188765
1.09309e-05
-2.06488e-07
0.00103656
3.19552e-05
0.00126586
9.04233e-05
5.74529e-07
1.34793e-06
7.7177e-07
6.31543e-05
-0.000342984
0.000635752
2.25765e-06
-0.197292
3.89118e-07
1.10564e-05
0.000245021
8.02319e-05
1.76503e-06
6.65015e-05
-0.0330599
1.07066e-06
-1.04511e-05
0.000142081
1.32135e-06
0.000127736
0.000145791
3.66038e-07
-0.00516705
-5.17742e-05
1.57062e-06
5.65536e-07
3.87725e-07
3.72983e-07
4.5454e-05
0.000894409
1.61267e-06
3.7751e-07
1.19598e-05
-4.57531e-05
3.37762e-06
5.5375e-07
0.00484819
5.50366e-06
1.14198e-06
0.0324893
-0.000137116
-5.48452e-05
1.16718e-06
3.4766e-07
0.00010129
0.00286272
5.85279e-06
1.19013e-06
0.000159325
8.92445e-05
4.20513e-06
5.78997e-07
5.1213e-07
6.78559e-06
-5.87848e-06
2.70392e-06
1.31219e-06
3.23971e-05
2.51815e-06
1.9797e-06
-0.000496651
-0.0194056
-0.000719237
1.8042e-05
3.83108e-07
1.51091e-05
-0.00150266
-5.06361e-06
1.21641e-06
1.1288e-05
1.53659e-06
-0.00182989
-0.00014257
7.21708e-07
1.27e-06
5.68881e-07
0.125626
5.29644e-07
-7.32848e-07
0.0058398
-0.0133212
0.000417733
-1.4186e-07
-0.000719339
4.11361e-07
-0.000258314
4.6932e-07
-0.000320092
4.87831e-07
1.71429e-05
1.71213e-05
1.43228e-05
1.29613e-05
5.89468e-05
2.0936e-06
-0.000664858
1.2407e-05
0.000361635
1.65518e-06
1.28959e-05
-0.000523169
1.44454e-05
6.42172e-05
8.52962e-07
5.19076e-07
-3.81586e-07
2.5301e-05
3.82856e-05
-0.000416028
0.0279346
1.28142e-06
-2.94504e-06
-0.0667443
5.71733e-07
-0.000345216
0.000280192
8.61972e-05
-0.0435122
0.0200042
0.00289195
-1.23998e-07
-0.104976
2.84701e-05
0.00383177
2.11297e-05
8.95963e-05
0.0135346
2.22478e-06
-7.54785e-07
1.73442e-06
4.48396e-07
-0.02388
-0.00314213
2.75392e-05
-0.000383815
-4.46441e-06
1.03942e-06
0.0321339
0.00255365
8.43434e-07
1.01479e-05
9.40302e-07
9.25211e-07
2.44124e-05
-0.00359738
-0.00722375
1.35586e-06
0.000115413
1.88466e-06
9.44497e-07
7.1851e-05
8.95301e-06
1.3278e-05
0.0546621
1.62487e-05
-0.0082775
3.52882e-07
-1.96025e-06
5.15269e-06
-0.00014713
0.00153246
0.00138223
2.81313e-05
5.15309e-06
-2.00569e-06
4.51813e-06
8.48724e-05
1.93505e-06
1.23554e-05
5.59895e-05
0.000400204
0.000632916
-1.54258e-05
6.52829e-05
2.94588e-05
0.00341037
3.72801e-05
1.81093e-05
2.50594e-06
1.572e-05
6.93353e-05
0.017579
1.17713e-05
-0.0307171
0.000872042
5.56157e-06
8.13055e-05
1.659e-06
9.68035e-05
1.63698e-06
0.000142548
4.69722e-05
0.000378145
1.25975e-06
3.96575e-06
0.000651032
0.000138626
0.00136645
2.05221e-05
0.000246303
-0.0403851
1.61927e-06
4.46719e-07
0.000199311
6.60853e-05
-0.0439507
-0.0281097
-1.59948e-06
-0.00030339
1.80518e-05
-1.86819e-05
2.37745e-05
8.50631e-07
0.00413924
1.0169e-05
7.2661e-05
-0.000931741
6.0871e-05
0.00704074
-0.000223537
-0.00331384
0.000571557
7.59704e-07
9.77307e-07
6.3663e-07
-5.07158e-05
-0.000224674
0.000964936
0.00100002
0.00046051
-4.99209e-05
1.58979e-06
1.82434e-06
5.73902e-07
0.03632
0.0370823
8.39701e-06
0.00263971
-2.23962e-06
-2.30753e-05
1.69384e-06
2.66971e-06
-0.00173316
-0.0540273
2.07165e-06
0.000841856
1.17902e-05
6.45611e-06
3.24755e-06
6.93325e-06
0.000101233
-0.00705441
5.75349e-07
1.50062e-06
0.000203531
-0.00624156
0.0181371
3.49522e-07
2.52697e-06
6.54611e-05
2.23927e-07
4.34253e-05
-0.00409259
8.45738e-05
2.15537e-05
-0.0473238
-6.97989e-08
0.00410702
0.000294541
-4.84978e-05
5.89118e-07
5.78654e-06
-0.0153996
0.00020132
1.75302e-06
-4.75729e-07
6.00521e-07
-2.10204e-05
5.88914e-05
-1.97608e-06
1.321e-06
0.0379473
2.61921e-05
1.16039e-05
1.71999e-06
4.22178e-06
0.000402628
6.60981e-08
-0.0920392
8.19204e-05
6.06119e-05
-0.0016809
-0.222851
0.132318
2.50302e-05
0.00279969
0.0124069
5.67094e-05
-5.69712e-05
7.7893e-07
-0.00191577
3.55096e-07
-0.0105883
6.79769e-07
-0.0026338
1.50502e-06
0.000180176
-0.223752
8.00791e-05
6.88833e-07
0.000600346
0.00325974
-0.00357785
1.5544e-06
0.000111481
0.000216886
0.0015314
5.75618e-05
0.0313716
1.04854e-06
3.80502e-07
2.86433e-05
0.000215665
0.00287512
1.6699e-05
7.17587e-06
-0.011015
5.57592e-05
8.56606e-06
7.57947e-06
5.54848e-07
0.00126197
1.9875e-06
3.98819e-07
1.42847e-06
-0.00383345
0.00016889
-1.15666e-05
0.017617
-0.000781114
1.05636e-06
1.22736e-06
-1.50108e-05
1.84749e-06
-0.00729654
3.62422e-07
0.00046978
-0.0892898
6.22117e-07
1.46334e-05
0.0008952
6.51744e-05
9.55191e-07
6.6292e-07
0.00136028
1.42339e-07
3.18993e-07
7.37942e-05
-0.00170801
-1.2137e-05
-0.00832085
2.72784e-06
-0.00218507
7.80477e-06
-0.000463558
2.64325e-07
5.49841e-07
-0.00174497
3.28966e-05
3.19951e-06
0.00207699
-0.00236844
0.00143375
-0.0290483
-0.00200855
0.00207797
2.54623e-05
7.21454e-06
1.85892e-06
8.16983e-07
-0.00118228
-0.00247442
0.00495857
0.179934
-1.11522e-06
0.00105617
0.000304553
2.50243e-06
1.56066e-06
1.62599e-06
5.21727e-05
-0.10532
2.54517e-06
0.00746289
2.16581e-05
2.21334e-06
2.30899e-06
6.32471e-05
0.0752557
1.965e-05
4.89494e-06
-0.0339674
-0.0822793
0.000145086
-0.00124801
6.88266e-06
1.02397e-06
-0.005625
0.00473447
-0.00231672
1.61676e-07
5.29808e-07
-0.00024267
-3.1356e-07
3.96381e-05
0.000108307
-0.0472596
7.34655e-07
2.36851e-07
0.00166308
2.31664e-06
1.12433e-06
1.69759e-06
0.000169218
0.0382568
-0.0637352
-1.64282e-05
-0.000740766
4.61292e-05
-0.00587781
1.37203e-06
0.00830095
3.67977e-07
-1.85262e-05
3.09054e-05
0.0661486
1.50015e-06
1.32045e-06
5.256e-06
1.89803e-06
4.96378e-05
3.78119e-05
7.55394e-07
3.9606e-07
1.67348e-05
0.00483182
9.73763e-07
8.98885e-07
0.0640119
0.000834383
3.07438e-05
9.45116e-06
0.00148357
0.000168545
1.3694e-06
-0.028514
3.20276e-05
2.32033e-06
1.15327e-05
1.4426e-06
3.59507e-06
1.26767e-06
4.10577e-07
-0.000134502
9.87002e-07
-0.000442039
5.74213e-06
4.98313e-07
1.85372e-06
-0.0100033
0.00554513
6.41087e-05
3.57383e-06
0.0237727
1.50933e-06
2.11092e-05
2.03049e-06
1.1e-06
6.59154e-05
8.31123e-05
1.08601e-06
-0.000643388
8.33815e-06
0.000247159
1.25805e-06
-0.00798456
0.00105768
0.00141651
0.0148733
-3.33989e-07
0.000411308
0.00165969
0.000391054
5.90117e-05
0.00116769
-1.15129e-05
2.25371e-06
-0.000111946
1.57193e-06
2.49023e-06
5.75376e-07
2.84383e-05
5.37039e-07
1.38072e-06
0.0011868
5.84812e-05
5.77154e-05
6.51264e-07
7.02728e-05
7.3842e-06
6.03072e-07
2.52287e-06
4.59449e-07
1.84389e-06
1.52517e-06
1.83073e-06
7.27534e-05
0.00138735
1.63344e-07
0.000853859
0.00210889
3.08355e-07
-4.77737e-06
0.00106981
-0.00242153
7.35898e-07
3.90136e-07
0.001402
8.67018e-07
9.24114e-07
7.63065e-05
-3.01304e-06
3.0019e-07
3.38984e-07
1.1688e-06
-0.0624155
-0.00127763
2.52963e-06
1.25366e-06
7.29258e-07
1.5158e-06
0.00578673
1.50833e-06
5.82933e-07
4.17324e-06
0.00149534
0.0066117
1.96723e-06
0.000654215
0.00938536
3.84988e-06
-0.000903201
1.51181e-05
1.72862e-06
8.89745e-07
5.0638e-07
-0.000280734
4.21819e-06
-0.00982353
1.01046e-06
8.46723e-05
0.00964487
-0.0278338
-3.09291e-05
4.03717e-07
1.47944e-05
1.11332e-05
0.000199834
1.27283e-05
-6.5844e-05
8.25511e-06
0.00128295
1.45144e-06
6.16733e-06
3.71147e-05
-0.00561547
5.53208e-05
7.96858e-06
-1.79034e-05
0.00137467
7.28678e-05
0.00163492
7.12379e-07
1.65438e-06
2.63432e-07
-0.00416149
0.065062
2.21843e-05
3.6571e-05
0.000407383
-0.00240007
2.36401e-05
7.07336e-06
-0.003245
2.78015e-08
4.14493e-07
0.00636893
8.10336e-06
-0.110166
1.53568e-07
1.32851e-05
1.46059e-06
6.45615e-05
-0.0410951
7.11611e-05
0.00148228
0.1979
0.0145425
-0.000780118
4.38941e-06
2.77495e-05
1.05829e-06
-0.0336467
4.09774e-07
0.0249265
4.34644e-05
-0.00729022
7.65666e-05
0.228035
-0.195149
6.38942e-05
1.46793e-06
0.00345021
0.00216038
5.1278e-07
0.00102988
8.42517e-06
6.34762e-07
3.35654e-05
-0.000162967
8.30809e-07
0.103919
-0.043054
4.30868e-07
-0.00935967
6.42413e-05
0.0356863
5.88855e-06
0.00268944
-0.000988591
2.42125e-05
0.000117648
0.017956
8.99598e-05
5.60749e-05
-0.000529238
0.00189299
2.94355e-05
-0.0216027
0.00422926
0.00771714
0.000588084
-0.0325998
1.21911e-06
6.05492e-05
0.0134116
0.000366257
-0.00086295
1.45656e-06
4.62314e-06
-4.49525e-05
0.000639128
7.37852e-05
-0.00103619
0.0142831
1.94817e-05
0.0686208
3.76667e-05
1.01406e-05
5.7625e-05
0.000874375
1.47015e-06
-2.63523e-07
5.19001e-06
0.000941614
0.00041935
0.0342483
1.35907e-06
5.43986e-07
-0.0225552
1.78279e-06
-0.0451652
0.00159795
-3.87401e-07
4.94195e-06
2.04327e-05
4.66042e-07
7.64782e-05
6.42671e-07
-0.0425825
0.000426671
-0.113703
1.00056e-06
7.56188e-06
0.00162943
5.05828e-06
-1.69295e-06
4.144e-05
0.00327783
-8.20124e-05
0.000848243
0.00957741
0.0100558
3.55902e-05
-1.76508e-05
1.1089e-06
0.00195063
3.42015e-05
6.74403e-07
0.0558041
0.00109082
5.62579e-05
1.09563e-06
-0.00363756
-7.93127e-05
1.60817e-06
2.58804e-06
-3.81644e-07
-0.000888279
0.116329
5.6797e-05
7.73978e-05
0.000440096
-2.38417e-05
3.86332e-06
-0.0180568
-0.000461503
-0.00469855
-0.00945882