/*--------------------------------*- C++ -*----------------------------------*\
| =========                 |                                                 |
| \\      /  F ield         | OpenFOAM: The Open Source CFD Toolbox           |
|  \\    /   O peration     | Version:  v2012                                 |
|   \\  /    A nd           | Website:  www.openfoam.com                      |
|    \\/     M anipulation  |                                                 |
\*---------------------------------------------------------------------------*/
FoamFile
{
    version     2.0;
    format      ascii;
    class       volScalarField;
    location    "100";
    object      ddt0(k);
}
// * * * * * * * * * * * * * * * * * * * * * * * * * * * * * * * * * * * * * //

dimensions      [0 2 -3 0 0 0 0];


internalField   nonuniform List<scalar> 
15335
(
3.62804e-05
6.16557e-07
5.42648e-07
9.3015e-09
1.69131e-08
5.05876e-09
1.94918e-08
2.74935e-08
-3.48094e-08
1.65051e-08
1.42186e-08
7.95109e-09
1.33015e-06
3.9287e-08
3.25355e-08
-2.6872e-08
5.06268e-07
1.33712e-07
8.98001e-09
2.67901e-08
-3.31954e-08
0.000445003
2.58376e-08
-3.89017e-08
1.60901e-06
2.32711e-05
1.53895e-07
1.21881e-08
3.48287e-08
0.000282548
-6.71064e-09
2.45904e-08
-1.73314e-07
-6.28935e-07
5.75368e-09
6.77697e-08
1.63169e-08
-9.90351e-07
5.1923e-08
1.89816e-07
3.86499e-09
3.72219e-05
-1.10158e-08
2.23773e-07
0.000977883
1.18473e-08
2.17642e-08
-9.6282e-08
3.72835e-08
3.52417e-08
-4.19424e-08
-4.96893e-09
1.6285e-08
1.08632e-06
-9.40234e-06
0.000488554
8.37014e-07
-1.68189e-05
-1.51004e-06
-2.08082e-06
7.87312e-07
8.38956e-08
1.63164e-08
-1.04404e-07
1.67032e-08
5.42946e-05
0.00139872
1.20326e-08
6.86383e-09
7.29233e-09
-1.66778e-06
2.56641e-08
1.60893e-08
0.000831515
1.84746e-08
0.00200566
8.90629e-07
-2.4394e-07
5.11524e-09
-1.23272e-08
2.94984e-05
3.45072e-08
3.54608e-08
1.02096e-07
-2.62227e-08
-5.53356e-06
-1.17271e-07
1.40363e-07
5.15819e-09
8.22265e-07
1.38166e-05
5.54416e-07
-0.000163984
2.17379e-05
2.60502e-08
9.16575e-08
1.02713e-08
5.65842e-05
-5.68322e-09
5.60934e-05
2.97012e-09
-2.90671e-07
3.18125e-07
-3.74095e-08
-5.98477e-08
1.42214e-08
-1.5611e-05
5.46534e-08
1.26026e-06
6.32576e-08
-3.11197e-07
3.35933e-07
-7.1578e-06
-1.06147e-08
1.27561e-08
1.69369e-08
2.46127e-08
-1.42606e-08
5.86976e-05
1.5636e-05
-2.41694e-07
1.35013e-08
-9.61011e-06
9.6035e-09
-4.24477e-09
2.3698e-08
7.41593e-09
0.000665143
-9.90511e-09
2.03258e-06
2.74528e-08
1.86247e-08
-3.51597e-08
3.67591e-05
4.64736e-08
-0.000779599
1.68054e-08
1.58153e-08
6.03925e-08
-4.85297e-07
1.40629e-08
-0.000519371
5.01181e-09
2.50577e-05
-1.02413e-05
1.29882e-08
0.00222601
-8.6784e-06
1.64294e-08
1.04283e-06
-4.04028e-08
0.000266449
-1.50353e-08
2.49368e-08
1.33904e-05
2.29597e-08
1.2987e-07
6.17176e-08
3.20763e-09
-2.93911e-08
1.40325e-08
-3.16777e-06
1.61162e-08
-2.0718e-07
-8.38668e-06
8.31338e-09
-3.55253e-09
0.000366895
1.10036e-08
5.07438e-09
1.63509e-08
1.82057e-08
1.40894e-08
1.89124e-08
3.27582e-07
-7.03331e-09
3.05045e-05
-2.31795e-08
3.53036e-08
5.89381e-05
1.40444e-08
0.000311251
4.62347e-08
1.79954e-08
1.75781e-08
-1.08323e-07
1.54424e-07
0.000291667
2.09325e-08
-1.6561e-05
-3.98491e-08
5.40789e-05
3.75945e-08
4.28573e-09
1.64548e-08
6.00369e-05
1.41366e-08
7.90024e-07
8.29989e-08
-1.86682e-06
-0.000940153
3.01701e-07
1.84703e-08
-6.99521e-07
5.22729e-05
-1.96011e-07
-8.00627e-06
7.57007e-09
3.70521e-08
3.98218e-05
4.43292e-07
2.15335e-06
5.37145e-09
-2.57895e-06
5.47966e-07
2.08965e-07
3.08447e-08
4.01057e-08
2.41437e-08
0.000213055
-5.73466e-09
1.39864e-07
-3.17822e-06
5.1018e-08
7.21499e-08
5.64586e-06
9.42239e-08
1.34433e-08
1.91211e-08
3.23791e-07
-1.5475e-06
-1.26687e-07
1.36675e-05
2.93942e-08
1.54397e-08
8.18207e-09
1.59288e-08
0.00205009
1.45449e-05
3.08273e-08
7.5122e-07
1.15659e-08
-1.28927e-06
1.73052e-08
4.19735e-05
1.8905e-08
0.000712435
2.12929e-07
2.66298e-05
2.56417e-05
2.43261e-08
-6.029e-08
1.88456e-06
-1.36994e-06
-7.69984e-09
0.000250964
1.2691e-08
-1.18087e-07
-3.31946e-06
-1.17142e-08
7.30981e-05
2.05097e-05
1.63662e-05
-2.68385e-06
-1.34538e-05
4.66741e-06
1.56333e-05
1.01808e-08
1.91324e-08
1.44899e-08
2.89689e-08
-9.14789e-09
3.00532e-05
5.83943e-08
1.16737e-08
1.52973e-05
1.99472e-07
-2.29108e-06
1.67455e-08
5.38537e-05
8.98265e-09
8.54006e-09
1.81351e-08
1.66465e-08
4.6824e-08
1.66579e-08
-3.884e-08
8.92009e-09
-7.0682e-07
2.56177e-08
1.79244e-06
1.34361e-08
-4.68091e-09
1.80073e-08
1.32763e-05
2.49406e-08
1.68152e-08
-6.47485e-10
1.44951e-08
1.96716e-08
0.00151332
5.54478e-08
-0.013695
0.000296429
4.54149e-05
7.13066e-09
9.49027e-09
0.00142682
8.6727e-06
8.9159e-08
-1.0973e-07
1.91425e-08
5.9049e-06
2.94404e-05
1.42506e-08
-2.18354e-06
-6.3741e-08
-1.79253e-07
1.43074e-08
6.49741e-08
1.07827e-08
3.99674e-08
0.00766768
-6.77412e-06
2.50194e-08
-8.39935e-06
1.19263e-07
-1.56306e-07
-2.68646e-07
2.61494e-07
6.98555e-09
0.00615498
1.38778e-05
1.78768e-06
4.11598e-08
1.90611e-08
2.07749e-08
2.36019e-08
5.52966e-08
3.13213e-05
-4.52603e-09
2.77384e-08
7.62916e-08
5.6828e-09
-3.32793e-07
4.37196e-05
7.03749e-08
1.91353e-05
1.67254e-08
1.99753e-08
3.43876e-06
-1.86449e-07
1.48796e-08
-0.00115716
-3.47922e-05
1.81767e-08
-1.1589e-06
-1.76069e-07
1.45768e-08
0.00583565
5.41661e-09
5.83799e-09
2.24579e-08
5.43913e-09
0.000178256
-2.32822e-06
1.25478e-08
1.41516e-08
3.72094e-08
6.20704e-09
-9.87149e-07
-9.98178e-09
2.87318e-08
1.6721e-08
-1.53382e-09
1.72776e-08
-2.66191e-08
-1.71124e-08
8.80944e-09
3.29668e-06
4.07483e-05
7.32562e-09
3.54388e-05
-1.66411e-06
6.63427e-06
4.16012e-09
4.99611e-09
4.9411e-05
1.70406e-08
1.77341e-08
1.53853e-08
1.03377e-08
-8.27339e-09
1.99138e-08
0.00500671
6.36239e-08
1.69114e-08
-1.65516e-08
6.88045e-09
5.40175e-05
3.27817e-08
-0.000913027
-2.70067e-08
-1.14876e-08
7.85227e-09
3.2635e-08
6.74743e-09
1.47128e-08
8.60703e-07
1.62983e-08
-1.3702e-08
1.79779e-08
3.10015e-08
1.69851e-08
5.55804e-08
1.73525e-08
5.99276e-09
1.91089e-08
2.01863e-08
-1.06647e-06
4.163e-08
1.18694e-08
-1.5714e-07
8.48381e-09
-1.77809e-08
-4.85113e-06
9.72892e-09
2.222e-08
2.49749e-08
-3.2887e-07
8.23211e-05
-1.93441e-05
-1.91668e-07
-0.00034681
-1.59039e-08
6.7352e-09
3.62395e-05
4.39943e-08
1.19783e-08
3.38462e-08
-4.36897e-09
1.3948e-08
1.17337e-08
1.35711e-05
1.84328e-08
-3.02747e-06
3.15372e-08
9.83977e-09
2.50751e-08
0.000317058
-7.46863e-08
3.70373e-05
8.29644e-09
2.65223e-06
1.25446e-08
6.66604e-08
3.58342e-08
4.18137e-05
-4.10141e-06
1.64165e-08
6.60398e-08
2.15677e-08
-5.88585e-06
1.31815e-08
6.19878e-08
-0.000196403
1.26598e-07
7.36758e-07
1.86051e-08
1.65942e-08
1.42507e-08
3.39087e-05
1.9638e-08
2.16807e-05
1.88943e-08
1.12327e-08
8.87198e-09
4.79265e-09
1.62497e-05
1.60232e-08
-7.70594e-08
1.73363e-08
1.58611e-08
5.54293e-09
1.23649e-08
3.81047e-05
5.01667e-08
1.45949e-08
1.48933e-08
5.40082e-08
0.00151192
0.00161906
8.08786e-09
-3.46488e-08
3.37864e-05
3.0462e-05
1.35674e-05
3.33277e-08
3.42191e-08
6.05363e-09
-2.49295e-06
-8.05062e-05
1.20358e-08
3.15579e-08
1.86699e-08
2.21785e-08
3.25702e-08
7.79863e-08
5.88582e-09
8.88073e-09
4.78633e-08
5.23737e-07
3.281e-05
5.89225e-08
0.000147283
-1.7933e-08
1.75855e-08
-4.37626e-08
1.41165e-07
7.73742e-06
-2.85311e-06
-2.00625e-06
1.85362e-08
2.10518e-09
-1.26947e-05
-1.37189e-07
4.27647e-05
3.77139e-08
-6.20985e-09
-1.33713e-08
1.31672e-08
2.17727e-08
3.72298e-05
-1.17409e-07
-4.92059e-09
-2.83524e-09
-0.00218985
-3.69584e-05
-5.81266e-08
5.43631e-09
-2.82605e-06
4.85139e-08
5.57345e-09
5.47069e-06
8.34923e-09
-1.09884e-05
4.97416e-05
1.46233e-08
3.51799e-08
3.18636e-08
4.03802e-08
1.72641e-08
1.92335e-08
-3.5708e-09
1.20058e-05
9.70227e-06
5.56214e-09
6.4586e-08
1.07011e-08
1.13258e-05
3.14945e-08
1.89727e-08
3.32244e-08
1.0573e-08
-0.000466945
9.45882e-09
3.43917e-08
2.07307e-08
3.44863e-05
1.2445e-05
1.33308e-05
7.05918e-09
-4.77037e-10
3.15758e-08
1.56801e-08
-1.84532e-09
1.79165e-08
3.25365e-08
1.46847e-08
6.0129e-05
-1.49252e-05
8.31434e-06
4.01946e-08
6.18765e-07
3.4665e-08
-1.66237e-05
1.93129e-05
6.04065e-05
2.82061e-08
-9.68256e-10
2.59996e-08
9.41281e-08
8.28177e-07
5.76734e-08
5.49004e-09
-8.68667e-05
2.90933e-07
0.00031536
1.03172e-08
1.50384e-06
1.82824e-08
3.32988e-08
7.4965e-06
1.16594e-05
3.36008e-07
6.3692e-09
4.52543e-08
1.06728e-08
0.00145035
3.98571e-08
0.00160018
-0.00157462
-3.87165e-06
1.23281e-08
1.3707e-08
-2.6959e-07
2.49281e-08
-0.00033049
1.7405e-08
1.41585e-08
-1.69996e-08
1.1843e-08
1.14491e-08
8.04292e-09
1.9124e-08
1.95001e-08
-4.44099e-09
-9.64336e-09
-4.64263e-06
-7.71758e-09
2.89705e-08
2.02938e-07
1.16821e-08
1.86253e-08
3.3703e-08
5.7147e-05
-6.83827e-07
1.40812e-08
1.5359e-08
3.22941e-08
3.31173e-08
9.38814e-09
1.12082e-08
3.08251e-07
1.02083e-08
-8.51569e-08
4.11093e-08
-3.15398e-08
4.35662e-08
1.10494e-05
-0.00333376
1.04393e-08
4.6972e-09
9.92773e-09
3.38227e-05
-2.90555e-08
6.59332e-06
1.78563e-08
9.28405e-09
1.56892e-08
1.95436e-08
3.50437e-08
2.82112e-08
-0.00285598
1.73658e-08
6.17775e-05
1.52663e-08
1.65703e-08
-0.00222161
1.44224e-08
-1.81833e-06
1.7887e-08
2.57982e-08
5.59522e-09
2.54273e-08
-4.88575e-09
1.04419e-08
7.57034e-09
1.46537e-08
-2.91306e-05
1.14734e-08
-0.00192312
-2.5212e-07
-3.74156e-08
-0.00234937
1.8032e-05
1.03912e-07
1.06061e-08
-1.22781e-11
7.44552e-09
2.3826e-06
5.80492e-08
7.81042e-09
-1.17233e-08
-2.33255e-08
1.27271e-05
2.27602e-05
1.65951e-08
5.78185e-08
2.49773e-06
1.25252e-08
3.87553e-05
-9.50773e-07
4.66582e-08
-4.02617e-09
-3.50032e-06
-3.25472e-06
-1.43388e-08
3.3377e-08
0.00343345
5.13821e-09
2.93745e-08
0.000818641
1.13227e-08
5.49371e-08
4.0311e-05
-3.5321e-06
-1.08742e-06
2.27507e-08
2.03243e-08
-5.63729e-08
1.67174e-08
1.80154e-08
6.32769e-08
-9.64564e-08
3.22284e-08
-0.000430944
1.30518e-05
1.17739e-08
2.60536e-05
3.27286e-05
-4.06008e-09
-6.9752e-09
1.19841e-08
6.96072e-09
1.52206e-08
-2.47252e-08
3.96612e-08
6.92146e-09
5.02249e-08
1.15623e-07
2.88673e-09
6.60601e-06
5.85227e-05
6.50676e-09
-3.60121e-08
8.63182e-09
6.11106e-05
2.75735e-08
-1.57288e-08
6.02697e-09
3.66889e-08
1.4213e-08
5.5716e-08
1.44336e-08
-1.08019e-07
8.97386e-06
1.59227e-05
3.97086e-08
2.48467e-05
-2.78865e-07
3.61788e-05
1.50752e-08
-6.77832e-06
-3.00773e-08
6.19231e-06
8.00156e-09
1.34114e-09
2.77335e-08
-4.99154e-06
3.61641e-08
8.17569e-09
-4.73428e-06
1.60021e-08
-3.43373e-06
2.28108e-08
6.35349e-08
2.88307e-07
8.82943e-09
0.00256902
2.56764e-07
1.19694e-08
7.54614e-09
1.54696e-08
5.24827e-05
1.29761e-06
-1.08267e-08
-2.63424e-09
9.33575e-08
-2.59632e-09
0.0032014
0.00097781
-5.21354e-09
1.92398e-06
1.6592e-08
6.63551e-05
-4.51416e-07
1.87091e-08
3.25428e-07
-9.91054e-10
6.11139e-08
3.15323e-08
2.07305e-08
-1.8409e-08
0.00048111
1.57926e-08
-4.30956e-09
1.56699e-08
-4.90185e-07
0.00140368
3.37968e-08
6.04986e-05
-2.85212e-07
-2.14629e-08
1.64599e-08
-2.39686e-07
7.96635e-09
4.48519e-08
1.81054e-08
4.65904e-08
1.54156e-08
-2.55806e-06
3.6949e-09
8.02299e-08
1.551e-08
4.23646e-08
9.33286e-09
4.93184e-08
1.04298e-05
1.91097e-08
-5.12183e-07
-7.33531e-05
7.10554e-05
6.32001e-08
0.000208773
-6.73376e-09
-4.02579e-09
1.52181e-08
-3.19385e-09
1.27146e-08
2.68918e-08
1.22669e-08
3.69008e-08
-3.65287e-09
1.05815e-08
5.0874e-09
-3.02541e-08
3.95364e-05
-4.66114e-07
-5.67589e-06
7.89524e-09
1.3337e-08
9.64879e-09
2.68792e-08
1.24608e-08
1.00999e-08
3.61076e-08
-0.00256323
1.97426e-08
7.96706e-06
4.92049e-09
-3.64806e-09
-6.88132e-05
9.26065e-09
0.000157284
-1.46586e-06
3.17636e-05
4.58924e-05
1.39414e-08
5.8856e-08
1.28399e-07
2.9865e-08
7.5136e-09
-4.48912e-09
2.74085e-07
-6.802e-06
-3.77254e-08
-3.5936e-08
9.18544e-09
-0.00291926
-4.97784e-07
0.000507731
1.61807e-08
1.1083e-09
1.72107e-08
1.18973e-08
-4.58989e-06
7.37784e-09
4.03966e-08
0.000517266
1.62084e-08
3.75382e-08
8.5102e-09
-5.40138e-08
-1.48848e-07
1.66345e-08
2.3584e-05
2.14749e-08
5.22317e-05
-0.00070946
5.1028e-09
0.00584504
1.3962e-08
1.86853e-08
1.15621e-07
1.55707e-08
3.65778e-08
1.5e-08
7.2797e-06
2.63294e-09
3.15935e-08
-3.72712e-08
7.44378e-06
1.63653e-08
2.25042e-08
5.97712e-08
3.33803e-08
3.94057e-09
8.81602e-08
-2.1141e-07
1.63429e-08
9.87499e-09
-3.28043e-07
0.00261508
1.05734e-05
1.62226e-08
1.91233e-05
7.25374e-06
3.62614e-08
0.000321809
-0.000266538
4.39889e-05
2.6894e-08
1.60744e-05
-0.00106278
3.88689e-09
1.07533e-08
3.37205e-08
6.83255e-09
-1.37991e-08
2.33912e-08
4.91024e-08
5.83833e-05
-2.26386e-08
6.56438e-06
2.06852e-08
7.14625e-08
4.94951e-05
3.29859e-08
5.50025e-09
-8.26647e-08
2.00906e-08
1.65233e-08
5.53222e-05
1.18641e-08
1.49346e-08
8.44484e-09
2.67189e-05
-2.41227e-08
4.28709e-05
9.61016e-09
3.18071e-08
1.52341e-06
2.38954e-09
2.30919e-05
-7.60608e-08
3.46196e-05
4.14045e-08
-1.10569e-08
-1.04555e-07
1.21023e-08
1.43495e-08
-3.77649e-08
2.62096e-08
7.85074e-06
5.02243e-05
-1.05255e-07
-5.03558e-07
1.67627e-05
-2.59094e-08
0.000485552
-3.30829e-07
-2.27689e-07
3.65159e-05
-4.46359e-05
4.30592e-09
0.00167301
1.72661e-08
-6.80819e-07
-1.61162e-09
8.5271e-09
2.17394e-08
1.24532e-08
-0.0105208
4.94247e-09
-3.29696e-06
-8.1321e-08
-4.82995e-08
-5.90408e-10
9.03436e-08
3.86704e-05
-0.00106756
1.66219e-08
4.00461e-08
-8.11522e-07
-1.00892e-05
2.82217e-08
1.38471e-08
7.29453e-08
1.34241e-08
1.30595e-08
1.61262e-08
-1.5873e-08
1.74737e-08
-7.62491e-07
-9.00002e-08
-3.73609e-07
9.94551e-09
-6.92892e-07
1.5509e-05
1.51326e-08
8.73153e-09
1.97284e-08
1.53173e-08
1.53622e-05
-3.44396e-09
7.80109e-09
1.47667e-07
1.31699e-05
-5.00159e-09
1.53283e-06
1.57572e-08
3.75466e-05
3.36432e-08
1.05837e-05
-2.8498e-05
1.80984e-08
-0.00422869
1.31861e-08
6.73996e-08
1.01242e-08
6.01854e-08
1.86569e-08
7.1949e-08
-2.79069e-07
1.8143e-08
-1.88025e-05
-0.000219847
-3.20091e-05
-1.83187e-06
-1.258e-05
1.33273e-08
-1.93647e-08
-3.72246e-05
1.5583e-08
6.54075e-06
5.38537e-05
-2.2317e-08
-2.44472e-06
1.53387e-08
5.51091e-09
5.43815e-09
-1.97951e-10
1.08281e-08
3.19426e-06
-0.0065095
1.43171e-07
9.33744e-09
6.46227e-08
6.04369e-06
1.51279e-08
1.07564e-08
6.09839e-05
-2.2973e-08
8.48856e-06
8.37924e-06
8.16232e-08
-4.04913e-06
8.86861e-09
2.95507e-05
3.64856e-08
1.66059e-08
-1.44025e-05
-1.42724e-05
1.55893e-08
-6.68435e-09
-3.34991e-07
2.43434e-08
-3.77678e-05
3.65488e-08
8.76136e-09
2.73976e-05
4.91462e-05
3.63641e-08
-1.46585e-08
5.66189e-05
-2.35528e-05
3.77307e-08
2.03405e-08
5.37757e-09
1.70324e-07
-4.22431e-08
4.74626e-09
-3.42451e-08
7.91391e-08
1.56637e-08
1.76037e-08
-7.16562e-07
7.77968e-09
1.34765e-06
7.39919e-09
5.0143e-09
-9.9702e-08
1.48843e-08
7.05095e-07
3.1355e-08
6.73329e-08
1.67944e-08
-7.39389e-08
-6.20926e-08
1.61893e-08
1.90923e-08
2.4312e-08
-0.0129208
0.00287823
-3.55731e-08
-1.94815e-08
0.00020229
3.64413e-08
7.29169e-09
-1.65396e-08
-5.1498e-09
6.95698e-09
-1.29282e-08
-5.04732e-07
4.39686e-09
-6.55967e-08
1.76358e-08
-2.49567e-05
4.96022e-08
-1.05013e-07
2.64567e-08
-7.30642e-05
1.0375e-08
5.84159e-07
3.93522e-08
0.000664624
6.31494e-07
6.3545e-08
-2.20583e-07
4.27437e-05
-0.0002477
-3.50771e-06
5.0973e-05
1.88155e-07
1.09971e-08
-2.76806e-08
1.36194e-08
4.64968e-05
2.33231e-05
4.71578e-05
-0.00115806
-8.73805e-08
0.00386328
1.67579e-08
1.59286e-08
3.86385e-08
1.73845e-05
-7.51709e-07
2.02755e-06
1.36105e-08
1.71397e-08
1.37012e-08
3.94302e-09
2.96727e-08
-3.70015e-07
-3.22174e-05
-5.79991e-07
2.77504e-08
-0.000914612
1.04294e-08
-2.91947e-08
1.22504e-08
3.37188e-08
1.67391e-08
1.04749e-07
-4.17075e-07
1.59868e-08
1.77826e-08
1.73694e-08
1.8055e-08
-1.32944e-07
1.15e-07
8.34996e-09
4.25996e-08
-0.000127926
1.33848e-05
-0.00180813
4.95965e-07
9.41646e-09
3.67467e-05
3.62326e-05
0.00222321
-1.48615e-08
-6.75822e-08
6.8514e-09
-0.00403685
1.36371e-08
1.67773e-08
-3.6683e-05
5.33216e-07
6.5701e-05
2.93441e-05
2.71885e-07
5.35767e-06
9.43795e-09
1.57433e-08
-0.001408
-1.47273e-05
7.70195e-09
9.61189e-09
1.32689e-08
-4.88908e-06
1.7151e-08
3.86956e-05
2.32137e-06
5.60988e-05
2.1075e-05
4.75722e-07
2.69082e-08
3.74719e-06
2.7958e-05
0.00496045
1.62157e-08
2.07653e-06
9.87482e-09
0.000992143
-1.40173e-07
1.02843e-08
1.01082e-08
-5.23454e-08
4.25709e-05
1.56913e-08
-6.41064e-06
1.35884e-07
-0.000942642
1.83947e-08
2.23962e-08
3.24595e-08
-5.36583e-07
1.46327e-05
3.09716e-08
1.68144e-07
5.89132e-05
6.9187e-10
-4.01297e-07
4.90073e-07
6.4037e-08
-1.76152e-08
1.43137e-07
1.64046e-08
3.13702e-08
2.4833e-05
-6.67631e-09
1.55981e-08
-3.59931e-05
1.17896e-05
2.67858e-08
-5.77699e-08
-3.03764e-07
-1.19219e-05
2.08035e-08
-4.1447e-05
-2.76005e-08
3.24555e-08
-2.5193e-07
2.89183e-05
0.000907548
1.72886e-08
1.08263e-07
5.87421e-09
1.0061e-06
1.75685e-08
3.33647e-08
1.76885e-08
8.71329e-09
2.45742e-05
3.58769e-08
2.9854e-08
2.8768e-08
1.0095e-08
-3.5993e-07
-1.15312e-05
-1.95825e-06
3.75845e-08
0.00153678
2.5758e-05
3.40075e-06
1.31015e-08
1.2082e-06
-1.45362e-05
-3.58361e-07
3.3562e-06
-3.69315e-06
3.47581e-05
3.79699e-09
1.58158e-08
-2.46533e-05
1.16096e-07
4.6918e-09
-1.26544e-07
9.7398e-09
-6.59961e-07
9.58243e-06
2.73724e-07
-1.49666e-06
-0.000524971
9.26306e-09
1.78009e-08
1.39059e-08
1.60677e-09
6.87472e-09
3.69222e-08
1.34462e-05
8.71329e-09
1.50131e-08
7.84654e-08
5.33159e-05
-3.08365e-08
1.84605e-05
1.58629e-08
5.56018e-10
-9.1392e-08
8.26987e-09
-2.83835e-07
1.4252e-08
1.29692e-08
1.934e-05
-1.6204e-05
2.78803e-08
1.35294e-05
-0.000828359
-1.14398e-06
4.66472e-09
-5.56862e-08
9.46375e-08
1.46617e-08
2.08949e-08
-0.000318747
2.73341e-06
0.00321543
0.000514531
2.447e-05
8.10079e-09
7.63618e-06
2.35775e-08
1.00741e-05
3.00814e-05
1.43418e-08
8.30772e-05
2.57473e-08
1.06834e-08
1.58468e-08
-3.31428e-07
4.06883e-05
-2.37118e-07
3.18856e-08
-4.01431e-08
1.24099e-05
8.26247e-09
5.22548e-05
8.17811e-09
0.000519998
5.98463e-05
5.12183e-08
4.95593e-08
1.58863e-08
-3.33187e-05
2.22517e-08
2.78253e-07
8.3091e-09
6.05736e-09
-0.0004449
2.98962e-08
1.96766e-06
4.52687e-08
9.43775e-06
1.31753e-08
2.34006e-08
9.86872e-09
1.44228e-08
-1.39105e-08
9.55742e-09
1.17611e-08
5.60314e-06
1.10014e-08
5.27876e-09
-6.17909e-06
2.22981e-05
1.70087e-08
9.62957e-09
1.74825e-05
-0.00202021
1.58305e-08
3.89419e-08
0.00175828
4.58051e-08
-4.77718e-08
4.2964e-05
1.51761e-08
1.10792e-05
0.00309178
1.17772e-08
2.27179e-08
1.38737e-05
1.65311e-08
-1.37991e-08
-1.22182e-07
8.28961e-08
9.3328e-09
5.06466e-05
1.27292e-05
4.62813e-07
1.05392e-08
1.34821e-07
-0.00064846
-1.82262e-08
8.95455e-09
1.24048e-08
1.6681e-08
2.47656e-05
0.00169442
0.000220054
1.29927e-06
1.29677e-05
6.95328e-09
6.64875e-08
2.29751e-07
-2.63576e-07
2.09518e-08
3.47271e-08
2.77982e-08
-5.22832e-08
3.66541e-08
2.79761e-06
9.78107e-08
1.86824e-05
-9.49193e-05
2.34198e-06
0.00519034
1.66703e-08
1.81412e-08
1.57534e-07
-7.04442e-05
0.000276154
1.40128e-05
1.67565e-08
6.62337e-07
1.51039e-05
3.49552e-08
-2.82331e-07
7.19681e-07
2.65615e-08
5.99426e-07
1.18528e-08
3.87018e-08
2.32114e-08
6.47499e-08
1.76516e-08
0.0003549
6.22267e-08
4.65536e-09
5.27904e-09
-1.1152e-06
5.9591e-06
-3.75657e-09
3.60094e-08
0.00360098
3.73188e-05
2.07405e-08
1.26098e-07
-3.32583e-10
-7.85547e-06
1.62802e-08
2.06761e-08
1.56753e-08
1.49711e-08
-0.000216896
1.29803e-08
-6.0665e-07
1.08323e-08
1.39119e-08
6.1048e-05
6.0498e-09
1.71716e-08
3.90887e-08
-1.94867e-09
1.74913e-08
1.43762e-08
1.67125e-08
3.54611e-08
0.000549298
2.72286e-08
4.59337e-08
1.64562e-08
5.38971e-09
1.6473e-08
1.7979e-08
3.38828e-06
1.10639e-08
3.28815e-05
1.67471e-08
2.00629e-08
4.02288e-08
1.79729e-08
1.77504e-08
1.11839e-08
4.43898e-09
7.88974e-09
1.06986e-08
5.74432e-05
1.49404e-08
2.4909e-08
1.29763e-08
-0.000776601
-5.91355e-05
0.00290382
1.57168e-08
5.87783e-05
2.67911e-07
2.87565e-08
5.35266e-09
6.33402e-09
-0.000200385
3.56817e-08
4.25916e-09
4.74655e-08
1.80229e-05
2.85988e-07
1.83345e-05
-1.66125e-06
1.17537e-05
-0.000555592
1.79102e-08
5.3188e-09
1.70475e-08
2.3456e-06
9.97581e-09
1.18173e-08
1.19814e-07
0.00764294
0.000717571
3.94453e-08
1.50141e-08
-5.58763e-07
-1.52403e-06
4.09879e-05
-0.00106618
-0.010451
-0.00347946
-1.42354e-05
5.74867e-06
-1.97223e-06
4.46751e-08
1.14496e-05
5.61652e-08
1.80687e-08
-2.69382e-07
0.00128898
0.000278779
2.63488e-05
7.07062e-09
-8.24332e-08
1.44934e-08
4.20447e-06
4.41557e-05
-1.02718e-08
-2.99835e-07
-2.07719e-06
6.82759e-07
1.68293e-08
5.88087e-09
4.29062e-05
-1.38093e-05
2.89883e-09
1.73275e-08
1.58276e-08
-1.62387e-06
5.79901e-05
6.09132e-09
2.36296e-08
6.21725e-09
2.24809e-08
-2.90197e-08
1.3521e-05
1.04513e-07
1.66321e-08
4.08686e-08
1.76873e-08
2.05088e-07
1.72406e-08
8.71148e-09
5.1254e-09
1.63604e-05
-3.3013e-08
-1.06248e-08
1.69288e-08
1.36568e-07
3.70694e-09
9.85965e-09
1.12882e-08
9.15012e-09
-3.42794e-08
1.72093e-08
1.28823e-05
1.38997e-08
0.00525062
0.00239105
3.36269e-08
-1.45743e-08
5.06231e-09
-9.03994e-05
0.00154791
1.61085e-08
7.46661e-06
-2.03981e-07
0.000863838
1.08569e-08
0.00265222
3.69677e-08
6.91702e-09
-0.00035027
1.73397e-08
2.75368e-07
5.36955e-09
4.85464e-09
1.13647e-08
2.2119e-08
1.43836e-08
1.57882e-08
-8.32998e-06
2.36902e-08
1.20215e-08
1.41587e-08
0.00117641
7.84778e-09
3.2978e-05
1.40531e-08
-2.74187e-05
6.96635e-08
1.14084e-05
3.23671e-05
1.57418e-08
1.05863e-08
1.71006e-08
1.50055e-08
6.25806e-05
1.12004e-05
-8.55814e-10
1.17746e-08
0.00353436
1.6816e-08
1.5163e-08
-5.06013e-08
0.000548431
1.64011e-08
2.65021e-07
6.08487e-05
1.56738e-08
-1.08618e-06
-0.000139097
2.52137e-08
8.53502e-08
7.06944e-08
-0.000190043
-0.000316632
-2.73401e-07
0.00263516
1.65377e-08
3.47634e-08
0.00052036
2.30715e-08
1.75348e-08
1.56434e-08
1.66769e-05
0.00294194
0.00116144
1.29e-07
1.81889e-08
1.08203e-06
1.45242e-08
1.4789e-05
3.90535e-09
4.14063e-05
-6.41353e-08
2.01521e-08
1.57536e-08
6.21977e-05
2.08825e-08
0.000957191
-2.73278e-07
2.02695e-08
7.46642e-08
-3.40303e-07
1.19233e-08
2.52799e-08
1.57413e-05
-5.22328e-05
7.07438e-05
5.08711e-05
9.76122e-09
0.00120387
5.5986e-09
6.90753e-09
1.55634e-08
-6.74042e-07
-4.53396e-07
3.27641e-08
1.85354e-08
1.68616e-08
4.8059e-08
2.07256e-05
4.15434e-05
-1.83047e-06
4.67586e-07
3.5679e-06
1.61622e-08
5.3401e-09
5.46512e-09
4.24475e-07
-2.4929e-07
1.53033e-08
1.81876e-08
3.58245e-06
1.78602e-08
1.11922e-05
1.21727e-05
-9.18031e-07
-2.84403e-09
-4.64368e-06
3.40465e-08
-2.72302e-06
1.34932e-06
8.95001e-09
1.73044e-08
8.82522e-09
3.02134e-08
9.8191e-06
-4.44966e-07
1.80102e-08
-0.00450485
4.76259e-09
-1.84933e-07
1.02197e-05
3.59539e-08
1.72931e-08
4.14592e-08
-0.000999152
1.34583e-08
-2.2881e-07
-2.89788e-08
1.66025e-08
5.53831e-05
2.20646e-07
4.72294e-09
7.29198e-07
-6.86188e-07
1.69672e-08
6.93585e-09
3.9966e-09
4.83194e-09
5.67954e-07
5.00501e-06
1.74598e-08
4.29904e-09
2.19746e-08
-7.56081e-07
1.78801e-08
6.71582e-09
5.98333e-05
1.63255e-08
1.40542e-08
0.000358096
8.9552e-08
7.23761e-05
1.59137e-08
4.08608e-09
8.68621e-07
3.47261e-05
4.20131e-08
1.53749e-08
1.41466e-07
8.86073e-09
3.43022e-08
7.26427e-09
6.18052e-09
1.85841e-08
-3.55852e-07
1.48491e-08
1.81238e-08
2.11035e-07
1.62503e-08
2.14422e-08
-2.94595e-07
-4.59863e-05
2.98274e-05
-4.11312e-08
4.78828e-09
-1.7415e-09
1.11821e-05
-7.72566e-08
1.57187e-08
2.25558e-08
-1.61627e-08
1.20615e-05
-2.33338e-06
8.33218e-09
1.77171e-08
-6.54596e-09
0.00192205
6.31544e-09
-1.17527e-08
0.00560757
-1.71544e-05
8.10864e-05
-1.53788e-09
1.7546e-05
5.52945e-09
-2.91915e-06
5.96741e-09
6.54513e-05
5.85923e-09
1.98417e-08
2.2786e-08
-3.16233e-08
2.21711e-08
3.6475e-08
1.57942e-08
1.38068e-05
-1.1623e-08
-1.63397e-07
1.70715e-08
2.41546e-08
4.31228e-05
1.62032e-08
2.94528e-08
1.05976e-08
5.92874e-09
-6.62422e-08
3.10144e-08
2.58613e-08
3.05172e-05
-0.000752427
1.58704e-08
-7.67339e-08
-0.00682211
7.22875e-09
-9.46834e-08
7.26034e-05
-1.85473e-05
-0.00156897
7.90354e-06
4.80699e-05
-1.1091e-09
-0.0015043
3.27492e-08
3.80835e-06
8.03595e-09
6.28431e-08
8.52996e-06
1.55616e-08
-1.11327e-08
2.43438e-08
5.12698e-09
-0.00126079
-1.57558e-05
3.16988e-08
-3.66325e-06
-5.24271e-08
1.22934e-08
2.10759e-05
-8.58733e-06
1.0572e-08
1.57133e-08
1.18486e-08
1.19637e-08
3.00436e-08
1.01233e-05
2.88003e-06
1.70673e-08
1.81684e-08
2.42254e-08
1.02836e-08
4.56069e-08
1.60077e-08
2.44253e-08
2.15389e-05
2.13273e-07
-3.39064e-05
4.05022e-09
-3.75659e-08
1.63907e-08
-2.1238e-05
5.06111e-05
2.01466e-05
3.19085e-08
3.72381e-08
-2.62995e-08
2.19029e-08
2.7813e-07
1.5522e-08
7.22628e-08
4.07778e-07
1.5234e-07
-5.54876e-07
-4.45176e-07
4.70245e-08
3.31106e-08
3.09818e-05
3.10401e-07
2.76133e-08
2.2162e-08
-3.31622e-08
8.19116e-07
2.68878e-05
2.14412e-08
-0.000415661
7.05872e-06
1.40148e-08
2.21826e-08
2.02608e-08
1.94624e-07
1.75625e-08
3.60525e-07
3.24074e-08
9.3705e-06
1.63236e-08
1.67487e-08
2.11324e-05
-6.87531e-08
-4.83858e-07
2.72793e-08
2.1101e-07
-0.00126574
-1.21579e-07
5.57523e-09
3.10322e-05
3.3315e-08
2.97722e-05
-0.00080117
-2.30082e-08
7.32949e-05
2.43374e-08
-2.62978e-07
3.41228e-07
9.18327e-09
2.03062e-06
4.67252e-08
3.42924e-08
1.54867e-05
3.09822e-08
4.87379e-05
-1.40763e-06
0.00503881
-1.72514e-05
8.18217e-09
1.23231e-08
8.12934e-09
5.12262e-05
2.45012e-05
2.78306e-05
3.15827e-05
4.61847e-05
2.04445e-05
1.85123e-08
1.64635e-08
-3.01941e-09
0.000233589
0.000166707
-3.27799e-09
4.36704e-05
-3.36066e-08
1.76615e-05
1.74961e-08
1.51334e-08
1.15741e-05
-0.000775551
1.65074e-08
-5.23721e-07
2.33065e-08
1.38471e-08
1.43352e-08
1.88272e-08
6.54239e-08
-7.60589e-05
7.22975e-09
1.71194e-08
2.31913e-07
0.00459613
4.63389e-05
4.33176e-09
1.5165e-08
3.5668e-08
2.77669e-09
-1.64654e-08
-1.59221e-05
6.42169e-07
1.21405e-07
-0.00140464
-8.19238e-10
2.33445e-05
-3.12326e-05
5.44054e-07
7.42142e-09
1.4176e-08
-0.000160117
6.84152e-08
1.66911e-08
-2.38431e-08
7.70361e-09
-2.98418e-07
4.11293e-08
-2.82907e-08
1.65355e-08
1.48293e-05
3.18156e-08
-1.27061e-08
1.59908e-08
1.1997e-08
1.278e-06
1.06332e-09
-0.0010769
7.64627e-08
4.92077e-07
7.6899e-06
-0.00650474
0.00055174
3.07254e-08
-1.6338e-05
1.6601e-05
1.03501e-07
2.23068e-05
1.00691e-08
-1.86273e-05
4.52321e-09
-0.000158418
8.20083e-09
8.77368e-06
1.9125e-08
6.55628e-05
-0.00372242
1.73712e-08
8.43355e-09
2.38461e-05
-0.00303751
7.55006e-06
1.78662e-08
5.47835e-08
8.24851e-07
1.55584e-05
3.96292e-08
0.000108026
1.31942e-08
5.01306e-09
2.16319e-08
3.18526e-07
1.17336e-05
-4.56131e-08
1.69489e-08
0.00222609
4.068e-08
6.38217e-09
1.56822e-08
6.41874e-09
9.54385e-06
1.6333e-08
4.66083e-09
1.68997e-08
-6.25348e-07
2.57075e-07
-1.62115e-07
3.03874e-05
1.9145e-05
1.32054e-08
1.54154e-08
-2.97823e-07
1.12318e-08
3.17685e-05
4.34297e-09
-3.85527e-07
-0.0007862
7.35501e-09
1.79322e-08
8.98737e-06
3.60033e-08
1.20625e-08
8.27983e-09
1.26031e-05
1.51055e-09
3.59173e-09
2.02172e-08
1.21683e-05
-1.76675e-07
2.20287e-05
1.4539e-08
1.1601e-05
6.86709e-09
-7.45552e-07
6.57106e-09
6.99225e-09
1.46882e-05
3.21547e-08
3.17437e-08
2.52768e-05
-2.23063e-06
2.65827e-05
0.0010639
-2.0549e-05
1.13202e-06
3.27427e-07
2.10516e-10
1.87829e-08
1.047e-08
2.62497e-06
-1.81629e-05
4.36601e-05
0.00401628
-3.54234e-08
-2.63084e-07
2.37537e-07
1.60474e-08
1.87588e-08
2.01269e-08
3.8265e-08
-0.00125934
1.48166e-08
8.64233e-05
3.4331e-09
1.64671e-08
5.2154e-08
4.05092e-08
5.49615e-05
2.51961e-08
1.70349e-08
-5.43259e-05
-1.39907e-05
2.8916e-07
-2.16523e-05
1.8407e-08
1.31701e-08
-4.25657e-05
-5.47241e-06
-1.35452e-05
1.95298e-09
6.56737e-09
6.34288e-05
-3.81912e-09
-4.49052e-08
2.15795e-08
-0.00120366
5.20151e-09
2.84566e-09
-1.22126e-05
1.57286e-08
1.42149e-08
9.17513e-09
6.22359e-07
0.00143771
0.00522791
-7.82082e-07
-1.22113e-05
3.4153e-08
5.26149e-07
1.73988e-08
8.62471e-05
4.79405e-09
-2.62703e-07
-1.36455e-09
-0.00251536
1.28716e-08
1.67964e-08
8.05611e-09
2.13431e-08
3.60214e-08
2.97491e-08
1.87875e-08
5.1536e-09
7.07034e-05
5.55581e-05
1.21581e-08
1.13458e-08
0.000888856
2.54772e-05
3.23515e-07
4.49702e-08
5.21503e-05
2.66369e-08
1.28245e-08
0.00135825
2.17361e-07
1.55509e-08
6.83312e-08
1.40721e-08
6.00949e-08
1.59046e-08
5.04666e-09
4.55254e-07
1.24131e-08
-1.48545e-05
9.9347e-09
5.25171e-09
4.36321e-09
-0.000293527
8.98681e-06
2.84559e-08
3.17081e-08
2.90488e-05
1.77723e-08
6.74384e-08
1.60976e-08
1.39206e-08
-2.11487e-08
1.52695e-08
1.38407e-08
-2.23413e-05
5.43695e-08
1.5068e-06
1.62147e-08
-0.000228752
-1.17034e-05
3.14109e-05
5.92494e-06
-4.03877e-09
2.20122e-05
6.47279e-05
2.0196e-07
3.55974e-08
4.02689e-05
-2.85356e-07
1.5458e-08
-2.0678e-06
1.61769e-08
1.51561e-08
7.13825e-09
1.05574e-07
6.61255e-09
1.7901e-08
-1.71713e-05
3.92548e-08
-1.23311e-08
3.16251e-08
3.01939e-08
4.97962e-08
7.6396e-09
1.99531e-08
5.73444e-09
1.67221e-08
1.75859e-08
1.69923e-08
4.26179e-08
3.24163e-05
2.04403e-09
2.71038e-05
2.41997e-05
3.84193e-09
1.53407e-07
-1.79027e-07
1.46795e-05
9.28374e-09
4.95814e-09
6.2948e-06
1.12007e-08
1.17891e-08
6.36109e-08
-5.01199e-08
3.76156e-09
4.19463e-09
1.52235e-08
0.00267854
1.3049e-05
1.52295e-08
1.57445e-08
9.22843e-09
2.03024e-08
1.28998e-06
1.78936e-08
7.48371e-09
3.09647e-08
1.02866e-05
7.91956e-05
1.66895e-08
8.03793e-07
3.25953e-06
1.59979e-08
-3.29096e-07
2.4057e-08
3.33285e-09
1.12066e-08
6.32974e-09
-2.75617e-06
1.29962e-08
-1.98619e-05
1.26659e-08
5.17133e-09
-1.4629e-05
-0.000137436
3.38503e-05
5.10388e-09
2.15632e-08
2.22709e-08
3.20646e-07
-1.08112e-08
-9.28794e-07
9.8788e-09
-5.82983e-07
1.75685e-08
1.57612e-08
-6.95249e-08
8.25389e-07
3.05356e-08
-2.97558e-09
1.85329e-07
4.17633e-05
3.59122e-05
2.7899e-05
9.08659e-09
2.00507e-08
3.08824e-09
-3.28536e-06
-0.00327485
3.01639e-07
3.12932e-08
2.54201e-07
-8.74346e-07
-1.05133e-07
4.95084e-08
-4.29371e-06
1.40665e-08
5.04942e-09
-2.12751e-06
1.60367e-08
4.75774e-05
1.69071e-09
1.33624e-08
1.84196e-08
5.23251e-07
2.07125e-06
5.6137e-08
7.00574e-06
0.00206914
6.6524e-05
-1.54146e-05
1.111e-08
1.87717e-07
1.32825e-08
-0.000349529
5.2214e-09
0.00124596
3.15109e-07
0.00209596
4.16863e-08
0.00356097
-0.0105615
4.25506e-07
1.81887e-08
5.45027e-05
6.02126e-05
6.46038e-09
-4.45221e-06
2.0442e-08
8.05333e-09
2.42654e-07
6.42159e-05
1.04435e-08
0.00102552
0.000135149
5.58291e-09
-4.09e-05
1.13819e-06
9.71137e-05
1.54676e-08
-3.67421e-06
7.45097e-06
2.45403e-08
9.6043e-08
6.52231e-06
2.15275e-08
3.33086e-08
-1.20717e-06
7.70678e-05
3.04563e-08
1.85145e-05
-2.56114e-06
5.73006e-05
-2.33132e-07
4.53056e-06
1.54206e-08
3.06438e-08
8.93085e-08
5.30382e-05
1.14424e-05
1.75424e-08
-7.48069e-08
-8.35341e-07
7.18164e-05
-7.05458e-08
-2.13499e-05
2.89679e-05
1.82654e-06
0.000121265
2.74304e-05