/*--------------------------------*- C++ -*----------------------------------*\
| =========                 |                                                 |
| \\      /  F ield         | OpenFOAM: The Open Source CFD Toolbox           |
|  \\    /   O peration     | Version:  v2012                                 |
|   \\  /    A nd           | Website:  www.openfoam.com                      |
|    \\/     M anipulation  |                                                 |
\*---------------------------------------------------------------------------*/
FoamFile
{
    version     2.0;
    format      ascii;
    class       volVectorField;
    location    "100";
    object      ddt0(U);
}
// * * * * * * * * * * * * * * * * * * * * * * * * * * * * * * * * * * * * * //

dimensions      [0 1 -2 0 0 0 0];


internalField   nonuniform List<vector> 
15335
(
(-0.000557429 -3.78328e-05 2.81194e-22)
(6.14881e-05 1.80103e-06 -1.33924e-21)
(-0.00284167 -0.00193333 0)
(7.83039e-05 -1.87349e-06 -7.79258e-22)
(9.49304e-05 6.31446e-05 6.6758e-22)
(6.68585e-05 1.70722e-05 1.35405e-21)
(9.21271e-05 3.50879e-05 0)
(-4.28342e-05 -7.46458e-06 1.42049e-23)
(-0.000326113 -9.46213e-05 3.25043e-21)
(0.000146926 4.69481e-05 0)
(0.000111503 5.5933e-05 5.95147e-22)
(7.50245e-05 2.3773e-06 0)
(-0.00932199 -0.00291877 1.02252e-23)
(-0.000307349 4.86196e-05 0)
(0.000104134 3.28524e-05 0)
(-0.000129761 6.12469e-05 4.76628e-23)
(6.42327e-05 8.44672e-06 6.71282e-22)
(0.000377525 0.000335276 0)
(0.000102812 3.86668e-06 6.5684e-22)
(0.000105893 3.49876e-05 -9.23131e-22)
(-0.000324061 -0.000115605 -2.21871e-21)
(0.000635089 0.00435497 2.27849e-21)
(8.91739e-05 4.42706e-05 1.13786e-21)
(-0.000344421 -0.000119741 0)
(-0.00332105 -0.0016829 -4.99552e-22)
(-0.00051933 -2.41598e-05 0)
(0.000117102 1.81165e-05 0)
(-0.000102485 -9.97821e-05 1.48613e-22)
(0.000105117 3.05756e-05 -5.45184e-22)
(0.0485747 -0.0063195 0)
(-0.000236704 -0.000135854 -5.58481e-22)
(0.00011413 2.61907e-05 0)
(-0.000227664 5.08638e-06 0)
(0.00179314 0.000928208 0)
(0.00011199 2.63582e-05 0)
(9.90766e-05 3.52684e-05 -9.4799e-22)
(0.000148866 4.75524e-05 0)
(0.00213304 -0.0021329 -9.60675e-22)
(-0.000247699 1.55274e-05 -5.35301e-22)
(0.0004314 0.000288908 0)
(-6.48908e-05 -0.000120532 2.30657e-22)
(-0.000419138 -4.8683e-05 -2.35743e-22)
(-0.000306118 -7.48914e-06 -5.19088e-22)
(-0.0021797 -0.00426923 4.82145e-22)
(-0.00670166 -0.113772 2.42121e-21)
(-9.3221e-05 -9.03678e-05 1.38235e-22)
(7.61594e-05 5.88446e-05 -1.29237e-21)
(-0.000134824 8.10492e-06 -7.60821e-24)
(0.000105544 2.90022e-05 1.12055e-21)
(5.07614e-05 -7.71012e-06 0)
(-0.000344174 -0.000149396 -1.17187e-21)
(-0.000269584 -9.0566e-05 1.1279e-21)
(0.000148082 4.67546e-05 -3.12135e-23)
(-0.00172991 0.00302034 -3.15776e-22)
(-0.000804688 -0.0003165 -1.45444e-21)
(0.0019141 -0.104929 1.73148e-21)
(-0.00186885 -0.00154047 0)
(0.00917677 -0.00744088 0)
(0.00272538 -0.0024599 -9.66868e-22)
(-0.000387097 -1.13116e-05 9.20193e-22)
(5.71142e-05 3.31253e-06 1.2941e-21)
(-0.00101072 1.32253e-06 0)
(0.000149817 4.63358e-05 -5.08066e-22)
(0.000628551 3.46655e-06 1.04264e-22)
(9.60215e-05 6.3212e-05 5.61517e-22)
(-0.000560507 0.000128869 3.21042e-22)
(-0.00773386 -0.131189 1.58377e-21)
(0.000106996 2.67504e-05 1.66183e-21)
(-9.93613e-05 0.000255881 5.00853e-22)
(-0.000284673 2.74854e-05 0)
(0.00663362 -0.00203455 -1.70681e-21)
(9.02108e-05 4.48997e-05 -8.80322e-22)
(0.000140081 4.7904e-05 1.19075e-22)
(-0.0066495 -0.123757 -3.8485e-23)
(9.20226e-05 8.68065e-05 -1.16253e-21)
(-0.00606595 0.017394 0)
(5.82787e-05 8.16583e-06 3.62508e-22)
(-0.000201515 1.00316e-06 -1.01499e-22)
(-0.000156963 -1.83385e-05 -7.55254e-23)
(9.91834e-05 3.21624e-05 8.93696e-22)
(-0.000578394 -3.85098e-05 -1.14557e-21)
(0.00011515 1.8443e-05 -1.09324e-21)
(0.000114784 1.74084e-05 0)
(9.94998e-05 1.20319e-06 -1.25262e-24)
(0.000206513 0.000410458 1.34816e-21)
(-0.000785015 -0.000205015 5.35653e-22)
(0.000645179 6.99933e-05 2.3969e-22)
(0.000116999 2.07744e-05 0)
(6.79789e-05 1.73607e-05 -8.77836e-22)
(-0.00144185 0.00217019 3.96274e-22)
(-0.000431317 -1.89485e-05 1.77643e-25)
(-0.0110963 -0.00400193 -2.28709e-22)
(0.000862433 -0.118242 3.48985e-23)
(-0.000306705 -1.98041e-06 6.8806e-22)
(0.000105891 3.56092e-05 9.15484e-22)
(9.82452e-05 2.76614e-06 -1.08401e-21)
(-0.000308287 5.60877e-05 0)
(-0.00054858 0.000134119 8.11982e-22)
(-0.000244982 -0.000117126 0)
(-0.000527613 0.000123411 1.11219e-21)
(-0.000314941 4.79743e-05 5.6244e-22)
(0.00104357 0.000381766 -9.94689e-22)
(7.10311e-05 6.58292e-06 0)
(-0.000152534 6.95472e-05 1.06417e-23)
(-0.000244204 -1.03161e-05 0)
(-0.000307108 6.65233e-05 5.4861e-22)
(3.4462e-05 -0.000163945 -3.6017e-22)
(9.88445e-05 -0.000267966 0)
(-0.00468834 0.000706325 2.62424e-22)
(-0.000252989 -0.000121498 0)
(-0.000101881 -7.31196e-07 0)
(-0.00100635 -0.0032527 4.18828e-22)
(0.0379942 -0.00259954 0)
(-8.04284e-05 -6.67592e-06 0)
(-7.93953e-05 -8.02347e-06 -1.27281e-22)
(-8.97943e-05 -9.04852e-05 -4.70529e-22)
(0.000101836 3.49875e-05 1.47152e-22)
(-0.000159196 -1.5226e-05 -3.03975e-22)
(-0.000351194 3.59132e-05 1.30699e-21)
(-0.000396652 -1.13705e-05 -2.03e-22)
(0.000870925 0.00033642 6.27765e-22)
(9.70869e-05 2.80173e-05 1.35361e-21)
(-0.000168915 -0.000227009 -6.24836e-22)
(0.000104902 4.12177e-06 0)
(0.000111446 2.76843e-05 3.87422e-22)
(-6.66844e-05 -8.15478e-05 -2.59303e-22)
(9.37138e-05 1.41312e-05 0)
(-7.60129e-05 0.00362096 0)
(0.000112801 2.89597e-05 -4.0922e-22)
(-0.00441575 0.00199012 -2.0521e-22)
(-1.93291e-05 -0.000122102 6.47654e-22)
(9.23978e-05 2.92546e-05 -1.81875e-21)
(-0.000201602 -5.06822e-06 -1.68019e-21)
(-0.000542583 -2.80985e-05 0)
(-0.000166689 0.000113809 1.43555e-21)
(0.00628762 -0.102931 5.416e-21)
(0.000264998 -0.000114026 2.04441e-22)
(-0.000289795 3.99607e-05 -4.98891e-22)
(-0.00020896 -7.92644e-05 0)
(0.00146602 0.00075638 -1.55519e-22)
(0.000116614 5.79489e-05 0)
(0.00367065 -0.00799699 1.90778e-21)
(7.74474e-05 -3.916e-06 0)
(-0.000533449 -2.30724e-05 -1.6636e-25)
(-0.000182596 -0.000159823 -7.20968e-22)
(0.000119959 6.85141e-05 1.47288e-21)
(-0.0118498 0.0191423 -7.69149e-22)
(0.0101694 0.000403815 -1.48134e-21)
(0.000100756 4.11413e-05 -5.30616e-22)
(-0.00417213 -0.00535763 5.15895e-22)
(-0.000251353 -1.06379e-05 2.41283e-22)
(0.00266797 0.00162213 -1.06712e-21)
(-9.53692e-05 9.67426e-06 1.77416e-22)
(0.000109699 3.21555e-05 0)
(-0.000554262 2.54779e-05 5.60767e-22)
(0.000205827 -9.17687e-05 5.99245e-22)
(0.000100047 -3.53937e-06 -4.26945e-22)
(7.77498e-05 -0.000219247 0)
(-0.000148542 -0.000189161 0)
(0.000262862 0.000392014 -1.16567e-21)
(0.000116848 -2.83991e-05 -6.64055e-22)
(0.00257444 -0.00555713 6.53681e-22)
(0.000141368 4.72826e-05 -1.43391e-22)
(0.000950901 -0.0029171 0)
(0.00836114 -0.000305016 7.11654e-22)
(7.78697e-05 -2.30654e-06 -8.09051e-22)
(-0.000191379 -0.000224167 -5.05004e-22)
(0.00153334 0.00262896 2.88338e-21)
(-6.72559e-05 -0.000312703 0)
(7.47515e-05 3.00494e-06 0)
(0.000103864 5.3588e-05 -1.13297e-21)
(0.000182267 -2.2512e-05 -3.87448e-22)
(0.000113256 5.78198e-05 -9.45338e-22)
(0.000224263 -9.42025e-05 -7.08188e-22)
(-0.000524544 -0.000345041 -9.64758e-24)
(0.000223335 0.000196518 -4.12283e-22)
(-0.000580208 -3.43382e-05 0)
(-2.18475e-05 -0.000243088 0)
(9.80315e-05 6.79682e-06 -5.44283e-22)
(-0.000585866 0.000144321 1.1171e-21)
(0.000115604 5.85461e-05 0)
(0.0112633 0.0316301 1.87775e-21)
(1.08592e-05 -7.82562e-06 0)
(9.25204e-05 6.29223e-05 -6.38083e-22)
(9.1338e-05 6.48269e-05 5.43499e-22)
(3.77628e-05 -7.07451e-06 0)
(9.83544e-05 -1.69349e-06 1.85759e-21)
(0.0191918 0.0250489 2.41149e-21)
(7.10635e-05 1.7509e-06 0)
(-0.000117415 -0.00015807 1.93255e-21)
(-0.000195226 2.98689e-05 -5.49755e-22)
(-0.000572855 0.000131697 -1.15466e-21)
(0.000105823 2.84452e-05 -1.61708e-21)
(-7.09999e-05 -0.000114837 -1.36946e-22)
(0.000110912 4.65124e-05 3.22623e-25)
(-0.00045016 3.41632e-05 -1.08062e-21)
(0.000114041 5.72508e-05 7.2307e-22)
(-0.00130201 -4.65977e-05 0)
(-0.000271309 -0.000249561 7.90662e-22)
(0.000247098 -4.25425e-05 -3.25882e-22)
(-0.0139531 -0.00564746 -3.19384e-22)
(-0.000498806 -0.000532193 3.20715e-22)
(-7.33829e-05 -0.000155725 6.35394e-22)
(-0.0049047 -0.00689473 0)
(-0.000534409 0.000120645 -1.48997e-21)
(-0.00529257 0.00494514 3.96795e-22)
(-0.00552817 -0.000965335 -3.21157e-22)
(9.40109e-05 1.20516e-05 6.61282e-22)
(0.000114463 2.42406e-05 2.63902e-22)
(-0.000535669 -1.82477e-05 -1.31161e-21)
(6.29908e-05 1.1593e-05 0)
(-0.0024258 0.00551543 -6.66573e-22)
(-7.00935e-05 -0.000128575 1.20948e-22)
(0.00390976 -0.00708467 -6.82515e-22)
(6.13146e-05 1.25858e-05 -7.33186e-22)
(-8.96043e-05 -0.000439787 -1.3191e-21)
(-3.93876e-05 -9.35805e-06 0)
(0.000107379 2.12375e-05 6.71027e-22)
(-4.93561e-05 -1.12328e-05 8.2761e-23)
(-0.037414 0.00685633 -3.56809e-22)
(0.000224674 0.000218889 3.84456e-22)
(-0.00106834 -0.00414453 -1.26051e-21)
(-0.000516002 -0.000276837 1.90769e-22)
(9.91621e-05 5.41456e-06 0)
(1.08697e-05 -5.20929e-06 0)
(-0.000275724 -9.87117e-05 -6.74997e-22)
(0.000162846 -0.000162571 0)
(0.000124095 6.69874e-05 6.52542e-22)
(9.51207e-05 3.36822e-05 0)
(6.50968e-05 6.79833e-06 0)
(0.00228804 -0.00195769 1.06551e-21)
(3.03946e-05 1.77673e-06 0)
(-0.000507353 -0.000142905 0)
(0.000102667 3.6212e-05 9.19223e-22)
(0.000136366 5.14617e-05 0)
(0.000133543 9.14103e-05 -7.77946e-22)
(0.000177715 -0.000274712 -5.83261e-22)
(-0.0280036 0.0653691 0)
(-0.000419932 1.27091e-07 -4.12004e-22)
(8.6934e-05 3.69947e-05 3.41925e-24)
(-0.00250766 -0.00546395 -3.77258e-22)
(8.56043e-05 3.23121e-05 -9.94146e-23)
(0.00398911 -0.0012931 9.75788e-22)
(0.000104461 4.95504e-05 9.16196e-22)
(-0.000560517 -1.70484e-05 1.06884e-21)
(8.16549e-05 6.69592e-05 3.3709e-22)
(-0.0276048 -0.0924185 -1.35843e-21)
(-0.000220854 -0.000414134 0)
(-0.000579177 0.000589422 0)
(-0.00032097 4.1298e-05 -2.86125e-22)
(0.00010902 3.33727e-05 7.48038e-22)
(-0.000389054 -0.000254991 2.44319e-23)
(0.000146141 6.55771e-05 4.36924e-22)
(0.00640265 0.00287889 0)
(-0.000249172 -0.000151212 0)
(0.00161388 0.00422152 -2.7764e-21)
(0.00010881 8.23335e-05 -5.97697e-22)
(-0.000190768 -3.76463e-06 -5.49081e-23)
(-0.000567767 -0.000269649 -1.43679e-21)
(-0.000256306 -0.000145841 0)
(-0.000543531 6.26224e-05 0)
(-0.000150147 0.00018063 6.13675e-23)
(-0.00042164 3.89312e-06 -1.92811e-22)
(0.000311288 -3.26851e-05 -3.7434e-22)
(-0.000242308 -0.000158333 0)
(-0.000656629 -4.73904e-05 -6.79732e-22)
(-0.000537718 2.95884e-05 6.96462e-22)
(-0.000217482 -3.6913e-05 -1.01492e-21)
(5.88451e-05 1.54046e-05 7.50916e-22)
(0.000110275 5.36172e-05 7.4716e-22)
(0.00033057 9.9174e-05 1.67538e-21)
(-9.40053e-05 4.46657e-05 1.23046e-22)
(-0.00059813 -4.91484e-05 1.24612e-21)
(-0.000161537 0.000170324 -1.59439e-21)
(0.000186163 7.61522e-05 -5.4596e-22)
(-0.000453614 -0.000117502 -9.68357e-22)
(-0.000154412 -4.54852e-06 0)
(0.00521573 -0.00206894 0)
(0.000110715 4.58281e-05 -1.28573e-21)
(-0.000506095 0.000107803 8.74669e-22)
(-9.35276e-05 -0.000115854 5.06073e-23)
(9.78624e-05 1.75366e-05 -8.7358e-22)
(0.000189605 4.50208e-05 3.58201e-23)
(0.000102015 4.20872e-05 -6.41093e-22)
(0.000295797 0.000113897 4.15592e-22)
(0.000101413 4.16167e-05 1.11133e-21)
(0.000190758 0.000453849 0)
(7.90557e-05 -7.28946e-07 4.36969e-22)
(0.000169493 -3.69241e-05 0)
(0.000109657 3.16649e-05 8.63045e-22)
(0.000152481 6.14585e-05 0)
(0.000102398 6.95338e-05 0)
(-0.000201557 -0.000204446 1.43141e-21)
(0.000188308 -1.98829e-05 9.04399e-22)
(-0.000627715 8.96827e-06 8.0809e-22)
(0.00010408 3.85987e-05 -2.1178e-22)
(0.000104921 4.98156e-05 1.87306e-21)
(-0.000169343 -0.000219953 -4.75744e-22)
(0.00011017 5.26911e-05 -7.17688e-22)
(0.000192604 4.10213e-05 5.36183e-22)
(0.0242577 0.0345772 -9.61974e-22)
(6.7116e-05 -0.000116406 0)
(0.0580785 -0.0452242 -1.59438e-21)
(0.0281651 0.0216965 -1.7759e-21)
(0.00131999 0.00192686 -9.28012e-22)
(-9.05693e-05 -0.000128192 -6.70961e-23)
(-0.000101901 -0.000113534 0)
(0.0294428 0.0424361 4.45027e-22)
(-0.000698937 -6.00539e-05 0)
(0.00015349 -0.000211864 0)
(-0.000122697 -4.10715e-05 -6.61598e-22)
(0.000109205 3.65396e-05 -2.9431e-24)
(-0.00442971 0.0134977 -1.68466e-22)
(-0.000586412 -4.57451e-05 -1.2749e-21)
(-9.28426e-05 -8.76584e-05 3.67099e-22)
(0.00703616 0.00137484 0)
(-0.000696278 -0.000573966 -2.17513e-21)
(-0.000288211 -0.000576953 -2.38738e-21)
(0.000111668 5.48262e-05 1.7243e-22)
(4.72976e-05 -5.44755e-06 2.14667e-22)
(8.56244e-05 3.08435e-05 -5.64256e-22)
(-1.44124e-05 -9.74767e-06 0)
(-0.0174514 0.0388429 0)
(-0.000552412 -0.000184597 3.14119e-22)
(0.000103485 3.90993e-05 0)
(-9.64378e-05 -0.000273689 1.90513e-21)
(0.000414246 0.00023361 0)
(-0.000196359 -0.000556239 -2.33645e-21)
(-0.000965274 -1.15916e-05 -4.42377e-21)
(-0.000961965 0.000616378 -1.11923e-21)
(-8.31003e-05 -0.000100347 0)
(-0.0191826 0.0413277 3.52812e-21)
(-4.30772e-05 0.000159987 -9.51955e-22)
(-0.00347725 0.00455497 -6.54519e-22)
(0.000112137 1.08529e-05 6.33618e-22)
(-0.000299637 6.70802e-05 -5.29018e-22)
(6.47609e-05 1.74869e-06 1.03073e-21)
(0.000108996 3.39598e-05 0)
(-0.000371983 -1.26083e-05 0)
(-0.000390853 5.47595e-05 0)
(-1.68274e-05 0.000273172 8.79082e-24)
(0.000103917 3.50095e-05 0)
(0.000251182 7.67677e-05 -1.30959e-21)
(-3.49453e-05 0.000254874 -1.10124e-21)
(-0.000163681 8.81143e-07 1.02739e-22)
(-0.000492641 -4.70007e-05 0)
(-0.000222587 -0.000203673 -7.68368e-22)
(-0.000559087 0.00048334 0)
(0.000103207 5.37055e-05 5.9197e-22)
(0.00011034 3.46218e-05 -2.37969e-21)
(-0.0101603 0.00396921 2.54838e-22)
(-0.000601618 -0.000676212 0)
(-8.01381e-05 -1.28422e-05 8.41876e-23)
(0.00764863 -0.00842541 -1.14219e-21)
(0.0298118 -0.0449326 -7.71972e-21)
(0.000104082 4.79305e-05 -1.28133e-22)
(0.00414024 0.00276897 0)
(-0.000901806 0.000196263 0)
(7.75922e-05 1.42121e-06 9.58278e-22)
(-0.0410885 0.113516 1.94281e-21)
(7.11605e-05 1.73509e-05 4.63402e-22)
(-8.0197e-05 -9.83108e-05 0)
(9.45213e-05 4.97244e-05 0)
(7.01872e-05 1.69792e-05 0)
(-0.0291683 -0.0845934 -8.16249e-21)
(0.00557921 -0.00302205 5.94297e-22)
(0.00012014 7.11274e-05 -7.70559e-22)
(0.000111998 5.68349e-05 -1.05065e-21)
(0.00010513 2.9415e-05 8.16432e-22)
(8.20947e-05 1.51633e-05 8.67213e-22)
(0.00368043 0.00199989 0)
(-0.000215764 -7.47522e-06 0)
(0.000102717 3.68509e-05 0)
(7.87207e-05 -7.13329e-07 2.89523e-23)
(-0.000235114 -6.52691e-05 0)
(-8.90527e-05 -8.63898e-05 2.37854e-22)
(-0.00010082 -5.95256e-06 -5.79639e-23)
(-9.31804e-05 -8.65507e-06 -6.17972e-23)
(8.07431e-05 2.69686e-05 6.70751e-22)
(-0.0100015 0.00658856 -9.54626e-22)
(-0.000635451 0.000718868 2.17419e-22)
(0.000112689 3.0041e-05 1.05217e-21)
(-0.0121541 0.0152717 2.8292e-23)
(0.00454007 -0.000700652 3.75003e-22)
(-0.000261294 -7.57479e-05 -7.75283e-22)
(-6.67162e-05 0.000273672 5.71209e-22)
(-7.45632e-05 -0.00013137 -2.49088e-22)
(-0.000676041 -4.4226e-05 1.29674e-21)
(0.000169289 -0.00019093 -9.49479e-22)
(0.000187627 -1.38084e-05 5.26716e-22)
(0.000105322 4.02421e-05 -3.63711e-22)
(0.000809592 -0.00234916 0)
(-0.000264548 -0.000118925 0)
(0.00011071 3.44158e-05 2.25134e-21)
(-0.031808 0.0643551 0)
(-7.69029e-05 0.000121128 -1.32479e-21)
(9.61737e-05 3.75596e-05 0)
(-9.63212e-05 9.48707e-06 0)
(7.79157e-05 1.82493e-06 5.25786e-24)
(-0.000647684 -5.88892e-05 -1.55847e-21)
(0.000103632 3.31142e-05 1.0614e-21)
(-0.0240613 -0.0654577 -1.68697e-20)
(-0.00095227 0.00186967 0)
(-0.000259521 -0.000183185 0)
(9.37899e-05 1.68844e-05 -9.3051e-22)
(0.00010374 2.94597e-05 -1.28208e-21)
(-0.000221679 -4.46302e-05 1.04093e-21)
(0.000109207 5.08092e-05 -1.48517e-21)
(-0.00233853 -0.0013762 0)
(9.59511e-05 3.72216e-05 -8.47563e-22)
(-0.000281069 -0.000196465 3.79195e-23)
(0.000114277 3.87734e-05 -1.30457e-21)
(7.70482e-05 9.62987e-07 -2.3729e-23)
(0.000105126 4.85104e-05 -1.0213e-21)
(8.09122e-05 -8.74133e-05 5.83234e-22)
(-8.76657e-05 -9.87579e-05 2.86779e-22)
(8.1694e-05 1.45355e-05 -1.77651e-21)
(8.40416e-05 6.47479e-05 0)
(0.000197385 -7.28554e-05 -6.09343e-22)
(0.00161202 -0.00209353 -1.38439e-21)
(0.000105145 1.83016e-05 0)
(9.27827e-05 -3.59414e-05 -8.26691e-22)
(5.88602e-05 4.5923e-05 0)
(8.00875e-05 2.63008e-05 2.76566e-22)
(0.00026104 0.000335554 5.63147e-22)
(0.01287 -0.00820225 2.79047e-21)
(0.000106659 3.10853e-06 2.11179e-22)
(0.000185128 -6.90044e-05 1.01948e-21)
(-5.54274e-05 -9.91837e-05 -3.00696e-22)
(6.35401e-05 4.68798e-05 0)
(-0.000559618 6.10546e-05 0)
(0.0121085 -0.00622302 8.54539e-22)
(-0.000125968 7.08236e-06 1.49144e-22)
(-0.0329035 -0.0574976 -2.15134e-21)
(-0.000100949 2.20656e-05 0)
(-0.000224421 -5.23324e-05 0)
(-0.000610862 -6.20296e-05 -5.42963e-22)
(0.000105477 1.71478e-05 8.32905e-22)
(9.23002e-05 -4.05861e-05 4.15566e-22)
(0.000103351 3.27945e-05 1.03078e-24)
(-0.000307473 1.57787e-05 -5.07488e-22)
(0.000159009 5.16582e-05 -8.87794e-25)
(-0.000114592 -1.55641e-05 -2.12065e-22)
(-0.000461064 -0.000100646 1.22193e-21)
(0.000104214 4.62335e-05 1.4947e-22)
(-0.00056549 -0.000207486 0)
(7.45358e-05 2.58008e-05 3.92002e-22)
(8.25813e-05 2.97437e-05 -1.30762e-21)
(0.000106526 3.57083e-05 0)
(-0.0161309 -0.107199 0)
(-0.00623669 0.00314336 -4.27708e-22)
(-0.00061521 -6.91373e-05 1.64136e-21)
(0.000101262 -2.37497e-06 0)
(-0.000234107 -5.12996e-06 -9.09388e-22)
(-0.000110308 -1.42268e-05 2.55299e-22)
(-3.93134e-05 -8.16492e-05 0)
(0.000111028 2.13591e-05 0)
(-0.00051973 -3.97682e-05 -2.54406e-22)
(0.00359558 -0.0052809 0)
(0.000101397 4.1686e-05 -1.21171e-21)
(1.17678e-05 -0.000184094 -9.36376e-22)
(7.25449e-05 5.96121e-05 1.47716e-21)
(0.00787484 -0.00557144 0)
(0.000104291 6.89769e-05 0)
(0.000181474 -9.70897e-05 0)
(-0.00970652 0.0186035 1.00097e-21)
(6.02757e-05 -2.07954e-06 -2.83539e-22)
(5.83619e-05 6.25866e-06 -3.4271e-22)
(0.000104704 4.55022e-05 -5.41905e-22)
(0.000105368 4.85909e-05 -9.97246e-22)
(0.000119604 -2.7185e-05 1.5159e-21)
(-0.00059844 -5.63839e-05 -5.97933e-22)
(0.000109349 3.62777e-05 -1.13964e-21)
(-0.00021644 -0.000289408 -3.58869e-22)
(0.00014165 3.66e-05 1.39947e-22)
(7.74281e-05 -0.000109375 0)
(9.95608e-05 1.84278e-05 -9.23219e-22)
(0.000145182 0.000106345 0)
(-0.000402059 -9.19022e-06 1.88066e-21)
(9.63303e-05 3.69895e-05 0)
(0.000358899 0.000326098 -1.0797e-21)
(0.000147707 4.17134e-05 1.19972e-21)
(0.000127908 5.85451e-05 -4.19982e-22)
(7.79238e-05 -3.14354e-06 8.02427e-22)
(7.81886e-05 1.4594e-06 -9.97734e-24)
(-0.000621525 0.000615269 0)
(2.14223e-05 3.70213e-05 9.87738e-22)
(0.000155162 5.12411e-05 0)
(-7.8155e-05 -0.000182682 -3.67389e-22)
(-1.9568e-05 -3.9111e-05 3.14172e-22)
(0.00640992 0.0432097 -4.84646e-23)
(0.0157384 0.0371782 -2.65849e-23)
(9.55541e-05 1.48439e-05 0)
(-0.000101029 -1.41092e-06 -5.15979e-23)
(-0.000588533 -5.14303e-05 1.20128e-21)
(-0.000499235 5.14737e-05 8.90873e-23)
(-0.000420077 -1.3932e-05 8.90748e-22)
(0.000109212 2.61339e-05 -1.98176e-22)
(0.00010471 3.14485e-05 0)
(0.000198007 6.13166e-05 0)
(0.00818604 -0.00230343 0)
(0.00159223 0.00502492 -6.0427e-22)
(0.000108257 2.70731e-05 0)
(0.000102589 3.0559e-05 0)
(-0.000290196 5.53644e-05 -2.34662e-24)
(0.000102357 4.34552e-05 0)
(0.000108792 2.7108e-05 0)
(0.00020812 -0.000107886 0)
(6.9551e-05 -1.00521e-05 -7.08355e-22)
(0.000132634 8.43657e-05 -1.21104e-21)
(-4.89762e-06 7.63377e-05 -6.67482e-22)
(-0.00229106 -0.00186336 -3.77692e-22)
(-0.00022469 -0.000281785 1.77342e-22)
(0.000263282 9.89423e-05 -8.51755e-22)
(-0.0339036 0.0105712 1.54484e-22)
(-0.000307648 -2.68006e-05 1.14848e-21)
(0.000105401 3.86359e-05 -4.81256e-22)
(-0.000241932 4.57845e-06 -6.62472e-24)
(0.000104471 3.43205e-05 5.54955e-22)
(-0.000688009 -0.000243715 1.00381e-21)
(-0.000580552 -1.43819e-05 -7.01771e-22)
(-2.71734e-05 -9.81988e-05 -3.79255e-22)
(0.00010553 4.36777e-05 -1.58702e-22)
(-0.000232512 -4.88509e-05 0)
(-0.00473241 -0.00159716 -3.84541e-22)
(0.000543095 -0.000793161 2.53805e-22)
(-0.000300406 -0.000278018 -3.82459e-22)
(4.68029e-05 5.04501e-05 -3.26798e-22)
(-0.000221323 -0.000197051 -1.00434e-21)
(0.000272071 0.00011566 -5.78403e-22)
(0.000118132 6.67831e-05 3.85686e-22)
(0.000101256 3.51279e-05 -8.72304e-22)
(-0.000562476 -9.37064e-06 1.35478e-21)
(0.000350467 -0.00081668 0)
(0.000156688 6.79553e-05 -7.08869e-22)
(-6.69958e-05 0.000351053 -7.32351e-22)
(0.00709164 -0.0110877 0)
(0.0224759 0.00487052 0)
(-0.000419016 -0.000128745 -7.97467e-22)
(0.000147717 0.000102836 -5.01064e-22)
(-0.00752949 0.0110758 0)
(0.000146161 -6.07361e-05 1.01507e-21)
(8.11247e-05 1.16886e-05 0)
(-0.000761182 -2.84811e-05 -3.44965e-22)
(8.06942e-05 2.56022e-05 3.69115e-23)
(-0.000500064 -0.000191869 3.13353e-22)
(-0.000564059 2.53632e-05 -2.90249e-22)
(0.000109469 5.16225e-05 0)
(0.000105611 2.60445e-05 -1.02339e-21)
(7.98908e-05 2.28259e-05 -4.13547e-22)
(0.000109903 1.59915e-05 7.69635e-22)
(0.000161709 -1.7338e-05 0)
(-0.000286257 6.00595e-05 0)
(-0.000256418 -7.27678e-05 -2.02595e-21)
(-0.000592197 8.30059e-06 -4.52044e-22)
(-0.000814158 -2.68464e-05 -3.2528e-22)
(6.95258e-05 -9.13805e-06 7.18055e-22)
(-4.48303e-05 6.31162e-05 6.67241e-22)
(8.37824e-05 3.11702e-05 -6.94078e-22)
(-0.000709831 -8.23763e-05 0)
(6.29512e-05 2.46436e-05 0)
(0.000143041 3.79575e-05 -9.2932e-22)
(0.000104647 3.19865e-05 0)
(0.000102445 2.37531e-05 1.83369e-21)
(0.00440115 -0.0434801 -1.64272e-21)
(0.000134299 8.74091e-05 7.05705e-22)
(0.000116034 1.78221e-05 -1.76314e-24)
(7.86447e-05 6.12904e-05 0)
(-0.000615881 -6.60239e-05 -1.13952e-21)
(-0.00083527 -2.84865e-05 9.17045e-22)
(-0.000503396 -0.000155874 0)
(9.21441e-05 1.13317e-05 3.33772e-22)
(-0.000134374 -6.39468e-05 -7.26281e-22)
(0.000104212 2.87385e-05 1.48849e-21)
(0.000138908 4.99396e-05 1.0971e-21)
(-0.000140105 -6.83865e-05 7.1126e-22)
(0.000165437 -1.39519e-05 0)
(7.81907e-05 5.0244e-07 1.44029e-23)
(0.000106191 3.23703e-05 9.93522e-22)
(-0.000656548 -3.20331e-06 0)
(-0.000472855 -0.000150246 4.7725e-22)
(-0.000478285 -4.40422e-05 0)
(0.000107642 2.03469e-05 -8.35788e-22)
(-0.0025819 -0.00132469 3.22279e-22)
(0.000105415 3.01998e-05 6.15817e-22)
(-0.000276051 -0.000307871 3.13393e-22)
(-0.000409268 -1.33252e-05 -9.74614e-22)
(-0.000612302 0.00014318 2.93421e-22)
(0.000103418 3.62955e-05 2.94184e-23)
(-0.0001655 -0.000197542 0)
(-3.48375e-05 -9.11897e-05 -5.77749e-22)
(-0.000138582 0.000112521 9.05759e-24)
(5.75158e-05 7.77938e-05 -1.14754e-21)
(6.50195e-05 -2.64668e-06 7.58831e-22)
(7.23991e-05 -1.10772e-05 0)
(0.000788597 0.00156136 -6.0292e-22)
(-0.000312784 -0.000596123 -3.55452e-22)
(-0.00380182 0.00238449 -1.82291e-22)
(7.06442e-05 -0.000104337 2.65939e-22)
(0.00014097 5.45942e-05 0)
(8.7003e-05 6.58889e-05 -5.65602e-22)
(0.000110114 2.50779e-05 -1.73119e-23)
(-0.000496281 4.79741e-07 1.30772e-22)
(-0.000710287 -0.0002237 -5.04484e-22)
(-0.000689333 -0.000220356 -9.41003e-22)
(-8.04649e-05 -0.000109352 0)
(-0.000217646 -3.52498e-05 7.04905e-22)
(0.000289229 -0.000138326 -2.21277e-22)
(-0.0110587 0.00938398 -2.24329e-22)
(0.000109205 1.6805e-05 1.0228e-21)
(-0.0141522 0.00846645 0)
(-0.00123306 -0.0342446 -1.57118e-21)
(0.000297026 0.000195249 -2.22081e-22)
(-9.80848e-05 -9.24875e-05 -1.69925e-22)
(0.000119838 6.18546e-05 -2.38042e-24)
(-4.69059e-05 0.00223031 -3.38448e-22)
(0.000102696 3.53719e-05 -3.96505e-23)
(0.00258254 0.00228684 2.1222e-21)
(0.000110168 3.52656e-05 1.06187e-21)
(-0.000215762 -3.93146e-05 6.6367e-22)
(-0.000211804 -5.67559e-06 9.52944e-22)
(0.000164898 5.83966e-05 1.61583e-21)
(0.000105112 2.57318e-05 -5.14483e-22)
(0.000116472 9.23677e-05 5.43929e-22)
(9.02873e-05 3.3248e-05 0)
(-3.55427e-05 -0.000146929 -4.8229e-22)
(-0.000245611 -0.000107747 -9.22078e-24)
(-9.36137e-05 4.22812e-05 3.44121e-23)
(0.00232891 -0.00392411 3.56737e-23)
(5.82324e-05 0.000322419 1.11905e-21)
(6.27306e-05 1.02418e-06 0)
(0.000122189 1.71158e-05 0)
(-9.3597e-05 -9.58322e-05 -2.99119e-22)
(8.87493e-05 6.37683e-05 -6.20111e-22)
(0.000103237 3.11112e-05 0)
(-0.000604034 0.000136257 -1.92688e-23)
(0.000145578 -4.53503e-05 0)
(0.00010583 3.13576e-05 8.00611e-22)
(-0.000419875 1.78312e-05 -7.85225e-22)
(0.000107689 2.86604e-05 -8.36299e-22)
(0.000105895 2.62434e-05 1.00082e-21)
(0.000102072 1.77337e-05 0)
(7.56309e-05 2.04349e-06 0)
(-0.00183994 -0.00249576 2.30801e-21)
(8.302e-05 3.02923e-05 1.99993e-21)
(-0.000625053 0.00191945 0)
(0.00011272 9.33951e-06 -8.89331e-22)
(-0.00033378 -6.42825e-05 1.29437e-21)
(-1.82715e-05 -6.87055e-06 3.8385e-23)
(-0.000410563 -1.6192e-05 -4.02769e-22)
(0.025213 -0.0116388 3.25101e-21)
(8.5218e-05 3.02479e-05 0)
(-0.000135493 -0.000193674 6.003e-22)
(6.00074e-05 -9.79033e-05 -2.67945e-22)
(-0.00050758 6.40703e-05 1.63164e-22)
(-0.000141541 9.78816e-06 -2.37041e-23)
(0.00125644 0.000347613 -1.79188e-21)
(0.000115635 3.8991e-05 5.7518e-22)
(0.000114749 8.83278e-05 -5.58452e-22)
(0.00014084 5.01715e-05 -1.59215e-21)
(0.00011081 -0.000191742 5.85825e-22)
(0.000111131 2.19611e-05 0)
(0.000213578 7.68944e-05 0)
(0.049192 -0.0480743 -2.56916e-21)
(-0.000359163 1.9749e-05 7.54555e-22)
(-0.000398209 1.89265e-05 -1.81343e-24)
(0.000104713 4.188e-05 -1.33292e-21)
(9.7822e-05 3.88744e-05 0)
(0.0187083 -0.032992 0)
(0.000212454 -6.55481e-05 0)
(0.00300781 -0.00263715 -1.26411e-21)
(0.000103581 4.8584e-05 0)
(0.000106508 3.50927e-05 0)
(7.11875e-05 -1.10989e-05 0)
(0.000103969 3.57645e-05 0)
(-0.00019226 -1.25001e-05 3.72924e-22)
(7.09047e-05 2.67612e-06 0)
(9.46116e-05 1.30871e-05 0)
(-3.12973e-05 -2.1394e-06 1.12156e-22)
(0.0188627 0.00216544 6.71803e-22)
(8.29965e-05 -0.000107791 5.76874e-22)
(0.00685631 -0.0511613 -8.71029e-22)
(-0.000212871 2.07331e-06 1.04532e-22)
(-0.000333132 -0.000208634 -7.82695e-22)
(0.00541593 -0.0100335 0)
(-0.000475933 -2.21769e-05 0)
(-0.000233657 -0.00031039 0)
(6.60116e-05 -0.000104061 5.39622e-22)
(0.000173845 0.000126309 -3.99417e-22)
(9.32635e-05 1.33149e-05 0)
(-0.00554574 0.00594412 5.04085e-23)
(-0.000462565 2.03802e-05 -1.16902e-21)
(9.89931e-05 -2.08899e-06 -5.92214e-22)
(0.00022318 0.000279896 5.92178e-22)
(-0.000204843 -5.83353e-06 1.3369e-21)
(-0.00049264 8.06467e-06 0)
(0.00775345 0.00920552 -9.22381e-22)
(9.69028e-05 3.76101e-05 4.3856e-22)
(2.30562e-05 -6.25585e-06 4.34734e-23)
(-0.000157635 -0.000129443 6.14613e-22)
(0.000159788 5.69971e-05 -1.16058e-21)
(-0.000610562 -4.42747e-05 -2.82092e-22)
(0.00124005 0.000344267 1.96069e-21)
(7.92246e-06 -8.49039e-06 0)
(-0.000314574 2.56536e-05 -1.14319e-21)
(-0.000545105 -1.87849e-05 0)
(0.0035598 -0.00414804 7.23557e-22)
(-6.99558e-05 0.000414932 4.90134e-22)
(0.000116061 1.85204e-05 1.05745e-21)
(-0.0446985 0.0697579 9.70381e-23)
(8.79904e-05 -7.8202e-06 -5.78737e-22)
(6.85795e-05 1.44606e-06 -9.14668e-22)
(0.0418865 0.0218767 0)
(0.000227017 -5.89664e-05 0)
(2.12685e-05 -7.95827e-06 0)
(-0.000569176 -6.49008e-06 -1.3718e-21)
(0.00587736 -0.00674966 0)
(6.5741e-05 1.17614e-05 -7.86405e-22)
(0.000102032 4.32734e-05 -3.9378e-22)
(0.000179857 -5.80551e-05 0)
(-0.000393127 -0.000215288 0)
(0.000122211 -3.85605e-05 2.46934e-22)
(0.000112745 3.9789e-05 -5.18238e-22)
(1.09847e-05 -0.000135916 9.60173e-22)
(0.000894539 0.000401248 -1.24731e-21)
(0.00011027 2.57146e-05 -9.22127e-22)
(-0.00470238 -0.1065 7.82873e-23)
(-0.000775113 -1.76123e-06 1.07585e-21)
(-8.5008e-05 0.000211321 3.17247e-24)
(-0.00029075 7.66364e-05 -9.76787e-26)
(-0.000557226 -1.80394e-05 0)
(9.75833e-05 1.3247e-05 -1.38446e-22)
(0.000313605 -7.75191e-05 0)
(-7.03044e-05 -0.000239299 4.01396e-22)
(-8.34048e-05 -9.01426e-05 1.18376e-23)
(0.000105359 3.7905e-05 7.22699e-22)
(-0.000290002 -0.000156014 0)
(6.77654e-05 2.62524e-05 1.16235e-21)
(9.08734e-05 1.16759e-05 -3.3464e-22)
(0.000912038 0.00153358 -4.16582e-22)
(0.000870662 0.00193625 0)
(-0.000228834 -6.2871e-05 -2.24741e-21)
(-0.000803512 -2.35208e-05 7.8133e-22)
(-0.000540159 1.75992e-05 -1.83922e-21)
(8.92355e-05 1.09094e-05 0)
(9.63068e-05 1.20088e-05 5.76427e-22)
(7.92041e-05 2.68549e-05 1.19166e-21)
(-0.000634304 0.000134941 0)
(0.000103486 3.69963e-05 -2.8045e-23)
(0.000172958 7.30536e-05 1.25856e-21)
(7.65802e-05 -3.80707e-06 0)
(0.000104775 3.01468e-05 -1.51498e-21)
(0.000143858 6.09064e-05 -1.52459e-21)
(0.000576349 -0.000881119 -4.61163e-22)
(0.000142897 5.95548e-05 1.40981e-21)
(-0.000889715 0.000108164 -1.24254e-23)
(-0.00065894 -5.93293e-05 0)
(-0.000405126 0.0108966 2.4279e-22)
(0.000107397 2.22637e-05 6.27504e-22)
(-0.000273026 6.66625e-05 5.46275e-22)
(-0.000187926 -3.52359e-07 -2.35289e-22)
(-0.000620902 -6.4416e-05 1.10078e-21)
(0.00011757 -3.19445e-05 -4.09065e-22)
(0.000315319 0.000191516 2.14907e-22)
(-0.000314623 -0.000184389 2.33864e-21)
(-0.000571024 -3.98361e-06 0)
(7.78743e-05 2.61727e-05 9.88713e-22)
(-0.000230735 -6.41525e-05 2.2613e-23)
(0.000115026 2.48366e-05 2.30497e-22)
(0.00983952 -0.00720033 0)
(0.000103758 3.10573e-05 6.1311e-22)
(9.54374e-05 1.78233e-05 -9.53935e-22)
(0.000220582 -0.0079132 0)
(0.000118351 3.89596e-05 0)
(0.00507318 -0.00380958 -6.52082e-22)
(0.00010367 4.12933e-05 0)
(0.000544635 -0.00101492 0)
(6.8174e-05 5.97984e-06 0)
(-0.000221373 -3.31613e-05 0)
(-0.024535 0.0670926 0)
(0.000550404 0.000193029 8.24128e-22)
(9.95242e-05 2.8161e-05 -7.39684e-22)
(-0.000110947 -0.000215801 1.14478e-21)
(0.000100142 3.952e-05 3.0807e-22)
(-0.000551319 1.09839e-05 1.37543e-21)
(-0.00263706 0.00315864 4.90269e-22)
(-0.000186875 3.26732e-05 7.14291e-22)
(9.29041e-05 3.06898e-05 1.11538e-21)
(0.000104832 -0.000216059 -4.50884e-22)
(0.000553408 -8.92126e-05 0)
(-0.042985 0.0277395 -1.42992e-21)
(0.000825353 -0.130467 -7.12084e-21)
(0.000246596 7.06936e-05 5.88303e-22)
(-0.00412035 0.00618873 -4.96042e-23)
(9.71596e-05 3.84206e-05 0)
(-0.000627899 0.000148253 -1.14332e-21)
(0.00140814 0.000572916 -7.48172e-22)
(0.000137107 3.48698e-05 -1.791e-21)
(0.000404425 0.000397552 -5.23624e-22)
(0.000170067 0.000171712 6.87235e-22)
(9.29888e-05 3.26457e-05 -1.31745e-21)
(0.000107815 2.91225e-05 2.28437e-21)
(0.000170948 -5.38508e-05 0)
(-6.49922e-05 -3.41627e-06 0)
(0.0360839 -0.0253163 0)
(9.72302e-05 3.7514e-05 0)
(5.08917e-05 0.00028018 -9.41085e-22)
(0.000105664 4.02787e-05 7.7364e-22)
(0.000432368 -0.00259467 2.92354e-22)
(0.000773534 -0.135641 6.46758e-21)
(0.000105499 3.05649e-05 2.73112e-22)
(-0.0153668 0.0104782 1.61263e-22)
(4.6212e-05 0.00193057 3.70792e-22)
(0.000219956 0.000314071 1.95225e-22)
(0.000146248 4.45896e-05 -8.53803e-22)