/*--------------------------------*- C++ -*----------------------------------*\
| =========                 |                                                 |
| \\      /  F ield         | OpenFOAM: The Open Source CFD Toolbox           |
|  \\    /   O peration     | Version:  v2012                                 |
|   \\  /    A nd           | Website:  www.openfoam.com                      |
|    \\/     M anipulation  |                                                 |
\*---------------------------------------------------------------------------*/
FoamFile
{
    version     2.0;
    format      ascii;
    class       surfaceScalarField;
    location    "100";
    object      ddtCorrDdt0(phi);
}
// * * * * * * * * * * * * * * * * * * * * * * * * * * * * * * * * * * * * * //

dimensions      [0 3 -2 0 0 0 0];
oriented        oriented;


internalField   nonuniform List<scalar> 
22766
(
-2.88855e-05
1.29683e-06
2.75886e-05
4.42846e-06
6.74113e-07
-5.10236e-06
-0.000527173
-0.000107338
0.000634486
5.31346e-05
-2.69883e-05
-2.61463e-05
1.9195e-05
1.28732e-08
-1.92085e-05
2.94979e-05
-3.40475e-05
4.54818e-06
2.52693e-07
-9.0386e-06
8.78516e-06
2.7553e-05
-2.11174e-05
-6.42834e-06
0.000223819
-0.000204127
-1.96783e-05
5.8246e-05
-4.74505e-05
-1.07946e-05
1.19507e-05
1.41197e-05
-2.60711e-05
-7.48559e-06
4.33928e-05
-3.59075e-05
0.000677286
0.0018685
-0.00254577
5.526e-05
-1.47095e-05
-4.05518e-05
1.27358e-05
-1.62186e-05
3.48296e-06
-6.14027e-05
-2.81899e-05
8.9594e-05
-4.09327e-06
5.87192e-06
-1.7786e-06
7.39253e-05
-5.47146e-05
-1.92115e-05
2.33744e-06
4.10192e-05
-4.33552e-05
5.41458e-06
-1.62378e-05
1.08233e-05
3.8462e-05
0.000185361
0.000543536
-5.09781e-05
-0.000492554
7.90532e-09
-1.1235e-05
1.12266e-05
0.000225813
-0.000187353
-1.93451e-05
-0.000507852
-2.32801e-05
3.17276e-05
-8.4476e-06
-4.88823e-06
-5.03715e-06
9.92312e-06
4.38333e-05
-8.0998e-05
3.7166e-05
1.58905e-05
-1.33563e-05
-2.53399e-06
-0.00728704
-0.0176822
0.0249691
-0.000115733
0.000154625
-3.88815e-05
2.8197e-07
1.07126e-05
-1.09941e-05
-9.71752e-05
-3.75639e-05
0.00013474
5.9774e-05
0.000651732
-0.000711496
-1.14988e-05
1.17806e-05
-6.12681e-07
-7.62066e-06
8.2341e-06
3.77118e-05
2.05341e-05
0.00109956
-5.39652e-05
-0.0010456
4.36668e-05
1.15915e-05
4.38395e-05
3.00849e-05
-1.28195e-05
7.08837e-05
-5.80657e-05
2.21024e-05
6.72908e-06
-2.88317e-05
-0.000215016
0.000187147
2.78718e-05
-0.000152672
0.00147205
-0.00131938
0.0715696
-0.0267745
-0.0447954
-4.21818e-05
8.05798e-05
-3.84012e-05
6.56974e-06
9.32969e-06
-1.59001e-05
2.10647e-05
5.70687e-05
-7.81335e-05
-1.53699e-05
1.25516e-05
2.8184e-06
2.0018e-05
-3.32187e-05
1.32001e-05
0.000154061
7.17542e-05
0.000151162
-0.000161567
1.04107e-05
3.20914e-05
-4.46554e-05
1.25637e-05
0.00139492
-0.000592188
-0.000802726
-4.59686e-05
-1.4636e-05
6.0601e-05
0.0556696
0.0159001
-0.000381013
-6.59959e-05
0.000447014
-0.000750816
-0.00482965
0.0055805
0.00155539
-0.000455826
2.45781e-05
-2.45779e-05
-5.31488e-07
4.96018e-06
-0.000109694
-0.000402509
0.000512201
4.41728e-05
-1.20811e-05
-0.000242582
0.000265937
-2.33566e-05
-3.98592e-06
2.31803e-05
4.16718e-05
-3.40781e-05
-7.59397e-06
-0.0758875
0.049113
3.85884e-05
-5.13699e-06
-3.34515e-05
1.49614e-05
3.34246e-05
-4.83868e-05
0.000129834
-0.000196079
6.62386e-05
0.00157371
0.00139949
-0.00297316
1.20137e-05
-1.20059e-05
4.05513e-05
-2.88178e-05
-1.17357e-05
-0.0182602
-0.057627
2.17609e-05
-4.16927e-05
1.99325e-05
-1.78701e-05
0.00389302
-0.00387464
-5.03599e-06
9.42935e-07
-0.000113958
1.67835e-05
-8.35386e-05
-7.7861e-06
9.13249e-05
8.08e-06
-8.69194e-06
4.02069e-05
-3.25117e-05
-7.69522e-06
-6.05275e-08
-1.36729e-05
1.37329e-05
-1.16849e-05
1.16238e-05
1.08717e-05
-8.36617e-06
-2.50559e-06
0.000112632
-0.000122207
9.56918e-06
3.65326e-05
-8.25021e-05
-7.83845e-05
-0.000164199
5.43759e-06
-1.03259e-05
3.17867e-05
-2.2892e-06
0.000954793
0.000440127
-2.45397e-05
2.1436e-05
3.10371e-06
-0.0026953
0.0033725
-0.0645631
0.0463029
-2.27718e-05
1.83447e-05
4.42698e-06
-1.06629e-05
1.60775e-05
8.45541e-06
2.41635e-06
0.000135515
-0.000202858
6.73463e-05
2.70587e-05
1.46129e-05
2.83076e-05
-0.000144039
-3.46448e-05
2.28715e-05
1.17732e-05
0.000206234
-7.0718e-05
-4.93994e-05
0.000349913
-0.000300512
-5.11688e-06
6.28116e-06
-1.16421e-06
-0.00011274
5.1338e-05
-0.000139323
-4.87052e-06
0.000144193
-0.000122273
-8.05966e-05
-2.91035e-06
-5.9614e-06
8.86967e-06
-7.62704e-05
0.000128368
-5.20946e-05
-0.00276577
0.00145183
0.00131393
2.83344e-06
4.72886e-05
-5.01242e-05
-7.71214e-05
7.71216e-05
0.00109602
-0.000217602
-0.000878419
-0.0170394
0.00975237
4.72517e-05
-3.74228e-06
-4.35096e-05
1.70353e-05
3.02164e-05
7.08801e-05
-3.6006e-05
-3.48721e-05
-6.50964e-06
1.488e-05
-8.36996e-06
-9.89481e-05
1.54095e-05
-2.78544e-05
2.74776e-05
3.75218e-07
-2.30062e-05
1.9631e-05
3.37498e-06
-0.000276662
0.000227262
6.57184e-06
4.00762e-06
-1.05815e-05
-1.21588e-05
1.73495e-05
-5.19211e-06
3.5981e-05
-3.36424e-05
-1.16266e-05
1.28197e-07
-2.1533e-05
-3.17285e-05
5.3262e-05
1.00675e-06
3.79324e-05
-3.89393e-05
0.000372847
0.000170685
-1.31441e-05
1.51708e-06
-0.00225667
-0.000509105
-1.0281e-06
-6.37044e-05
6.47379e-05
9.19e-06
-2.61908e-06
-6.67827e-06
-7.43374e-05
8.10158e-05
-2.88659e-05
-1.96134e-08
-0.000105586
0.000129187
-2.36143e-05
-0.0430996
-0.0214635
6.30535e-05
4.87535e-05
-0.000111808
0.000185966
-5.6139e-05
-2.36415e-05
2.6473e-05
0.000394409
-0.000334631
-3.45051e-05
2.61482e-05
8.35651e-06
0.00133869
-0.00033922
-0.000999453
-5.60495e-05
3.98735e-05
1.61753e-05
-2.93128e-05
6.03277e-06
-1.56213e-05
3.46078e-06
-6.66534e-06
-2.30957e-05
2.97607e-05
-0.00372331
0.00370553
0.00168954
0.00402022
-0.0057098
2.7547e-05
4.66396e-07
-2.8013e-05
0.00184112
0.000209445
-0.00205056
-1.62981e-05
-0.000123024
-0.000409717
0.00020119
0.00020854
-5.01218e-05
1.58218e-05
3.43019e-05
1.72267e-05
-2.16053e-06
-1.5066e-05
-2.46073e-06
3.85573e-05
-3.6097e-05
-4.96886e-05
-4.08067e-05
9.04967e-05
1.17674e-05
-9.21208e-06
-2.55566e-06
1.63078e-05
-9.25769e-05
-5.95151e-05
0.000142264
-8.27517e-05
8.34041e-05
2.92255e-05
-4.10834e-05
6.69966e-05
-2.59143e-05
0.00370514
-0.00244701
-0.00125814
6.61448e-06
3.39362e-05
-0.000811813
0.000505512
0.000306275
-0.00192262
0.00361215
2.17392e-05
3.13952e-05
-0.000162907
6.20574e-05
0.000100839
-3.68712e-05
3.72412e-05
-0.000165649
0.000128397
3.17906e-05
-3.9276e-05
-8.26249e-06
-1.46321e-05
2.28958e-05
-4.19166e-05
-3.3548e-05
7.54642e-05
2.83925e-05
-2.43574e-05
-4.03571e-06
4.95936e-05
-9.9281e-05
0.000225377
-0.000173883
-5.14957e-05
-4.14578e-05
-2.19182e-05
6.33745e-05
1.65687e-05
2.36381e-05
-6.29261e-05
0.000100163
-9.47466e-06
9.54111e-06
-6.63046e-08
1.69192e-05
-3.52167e-05
1.82973e-05
-2.53841e-05
-9.12122e-06
0.0130235
0.0060407
-0.0190665
-6.93201e-06
7.09658e-06
-1.64638e-07
1.87803e-05
-1.87674e-05
-3.03838e-06
2.18185e-05
4.02992e-06
-3.30839e-06
-7.20932e-07
3.40129e-06
-0.000806191
0.0138297
1.92278e-06
-3.71571e-05
3.52337e-05
1.12364e-05
-1.41468e-05
-0.00012759
5.60944e-05
7.14954e-05
-1.7159e-05
-1.01605e-05
-5.20948e-06
6.08161e-05
-7.36348e-05
2.51992e-05
-3.21944e-05
6.99358e-06
-2.61723e-05
-1.68155e-06
3.00766e-06
-0.000784172
0.000674479
-2.46843e-05
6.63836e-05
-4.17018e-05
-1.31024e-05
-8.81144e-06
2.19138e-05
-0.00191533
-0.00755109
0.00946646
0.000101576
0.000123801
-1.25195e-05
8.5868e-05
-7.33516e-05
0.00250447
-0.000663364
-7.58614e-06
0.00365532
-0.0038722
0.000216885
0.000867457
-0.000966115
9.86426e-05
-5.9449e-06
-3.60357e-05
4.19806e-05
1.06637e-05
4.88714e-08
-1.99089e-05
-8.95715e-06
7.31177e-07
5.14098e-06
0.00179718
0.00118071
-0.00297791
5.92779e-05
-9.96459e-05
4.03684e-05
0.00375657
-5.13884e-05
4.97071e-06
-4.23955e-06
-3.82256e-05
0.000129827
-9.16015e-05
1.1877e-05
1.56786e-05
-1.35804e-05
1.22269e-05
1.35313e-06
-3.13347e-05
1.02177e-05
-0.00644539
0.0246728
-0.0182274
2.30267e-05
-6.44832e-05
0.000943344
1.89829e-05
-4.39575e-05
2.49744e-05
-1.01928e-06
-6.48116e-06
-4.50995e-07
1.7007e-05
-4.58839e-06
-1.24182e-05
3.14415e-05
-1.68212e-06
-2.9759e-05
-2.92177e-05
4.7317e-05
-1.80991e-05
9.97401e-06
-9.7217e-06
-5.64835e-06
-1.57954e-05
0.00145926
-0.0014435
2.87835e-06
1.15213e-06
1.12109e-05
-3.75971e-05
2.63856e-05
8.47687e-06
-1.51287e-05
6.65202e-06
3.02046e-05
7.58048e-06
-3.77854e-05
2.11557e-05
1.32051e-05
-3.43612e-05
4.35926e-05
-0.000154983
0.000111389
0.0342354
-0.0165728
2.32951e-05
-4.85909e-07
-2.28091e-05
-6.24792e-06
3.12269e-05
-2.49792e-05
0.00168148
2.92119e-05
-0.000707626
-0.000524846
0.00123249
9.83587e-06
-2.41839e-05
1.43485e-05
-3.22762e-05
1.23671e-05
-1.03136e-05
-8.44191e-06
1.87557e-05
-0.0542718
0.0504847
0.00378729
9.7208e-05
-0.000135433
6.81336e-05
-7.47077e-05
6.57532e-06
-1.55939e-05
-7.17799e-06
3.98357e-06
1.3243e-05
-0.000269752
0.000175141
9.46081e-05
4.91088e-06
5.4726e-06
-1.03852e-05
0.00444158
-0.000526042
-0.00391556
-0.000149699
-1.67557e-05
0.000166445
-0.000648164
0.000597177
4.7914e-05
-2.61533e-05
-9.73502e-05
9.06721e-05
4.17309e-05
-2.27482e-05
-0.000173341
2.36496e-05
-4.19015e-05
1.43736e-05
2.75278e-05
1.53084e-05
3.43162e-06
-1.874e-05
2.07673e-05
2.52777e-06
-2.52347e-05
1.21312e-05
-7.72611e-06
-7.89656e-06
-3.06191e-05
3.19564e-05
-1.33761e-06
3.07392e-05
-3.32017e-05
-0.000115133
0.000115888
-7.59644e-07
7.26476e-07
4.24426e-06
5.80811e-06
1.97958e-05
-2.56038e-05
-4.01874e-05
4.33822e-05
-3.19547e-06
3.97898e-05
-6.26967e-05
2.29078e-05
3.18151e-05
1.42642e-06
-3.32412e-05
-0.000121623
1.603e-05
5.40507e-05
-1.68352e-05
-3.72167e-05
2.99347e-05
-1.8724e-05
-9.50534e-06
9.75622e-07
8.53012e-06
0.00319615
-0.00112046
-0.0020757
3.32529e-05
-8.05418e-06
1.2617e-05
2.0383e-05
-3.3e-05
4.76826e-05
4.08729e-05
-8.85536e-05
1.93352e-06
-3.61032e-05
3.41692e-05
4.07863e-05
-5.3065e-05
1.22784e-05
-2.3135e-05
3.03883e-05
-7.25377e-06
-1.11391e-05
-2.90487e-05
-2.87051e-05
5.5696e-06
-3.73545e-05
-8.48509e-05
3.05987e-05
1.3191e-05
-4.37897e-05
7.4262e-06
-1.62379e-05
-1.48984e-05
1.2738e-05
-9.32483e-06
1.42354e-05
1.35477e-05
1.05793e-05
-2.41275e-05
-8.77341e-05
-7.51691e-05
-7.99628e-05
3.8047e-05
2.67253e-05
-3.36367e-05
6.91156e-06
1.1186e-05
4.71096e-06
-1.58969e-05
-1.47948e-05
2.46309e-05
-8.87058e-05
0.00015076
-2.02712e-05
2.60788e-05
-1.06757e-05
5.1462e-05
0.0179561
-0.0248636
0.00690604
-2.22789e-05
2.56271e-05
-3.34822e-06
-0.0282908
0.00599474
0.0222962
0.0171499
-7.9839e-05
0.000332448
-0.00025261
-2.06741e-05
6.83572e-05
8.47056e-05
0.0272
-0.0028844
-0.0243157
-2.36517e-06
-2.82543e-05
-3.34602e-06
3.47871e-05
-7.59208e-06
-1.91369e-06
-3.63876e-06
2.09634e-05
-1.73246e-05
0.00393331
0.00298927
-0.00692251
3.48965e-05
-3.08137e-06
3.27935e-05
-7.49744e-05
0.00251897
0.000430643
-0.000427768
-2.86775e-06
0.000167042
-0.000310387
0.000143322
3.1746e-05
2.77034e-05
-7.68562e-06
2.93393e-05
-3.16123e-05
2.27286e-06
-1.19305e-05
6.51019e-06
5.4197e-06
-0.0217575
0.0138332
0.00792386
4.82417e-05
-8.86758e-06
-3.93736e-05
1.6068e-05
-4.88198e-06
1.5781e-05
1.56767e-06
4.46782e-05
-8.39207e-07
-0.000118913
0.000285954
-0.000619191
0.000332244
0.000286951
0.000719331
-0.000606879
-0.000112449
-4.94229e-05
8.57997e-05
-3.63789e-05
-0.0143759
-0.00738142
6.96341e-06
8.34496e-06
0.0018872
-9.00284e-05
-1.37195e-05
1.38778e-05
-1.58033e-07
6.88263e-05
-0.000191109
-2.11279e-05
4.06842e-05
-1.95565e-05
-1.50089e-05
1.89926e-05
-7.60921e-05
6.13784e-05
-1.96076e-05
4.01378e-06
-3.1971e-05
6.07423e-05
-2.87768e-05
-4.79262e-06
1.4439e-05
-9.64589e-06
-1.72543e-05
-1.89223e-05
3.61753e-05
-4.56592e-05
1.36847e-05
-8.25676e-06
-6.88645e-05
3.26097e-05
-1.05074e-05
2.26035e-05
6.46886e-05
3.44382e-06
-2.16889e-05
1.3427e-05
-1.17403e-05
2.02095e-05
-8.46919e-06
-0.0041939
0.00176859
0.00242537
-3.53359e-05
0.000465957
-1.64729e-05
3.35086e-05
-0.000410957
0.00174964
-0.00438163
0.0210306
-0.0166489
-2.11287e-05
8.51673e-06
1.26129e-05
0.00218895
-0.00271503
-0.000385072
-0.000234114
1.21242e-06
3.29786e-05
-3.41911e-05
-0.035417
0.0537767
-2.78656e-05
3.27244e-05
-4.85905e-06
-7.7573e-05
2.81526e-05
1.3086e-05
3.69269e-06
-1.67779e-05
-3.23928e-05
4.52681e-06
-0.0281662
-0.0261055
0.00338664
-0.0018129
2.37698e-05
-3.04352e-05
-1.02381e-05
1.40005e-05
-1.44892e-06
2.47969e-05
9.38347e-06
-3.41802e-05
-4.4858e-05
0.00223382
0.000136944
-0.000114448
-2.24945e-05
-8.5078e-06
1.69848e-05
4.04107e-05
-9.81222e-06
-0.000121822
0.000138164
-1.6342e-05
4.3368e-05
2.7514e-05
1.2452e-05
4.8341e-05
-6.07924e-05
2.64185e-06
-5.27624e-05
2.49966e-05
-3.1387e-05
6.39027e-06
-0.000596826
-0.00359703
8.36829e-05
-1.12454e-05
-7.24362e-05
-3.87573e-06
-9.26898e-06
0.0086334
0.00239373
-0.0110271
0.000476834
-0.00118446
9.41472e-06
-3.06977e-05
7.40668e-05
-1.47887e-05
-3.14334e-05
4.16881e-05
-1.02551e-05
0.000125196
-1.38284e-05
-0.000111372
-2.69071e-05
-5.30548e-05
-3.79133e-06
2.59993e-05
-2.2208e-05
-0.000451984
-0.000359851
0.000179467
-2.0528e-05
8.78765e-06
0.0198597
3.06474e-05
-4.49183e-05
1.42712e-05
2.69657e-05
-3.18101e-05
4.84527e-06
5.7224e-05
-4.14018e-05
7.69797e-06
-2.86184e-05
2.09198e-05
8.85448e-06
-4.0288e-05
-2.88325e-06
1.56191e-05
-0.0278141
0.0423293
-0.014515
0.000231699
-0.000443762
0.000212065
-0.000193164
0.000176396
3.25787e-06
3.29078e-05
-3.61678e-05
-1.39363e-05
1.14587e-05
2.47817e-06
-0.000112347
-1.59731e-05
0.000128329
-5.55002e-06
-2.15532e-05
2.71024e-05
-0.000488351
3.00278e-05
-3.06134e-06
-0.000230581
3.7413e-05
2.86734e-05
-3.39677e-05
5.29516e-06
-3.47724e-05
3.59847e-05
8.08093e-06
-2.28757e-05
-8.6845e-06
-1.35952e-05
-7.49478e-05
3.89422e-05
-1.04494e-05
3.52463e-05
6.43263e-06
-1.67468e-05
4.64122e-05
-8.72189e-05
0.00109686
-0.00111265
-1.08181e-05
1.03056e-05
5.12492e-07
5.61761e-05
-2.22904e-05
-3.38872e-05
-6.05791e-06
5.40044e-06
6.57565e-07
3.12965e-05
-6.30007e-06
-1.26468e-05
9.60493e-05
-0.00273587
0.00460524
-0.00186905
-1.43099e-05
5.02923e-05
-3.35059e-05
7.99181e-05
4.20204e-05
-6.35517e-05
-1.10524e-06
-4.95248e-06
-1.07355e-05
-3.11661e-05
-0.00719629
0.00644548
6.79059e-05
-4.68413e-05
0.00571242
-0.0335265
-3.91215e-05
-2.50399e-05
6.41617e-05
-0.000125044
1.26936e-05
3.89435e-05
-3.5584e-06
-3.53852e-05
-1.7008e-06
-9.11749e-06
2.62519e-05
2.99231e-05
-1.25202e-05
1.53665e-05
-2.84627e-06
-8.77987e-05
-0.000127213
-6.02513e-05
1.1372e-05
4.88785e-05
6.63377e-05
-6.10418e-05
-5.29625e-06
2.69488e-05
2.98594e-06
-1.4393e-05
-6.73556e-06
1.63848e-05
3.18571e-05
-1.2314e-05
1.03844e-05
1.92975e-06
-3.1522e-05
3.27652e-05
-1.24349e-06
-5.38972e-06
1.68406e-05
-1.14509e-05
-0.0162803
0.0667649
0.00139865
3.29705e-05
5.97306e-06
-1.43593e-05
-3.1834e-05
4.61946e-05
-1.56624e-05
1.56622e-05
2.90305e-05
3.7309e-05
-3.22898e-05
5.55149e-06
2.67389e-05
1.34797e-06
1.03935e-05
-1.17419e-05
3.37288e-05
-2.95527e-05
-4.17624e-06
0.000337193
-0.0027553
0.00241819
-1.15814e-06
-6.34342e-05
7.97415e-05
-8.44955e-06
1.5019e-05
-0.00501164
0.000181986
2.62665e-05
-1.2719e-05
2.49272e-05
-2.49814e-05
5.46031e-08
0.000540889
0.00861374
-0.00915479
-5.40937e-06
2.86714e-05
-2.32613e-05
-1.12331e-06
-3.91254e-06
5.51047e-06
-1.9903e-05
-1.57313e-05
2.3812e-05
-5.5978e-05
1.48942e-05
-3.44801e-05
3.09215e-05
-2.05989e-05
1.69601e-05
3.07721e-05
-1.99374e-05
-1.08331e-05
-1.17199e-05
-3.97176e-05
5.14379e-05
-8.09291e-06
-6.22947e-05
7.03872e-05
3.52967e-05
-3.33633e-05
3.57883e-05
-3.10257e-06
-3.26859e-05
-9.13789e-06
-1.38684e-05
-3.02737e-05
-7.37296e-07
3.10131e-05
-0.000174868
6.8095e-05
0.000106774
3.89058e-06
-4.08583e-05
3.69681e-05
-4.40915e-05
1.48735e-05
-3.43101e-05
4.06761e-05
8.97501e-06
-7.13314e-06
1.55634e-05
-8.43087e-06
-2.36499e-05
-3.66017e-05
9.40574e-05
-0.000106575
-1.963e-05
-1.26603e-05
0.00143153
0.0146394
-0.0160711
0.0182945
-0.016863
-3.49241e-05
3.59308e-05
-4.56934e-05
5.81458e-05
-4.5462e-06
-2.9934e-05
-2.39468e-05
-1.25166e-06
2.51984e-05
-1.81867e-05
-6.35301e-06
1.261e-05
-1.25436e-05
-6.65763e-08
3.32537e-06
1.25652e-05
-7.75282e-06
2.48012e-05
-1.705e-05
-0.000131173
-0.000517019
3.92338e-05
-6.45424e-07
-1.3431e-05
3.45079e-06
9.98079e-06
7.21145e-05
0.000113841
-3.95321e-06
-1.4819e-05
1.87722e-05
1.10667e-05
1.54317e-06
3.07881e-05
-5.86088e-06
-3.39819e-05
-3.09672e-06
3.7078e-05
-3.47455e-05
-1.81707e-05
5.2916e-05
-2.7636e-05
2.05061e-05
-0.0013445
0.00122765
0.000116846
3.37067e-05
-1.28888e-05
-2.08175e-05
-2.83933e-05
0.0122462
-0.0186916
0.000162661
2.44868e-05
2.81428e-05
1.47385e-06
-2.96161e-05
0.000130953
-9.59673e-05
-3.49853e-05
7.46816e-07
-8.99735e-06
8.25087e-06
4.565e-05
-2.53295e-05
-2.03206e-05
1.46599e-06
2.31124e-05
-9.76918e-06
3.80664e-06
-6.42164e-06
2.04154e-05
-1.3993e-05
-0.000125543
3.72363e-06
0.000179407
0.000688048
-0.000153107
0.000558267
-0.000405155
2.22266e-05
1.14804e-05
-1.04613e-05
2.60233e-05
-0.000166704
7.89738e-05
4.87594e-07
-0.000119401
0.000118912
8.62742e-06
-3.17236e-05
-1.18779e-05
5.36845e-06
-2.21022e-05
-5.32735e-06
2.74297e-05
-0.000441543
0.000288434
1.39541e-05
7.5517e-06
-2.15045e-05
-4.13137e-05
6.98859e-05
-2.85743e-05
-0.00028862
-0.00146623
0.00175483
0.00876658
-0.000493521
-0.00827308
0.000259062
-4.58604e-05
-0.000213218
-3.13715e-06
3.89254e-05
0.00456195
-0.000628671
-1.14343e-06
-1.70992e-05
1.82423e-05
-2.58438e-05
-1.17392e-05
3.75826e-05
4.35311e-05
2.6326e-07
-4.37948e-05
-2.85955e-05
-2.49806e-06
3.10932e-05
-4.2715e-05
3.38471e-05
7.99922e-06
2.52663e-05
-3.32656e-05
-2.58208e-05
9.36062e-06
-2.03373e-07
-9.15737e-06
4.24267e-07
-1.27376e-05
1.09569e-05
-1.11661e-05
2.08724e-07
-4.36312e-05
-2.16877e-05
6.53188e-05
0.00011847
-0.000185605
6.71311e-05
-2.09465e-05
-0.00014062
2.41428e-05
-3.12016e-05
7.05878e-06
1.95491e-06
2.07811e-05
-2.27362e-05
5.39686e-06
-3.93791e-05
3.01218e-06
2.88712e-05
8.55242e-07
3.27708e-05
-3.36266e-05
-1.19558e-05
4.93462e-06
7.02145e-06
2.62284e-05
-3.79482e-05
-1.28932e-05
-4.16237e-05
8.40014e-06
3.32238e-05
0.00772904
0.00767193
-0.015401
-2.05158e-05
4.16714e-05
6.94727e-07
-1.43672e-05
1.90912e-05
-9.76182e-06
3.8619e-05
-5.64836e-06
-3.96595e-05
4.16142e-05
-2.84777e-05
-9.11981e-06
-4.03802e-05
3.44353e-05
-5.60326e-05
7.23406e-05
-1.63029e-05
-1.35957e-06
-1.25765e-05
2.66464e-05
-3.56866e-05
9.03947e-06
-8.17163e-05
2.56843e-05
1.98672e-05
-6.3499e-05
-6.61564e-07
3.71152e-05
-3.64541e-05
3.25103e-05
1.07689e-06
-3.35888e-05
-3.72242e-05
1.35078e-06
3.58731e-05
-3.50439e-05
-7.67097e-06
2.31125e-05
6.41105e-07
-2.37543e-05
-5.72413e-06
-7.85644e-06
-0.000798727
-0.000545778
-3.15637e-07
-1.30407e-05
-2.64063e-05
1.0511e-05
1.58955e-05
1.18862e-06
1.84422e-05
2.26781e-05
-3.6848e-05
1.41697e-05
6.74328e-06
-1.52511e-05
-0.000148221
4.09916e-05
1.71721e-05
-6.20897e-05
-4.08628e-06
-5.8812e-06
9.96761e-06
2.27457e-05
-2.81538e-05
4.0689e-05
-3.85397e-05
-2.15017e-06
0.000144438
0.000198785
-0.000135576
0.000452608
-0.000317032
5.25529e-05
-6.06467e-05
1.21275e-05
-6.65509e-06
-1.52437e-05
2.16763e-05
4.0319e-06
-1.37548e-05
9.72271e-06
2.1417e-05
-2.0259e-05
-1.15819e-06
-3.66598e-05
-6.0848e-06
4.27447e-05
8.71679e-06
-0.000182597
3.88298e-05
4.69691e-05
2.00247e-05
0.000119772
-5.67216e-05
0.0040182
-0.0030479
1.11394e-05
-1.81978e-07
0.00318281
0.000835368
-0.0174116
-0.000800215
0.0182116
-6.66219e-06
-1.60201e-05
2.26825e-05
-3.80696e-05
-4.29283e-05
-2.75681e-05
-4.12118e-06
3.16888e-05
0.000478684
-0.000174424
-0.00030426
4.22151e-06
1.06588e-05
-0.000161497
0.000571556
2.46301e-05
-4.62762e-06
-0.000116279
1.1376e-06
8.9729e-05
4.72152e-05
-6.24547e-05
5.97403e-06
5.64802e-05
3.42766e-05
-3.94139e-05
-1.64269e-05
-1.41122e-05
3.05389e-05
1.51223e-07
-7.3482e-05
9.78159e-06
0.0001399
-0.000138635
-1.25675e-06
-2.72453e-05
6.70347e-05
0.000354187
0.00157275
-0.00192692
1.9138e-05
-7.14221e-05
5.22807e-05
-3.15981e-05
1.04701e-05
6.44271e-06
-1.148e-05
4.25103e-05
-1.82822e-05
1.31724e-05
-3.13059e-06
-1.00414e-05
-1.25387e-05
-5.80981e-06
1.32362e-05
3.51547e-05
-2.64462e-06
-6.47552e-05
0.000204746
-0.000140001
2.77375e-06
-1.41224e-05
1.13485e-05
-5.19309e-08
9.41235e-06
3.73793e-05
-9.22497e-07
-3.64572e-05
-1.68654e-06
4.50791e-05
-0.00038081
-0.000131602
0.0005124
-2.9341e-05
-2.1809e-06
0.000453218
-0.000221517
-1.09409e-05
-2.7785e-06
-8.33625e-05
-0.000120767
-1.17256e-06
-1.07752e-05
2.20838e-05
-6.47622e-07
-0.00831768
0.0088001
-0.000482216
2.88323e-05
5.06958e-07
0.000105319
3.69427e-05
1.07611e-05
4.75251e-05
-5.82857e-05
7.52235e-06
-3.14691e-05
-2.47741e-05
8.18428e-05
-8.88494e-05
0.000168665
-7.98173e-05
3.67421e-05
-8.06868e-06
-2.795e-05
1.15231e-05
3.71964e-05
-1.05503e-05
2.71439e-05
7.57731e-05
-0.000102921
-1.04719e-05
1.18195e-05
-2.66749e-05
-0.0269923
-0.00129844
-0.000153995
8.92368e-05
1.85765e-05
8.9007e-06
-2.84434e-05
2.74447e-06
2.56989e-05
-1.55998e-05
-1.20989e-05
2.76987e-05
0.016117
-0.0185059
0.00238898
2.77902e-05
-9.04125e-05
6.26204e-05
0.00188084
-0.000421504
1.91495e-05
-1.06327e-05
-1.60526e-05
3.75923e-05
-1.23485e-05
7.55618e-06
0.000118953
-0.000101726
-1.72257e-05
3.60164e-05
-3.40941e-05
-4.31738e-05
7.13796e-06
2.21298e-05
-2.21299e-05
0.00754538
0.00122118
-7.42883e-05
1.19942e-05
-0.0261591
0.00874745
-8.31349e-05
-3.08227e-05
-6.80295e-05
0.000242498
-0.000174479
-0.00175484
0.00146621
-1.34462e-05
2.77408e-05
-1.42946e-05
2.64067e-05
3.99745e-05
6.33144e-05
-5.07385e-05
3.2809e-05
1.79295e-05
-5.24124e-06
0.000169004
-0.00243194
0.00226294
-1.52736e-05
-6.08181e-05
-4.60015e-05
3.1643e-05
-6.7203e-05
-1.18826e-05
7.90852e-05
-0.000108598
3.42607e-05
2.44332e-06
1.89734e-05
-0.00270292
0.00195381
0.000748984
-2.4623e-07
1.4887e-05
-1.88094e-06
-1.30056e-05
-1.43574e-05
-5.10827e-05
-3.74774e-05
3.19282e-05
5.54883e-06
4.28535e-05
-0.000131704
8.33863e-08
7.01316e-06
0.000118435
-1.15923e-05
-1.29857e-05
-0.000470777
-0.00197624
4.65665e-05
-8.78784e-05
1.4759e-05
0.0106142
0.0320883
-0.0427021
1.50554e-05
2.77099e-05
-4.27653e-05
3.03553e-06
-4.01927e-05
0.0221976
0.00500233
8.91005e-05
-6.13117e-05
1.0039e-05
4.84815e-06
-3.37657e-05
1.16636e-05
-0.00227874
0.0025206
-0.000241534
-5.53523e-06
8.15449e-07
4.71985e-06
-1.61759e-05
1.22229e-05
4.53613e-05
-7.88662e-05
-0.000203128
-6.66362e-05
2.74823e-05
-6.1627e-05
3.41438e-05
3.03148e-07
3.05154e-05
-3.08186e-05
-5.78824e-05
0.000276764
-0.000127981
-0.000148784
-1.27544e-05
1.6786e-05
-0.0527859
-0.00578518
-2.91325e-06
-3.30853e-05
3.59986e-05
-6.63454e-06
4.00587e-05
-1.84071e-05
3.15116e-06
1.52559e-05
2.56872e-05
-3.10147e-05
-7.09259e-06
9.19458e-06
-2.10165e-06
6.35431e-05
7.50133e-05
-0.000138557
6.86698e-07
-0.000133051
0.000132366
-3.86372e-05
-3.89366e-05
2.44379e-05
0.000200146
-0.000153776
-4.63551e-05
-1.67095e-05
-6.22133e-06
-3.41587e-05
-0.00121155
0.000335006
0.000876537
-0.000402664
-0.000808901
-9.99661e-05
-2.50681e-05
3.83948e-05
5.13621e-06
-3.14106e-05
2.76396e-05
3.77091e-06
-3.96706e-05
3.34489e-05
1.64007e-06
-8.73244e-06
3.21701e-06
2.40302e-05
-2.72473e-05
1.60728e-05
2.27832e-05
-3.88562e-05
-9.59481e-06
1.63382e-05
-9.27909e-06
2.32339e-05
4.14149e-05
-1.54159e-06
1.21217e-05
1.87887e-06
2.47608e-05
9.16068e-06
-3.39219e-05
0.000330901
-0.00020698
-0.000123925
3.70256e-05
-1.2265e-05
-0.000596046
0.000193534
2.96985e-05
-2.88434e-05
-0.00749161
0.00407148
0.0034204
3.05492e-07
1.19214e-05
-1.65213e-06
-1.6755e-05
-0.000100509
1.7374e-05
3.84232e-06
3.47768e-05
3.54285e-05
3.15677e-05
1.41275e-05
-2.07893e-05
-0.000219314
0.000151287
-9.57215e-07
2.50999e-05
-2.91121e-05
3.23289e-05
-0.000124472
2.45081e-05
1.98577e-06
1.32981e-05
-1.52838e-05
0.000486715
-0.00322228
-1.3919e-05
1.12592e-05
2.66006e-06
3.6266e-05
-3.30089e-05
-0.00396082
0.000404586
0.00355626
-1.48194e-05
1.73001e-05
-2.4806e-06
0.00272537
-1.29006e-05
-7.90993e-06
2.08105e-05
0.000269887
6.1011e-05
5.15793e-06
0.000118648
-5.24809e-06
-0.000113392
-0.0182952
0.0289093
8.41309e-05
-2.17626e-05
-6.23692e-05
2.48722e-05
-2.84751e-05
3.60035e-06
-0.000139267
0.000121748
1.75114e-05
2.88946e-05
-2.78018e-05
-1.09329e-06
-3.18282e-05
4.17752e-07
0.00129501
-8.15792e-05
-4.60106e-05
6.76505e-06
9.71931e-07
-7.7363e-06
3.09979e-05
-3.43436e-05
9.96927e-05
-0.000138607
3.89158e-05
0.0167769
-0.00365893
-0.0131181
-0.0642729
-0.00475519
-8.53396e-05
8.58259e-05
0.00200215
-0.00183312
1.2699e-05
-2.82987e-05
-2.38743e-05
3.99471e-05
0.000498266
-0.000103853
-2.32641e-06
-4.02364e-05
4.25609e-05
-7.66781e-06
-4.70474e-05
-3.61209e-05
5.15503e-05
-1.54293e-05
8.63061e-06
-1.86553e-06
1.55653e-05
-1.27917e-05
-3.26164e-05
7.79797e-05
-2.86389e-05
2.48969e-05
-0.0210551
-0.0013725
0.0224275
2.72861e-05
-1.19396e-06
-3.81862e-05
5.73226e-05
2.03388e-05
-2.41301e-05
0.000845277
-0.0013111
0.000465783
0.00926928
-0.0735422
-1.51655e-05
1.485e-05
0.00587367
0.00275975
0.000334461
0.000144223
-7.9851e-05
4.34782e-05
-5.49246e-06
-3.7987e-05
-4.41978e-06
5.3602e-06
-9.40403e-07
-7.91192e-05
4.04821e-05
-2.00672e-05
-1.31514e-05
3.42099e-05
-3.39069e-05
1.76769e-05
-1.88203e-05
-5.482e-06
-0.00365588
-0.000568974
0.00422497
2.53161e-05
5.08958e-06
4.90305e-05
-1.80328e-05
5.75093e-07
-5.47583e-05
5.41835e-05
4.02391e-05
-1.74943e-05
-4.51888e-05
-3.39319e-05
-1.92312e-05
8.78987e-06
1.04411e-05
8.99009e-06
1.43799e-05
-2.08014e-05
-4.80866e-06
0.00359076
-0.00550615
0.000400438
0.00388972
-0.00429016
0.000334256
-0.00198406
-0.000275542
0.00225957
0.000103565
5.10616e-05
-7.64389e-05
8.81948e-05
-1.17569e-05
7.61616e-05
8.43235e-06
0.000131478
2.14048e-05
3.26453e-05
-2.03523e-05
1.79217e-05
2.43033e-06
-0.000118232
0.000161823
-2.29651e-06
1.22763e-05
-9.97947e-06
-9.4471e-05
1.80323e-05
-9.98814e-06
-3.16359e-05
4.71021e-05
-2.10865e-05
-2.60139e-05
-6.80371e-05
3.98476e-05
-3.13533e-05
-6.12428e-06
8.56086e-05
-0.00063516
0.000549546
-0.00106585
-0.000597219
0.00166309
-1.30358e-05
-3.29654e-05
-3.55563e-05
3.48943e-05
-0.00012242
-1.93664e-06
0.000124339
1.7161e-06
1.37589e-05
-1.54749e-05
6.39259e-06
-2.30109e-05
1.66185e-05
-3.00272e-05
-8.74409e-06
3.87714e-05
1.34308e-05
2.68083e-05
-0.00156172
-0.00675582
-4.06938e-05
7.04946e-05
-2.98002e-05
-4.4762e-06
0.000135577
-7.20337e-05
-0.00646832
0.0220579
-0.0155896
-1.28349e-05
-0.000109586
-0.0209204
0.014452
0.000160884
-0.00112702
-6.29439e-06
2.46391e-05
2.58024e-05
-3.28042e-05
7.00152e-06
-6.01292e-05
6.07053e-05
-3.78721e-05
1.35137e-05
2.43562e-05
-0.000147175
5.78614e-05
8.93158e-05
1.49878e-05
-4.59035e-06
-1.03974e-05
3.68262e-05
-2.36213e-05
2.06091e-05
0.00011497
2.87337e-05
5.53971e-05
0.00289183
-0.000334016
-0.00255782
-5.88842e-05
0.00011647
-5.75839e-05
0.000151774
-7.81304e-05
-7.36473e-05
1.25252e-06
-3.68961e-05
3.56437e-05
-0.00525281
0.0213698
-0.000892962
0.000978583
-0.0197364
-0.0013188
-1.60631e-05
-8.95714e-06
2.50194e-05
-8.26401e-05
-0.00011344
-2.66353e-05
9.43716e-07
2.56956e-05
3.26658e-05
-7.7929e-06
-0.00239635
-0.00156447
-4.4977e-05
3.19414e-05
3.49878e-06
5.351e-06
-8.85076e-06
0.0135904
-0.0179718
2.50835e-05
1.14852e-05
-3.65688e-05
1.97243e-06
-1.22139e-05
1.02417e-05
2.701e-06
0.000239745
-5.69496e-05
-0.000182795
-0.000270719
0.000150447
0.000120277
-2.00488e-05
-2.44437e-05
2.3192e-05
1.23872e-05
4.4637e-06
0.00093534
-0.00127408
0.000338747
1.63252e-05
3.07771e-05
0.0246403
9.37879e-05
-6.14177e-05
-3.23698e-05
-4.20441e-05
9.49275e-05
-0.000132637
3.77125e-05
-2.00847e-05
2.57593e-05
-5.67435e-06
-1.14683e-05
-2.45056e-06
0.000128794
-3.59936e-06
-3.44682e-05
3.1555e-05
0.000125042
-0.000104433
-1.57123e-06
6.13256e-05
0.00017842
2.79689e-05
-1.17444e-05
-1.62251e-05
3.8912e-05
1.10802e-05
-4.9992e-05
-2.31877e-05
-1.85065e-05
-0.000659359
0.000284692
0.000374669
2.94118e-06
1.02315e-05
7.72428e-05
-6.35994e-06
-2.24722e-05
0.000117401
-0.000609544
-4.98061e-05
6.29719e-05
-3.549e-05
-8.15561e-05
3.63681e-05
-3.97646e-06
5.8801e-05
-5.48244e-05
0.0233692
-0.0416647
-2.64786e-05
-1.95712e-06
2.84359e-05
-2.61911e-05
-2.33216e-06
4.18312e-05
-3.94991e-05
2.72127e-05
5.08244e-06
-3.2295e-05
-1.3982e-05
0.0245934
-0.0279464
0.00335318
-0.0593798
3.35804e-05
-3.85727e-05
4.99225e-06
-4.96412e-06
-1.53871e-05
1.25026e-05
-1.10605e-05
-1.44226e-06
-0.000259394
-6.89513e-06
-5.10066e-05
-3.05498e-05
-5.73162e-06
-9.43381e-06
-3.96799e-05
8.33545e-06
3.1345e-05
-7.63878e-05
-2.25604e-05
-1.54487e-05
1.62642e-06
1.38224e-05
-3.09616e-06
-1.61364e-05
3.26224e-05
-2.00054e-05
7.59982e-05
4.29557e-05
-4.23579e-05
1.70281e-05
9.83486e-05
-7.71687e-06
8.46436e-06
-8.75396e-06
2.91371e-05
-3.05575e-06
-3.39508e-05
6.52681e-06
-6.4498e-06
-7.68143e-08
-1.86312e-05
-1.89672e-06
8.1716e-06
-4.37061e-05
3.55341e-05
-0.00023134
0.000211331
2.00082e-05
2.09114e-05
-1.45187e-05
-4.38819e-06
-2.21387e-05
2.65279e-05
-5.61407e-05
2.40667e-05
3.20746e-05
3.894e-05
-4.12721e-05
0.000210895
-6.46952e-05
-0.000146201
-0.000218526
0.000138687
3.32084e-05
-5.33359e-06
-2.7874e-05
-1.97208e-06
-0.000555495
0.00153535
-0.000979784
0.000644055
-0.000861669
2.18691e-05
-2.06804e-05
-6.15771e-05
-0.000113294
-3.32349e-05
3.46614e-05
1.19761e-05
1.90203e-06
6.98296e-05
0.000141064
2.17128e-07
6.30961e-06
1.25719e-05
-9.21619e-05
-7.15444e-06
9.93179e-05
0.00022682
-0.000165495
-1.31823e-05
-4.94035e-06
9.05295e-07
4.03507e-06
7.30302e-06
-4.08608e-05
3.35577e-05
0.000314885
-0.000117349
-0.000197534
-8.12925e-07
-5.84357e-06
6.65675e-06
-2.14156e-05
1.85499e-05
2.86559e-06
0.000162125
0.00943049
0.00734646
3.6317e-05
4.08047e-05
-5.45741e-05
2.92356e-06
5.16483e-05
3.63215e-05
-3.50248e-05
1.87605e-05
-6.1854e-05
4.55657e-05
-6.69405e-05
2.1375e-05
0.00829671
0.0162967
7.19711e-06
-5.64282e-07
-6.63278e-06
4.78843e-07
-4.89882e-06
-3.43875e-05
0.000134081
-5.98763e-05
-2.77013e-06
6.26461e-05
-6.85362e-06
1.99396e-05
-4.42107e-05
-1.34061e-05
5.76159e-05
-0.019693
0.022093
-0.00239995
5.94197e-05
-1.38533e-05
0.00372383
8.50401e-05
0.000229845
9.01965e-05
-2.44422e-05
-2.62964e-05
-3.78123e-07
2.75046e-05
-2.71265e-05
-0.00297082
0.000268158
0.000815014
0.00327782
-0.00409293
-3.82155e-06
-2.54379e-05
2.92595e-05
-1.39326e-05
8.87698e-06
5.05549e-06
0.00194212
3.89807e-05
-8.00061e-06
-3.09806e-05
8.03929e-06
1.71e-06
-2.9278e-05
9.9407e-06
1.34224e-05
-3.14687e-05
4.6735e-05
-1.52691e-05
-9.40728e-06
-3.52488e-05