/*--------------------------------*- C++ -*----------------------------------*\
| =========                 |                                                 |
| \\      /  F ield         | OpenFOAM: The Open Source CFD Toolbox           |
|  \\    /   O peration     | Version:  v2012                                 |
|   \\  /    A nd           | Website:  www.openfoam.com                      |
|    \\/     M anipulation  |                                                 |
\*---------------------------------------------------------------------------*/
FoamFile
{
    version     2.0;
    format      ascii;
    class       volScalarField;
    location    "100";
    object      k;
}
// * * * * * * * * * * * * * * * * * * * * * * * * * * * * * * * * * * * * * //

dimensions      [0 2 -2 0 0 0 0];


internalField   nonuniform List<scalar> 
15335
(
0.0163449
0.00019983
0.000148117
0.000141628
0.000154734
0.000143168
0.000179393
0.000160033
0.000132029
0.000145227
0.00014912
0.000142387
0.000182856
0.000171507
0.000162411
0.00012816
0.000195225
0.000190572
0.000140742
0.000157685
0.000132116
0.0321789
0.000159986
0.000132233
0.000118361
0.0166841
0.000183164
0.000136167
0.000164231
0.00044065
0.000134202
0.000181524
0.000164319
0.000155191
0.000180314
0.000185031
0.000145194
0.000157143
0.000170915
0.000190607
0.00013579
0.00404246
0.000131535
0.000174022
0.00437173
0.000135664
0.000158649
0.000157196
0.000166965
0.000147583
0.000132366
0.000134299
0.000147187
0.000153607
0.0201965
0.00388847
0.00018617
0.00018013
0.000158594
0.00516215
0.000198622
0.000131451
0.000147187
0.000149257
0.000154521
0.0146058
0.00483299
0.000142996
0.000164339
0.00013079
0.000158793
0.000159785
0.000146759
0.00532901
0.000148971
0.00650046
0.000197081
0.000171014
0.000141536
0.000184228
0.0175306
0.000162775
0.000163519
0.000182096
0.000160598
0.0162626
0.000149451
0.000182846
0.00014313
0.000151997
0.0102164
0.000193906
0.00552019
0.00256105
0.000157216
0.000182085
0.000131342
0.0147715
0.000134153
0.0149021
0.000131436
0.00015191
0.000193944
0.000128247
0.000146725
0.000131256
0.00746292
0.000146718
0.000154391
0.000173829
0.000182449
0.000170335
0.00018926
0.000163477
0.00015759
0.000135515
0.000174163
0.000146151
0.00280611
0.00920546
0.000151579
0.000180127
0.00534541
0.000140779
0.000179967
0.000136021
0.000141452
0.0262211
0.000180837
0.000153615
0.000136187
0.000180201
0.000149406
0.0162756
0.00013471
0.00546558
0.000145611
0.000130891
0.000172953
0.000154219
0.00014879
0.0106094
0.000140192
0.0172212
0.00533195
0.000150052
0.0084527
0.000178869
0.000146765
0.000176934
0.00014268
0.0140581
0.000128001
0.000156114
0.0114126
0.000144615
0.000182703
0.000146285
0.000134737
0.000160047
0.000139664
0.000156742
0.000146757
0.000170595
0.000174405
0.000141278
0.000134811
0.015952
0.000134268
0.000141519
0.000152256
0.000142984
0.000149129
0.00014485
0.000157122
0.000155736
0.0176303
0.000134386
0.000181629
0.0146146
0.000148923
0.000514301
0.00015503
0.000155311
0.000155313
0.000188243
0.000182715
0.000485848
0.000147115
0.00711729
0.00014859
0.0145539
0.000167395
0.000135714
0.00014676
0.00377188
0.000148893
0.000131686
0.000176267
0.000178807
0.00049746
0.000157802
0.000135494
0.000183319
0.0147019
0.00015793
0.000357926
0.000141188
0.000181587
0.0161618
0.000195114
0.000157776
0.000135919
0.000163267
0.000198736
0.000156594
0.000158042
0.000169955
0.000155041
0.00418379
0.000156399
0.000172942
0.0101951
0.000181649
0.000164039
0.00637225
0.000178319
0.000147979
0.000178567
0.000195131
0.00014634
0.000187948
0.0104448
0.000160221
0.000147289
0.000151587
0.000141639
0.0129457
0.00884431
0.000149723
0.000176914
0.000144688
0.000176129
0.00015223
0.0160243
0.000156858
0.00553127
0.000156493
0.00830765
0.00259177
0.000155779
0.000133009
0.000197873
0.000162006
0.00013271
0.034277
0.000148511
0.000163099
0.0111482
0.000132616
0.00671682
0.00146421
0.00906127
0.000169079
0.00602871
0.0072311
0.0114343
0.000133206
0.000199389
0.000148742
0.00018529
0.000127797
0.0172309
0.000135053
0.000150668
0.00942842
0.00513468
0.000155215
0.000146589
0.01501
0.000136073
0.000141777
0.000150026
0.000146592
0.000185049
0.000146611
0.000161707
0.000141611
0.000195324
0.000156529
0.000194871
0.000152898
0.000134628
0.000143296
0.00900213
0.000156837
0.000151863
0.000134855
0.000148554
0.000150096
0.00180148
0.00017436
0.00417036
0.000489065
0.00937623
0.000136135
0.000136221
0.00140434
0.00762062
0.000178693
0.0048795
0.0001525
0.00018857
0.0173497
0.000135594
0.000161795
0.000134772
0.000134456
0.000148818
0.000157846
0.000144117
0.00015109
0.0071203
0.0109054
0.000157037
0.00467873
0.000189266
0.000134512
0.000135014
0.000135812
0.000135584
0.00766812
0.000622702
0.000158276
0.00017035
0.000131159
0.000147621
0.000155356
0.000173206
0.00408305
0.000162192
0.000172489
0.000183071
0.000162448
0.000183891
0.00586023
0.000175426
0.00802655
0.000152589
0.00015304
0.000182078
0.00013485
0.000149282
0.0148432
0.000399888
0.00015281
0.000148802
0.000135049
0.00014391
0.0101829
0.000142922
0.000135509
0.000157188
0.000142956
0.00550933
0.000156856
0.000150332
0.000149116
0.000167284
0.00014219
0.000148145
0.00014166
0.000159616
0.000144011
0.000133808
0.000135687
0.000130436
0.000127803
0.000143618
0.000182004
0.00991235
0.000180708
0.00016871
0.000177451
0.00640035
0.000163951
0.000135981
0.012936
0.000140792
0.000143349
0.000149314
0.000168503
0.000134331
0.000152976
0.0124092
0.000151725
0.000145546
0.00012818
0.00014146
0.0121899
0.000162703
0.00524579
0.000178443
0.000132818
0.00014194
0.000174038
0.000132646
0.000148267
0.000189364
0.00014535
0.000132751
0.000145214
0.000149273
0.00015172
0.000174019
0.000135446
0.000142119
0.000156675
0.00014413
0.0001459
0.000174969
0.000138802
0.00020041
0.000143548
0.000158928
0.000124612
0.000140783
0.000143888
0.000135965
0.000200741
0.00682549
0.00017908
0.000174732
0.00539305
0.000129098
0.000132611
0.0156962
0.000174949
0.000138758
0.000163949
0.000131467
0.0001453
0.000140787
0.00889964
0.000152899
0.0114559
0.000164869
0.000144103
0.000156524
0.00553615
0.00015962
0.0152576
0.000140456
0.00534877
0.000142562
0.000145891
0.000164086
0.00791652
0.000157304
0.000146762
0.00014625
0.000158774
0.000177228
0.00015252
0.00017796
0.00307799
0.000175046
0.000197049
0.000152852
0.00015139
0.00013978
0.0164501
0.000152816
0.0017041
0.000143764
0.000138452
0.000141838
0.000152225
0.00919031
0.000145151
0.000149823
0.000147435
0.000147877
0.000140381
0.0001431
0.00965887
0.000150805
0.000145354
0.000135458
0.000145579
0.00222276
0.00187737
0.000141503
0.000133403
0.0164897
0.0120692
0.0100873
0.00016217
0.000163788
0.000181154
0.000172016
0.0376023
0.000142989
0.000173866
0.000130971
0.000155493
0.00016164
0.000178895
0.000138788
0.000147714
0.000150998
0.000155681
0.00203187
0.000184223
0.0039961
0.000131626
0.000145103
0.000140751
0.000182789
0.012598
0.00541513
0.00604846
0.000152587
0.000133762
0.000418616
0.00014174
0.00263811
0.000150338
0.000134579
0.000144094
0.000149997
0.000175433
0.0180499
0.000141428
0.000180749
0.000163874
0.0282677
0.000143747
0.000132646
0.000152041
0.000187437
0.000175989
0.00014186
0.00795091
0.000143405
0.00966858
0.0155871
0.000148512
0.000176251
0.000165543
0.000169546
0.000142178
0.000130989
0.000134125
0.00852593
0.00845511
0.000138846
0.000151472
0.000144457
0.00881677
0.000164713
0.000143973
0.00016283
0.000142665
0.000267899
0.00015116
0.000162588
0.000157883
0.0162225
0.00993701
0.0107823
0.000141157
0.000133959
0.000174582
0.000147133
0.000133896
0.000142408
0.000149259
0.00014399
0.0127184
0.00851113
0.00727673
0.000169849
0.00015563
0.000163941
0.00773481
0.0102727
0.0144878
0.000159167
0.000134677
0.000136213
0.000152359
0.000119282
0.000155824
0.000138762
0.026379
0.000157872
0.0177743
0.000138307
0.000196535
0.000156083
0.000162015
0.00783773
0.0127278
0.000157101
0.000135684
0.00017156
0.000146064
0.0330467
0.000169777
0.0335084
0.00359147
0.000289476
0.000135981
0.000149089
0.000176337
0.000173846
0.0378674
0.000151192
0.000133142
0.000144277
0.000145626
0.000142905
0.000152613
0.000180283
0.000135949
0.000132456
0.000127795
0.000148246
0.00016082
0.000150407
0.000184184
0.000135814
0.000155984
0.000171267
0.0144961
0.000194714
0.000143838
0.000135444
0.000161524
0.000175655
0.000141648
0.000143242
0.000151414
0.000144203
0.000177089
0.000170783
0.000131956
0.000160982
0.00950418
0.0171558
0.000144013
0.000134884
0.000138102
0.0125531
0.000146257
0.000294011
0.00014521
0.000152482
0.000147129
0.000140207
0.0001634
0.000182349
0.00116195
0.000135193
0.00332802
0.00014896
0.000146524
0.00080952
0.000141678
0.000148665
0.000152899
0.000156971
0.000138745
0.000173522
0.000142091
0.000143781
0.000141281
0.000175099
0.000151694
0.000138524
0.00406776
0.000171508
0.000132677
0.0235374
0.0134212
0.000177718
0.000138239
0.000153097
0.000141356
0.000170824
0.000173725
0.000140418
0.00015783
0.000146191
0.00843012
0.00016413
0.000145323
0.000157811
0.00650041
0.00014565
0.0142179
0.000134407
0.000151952
0.00013152
0.00508949
0.000155989
0.000164329
0.000161805
0.00524118
0.000139888
0.000149863
0.000878767
0.000141999
0.000156749
0.0177949
0.000187375
0.000201956
0.000155898
0.000143443
0.000132825
0.000139614
0.000145377
0.000145907
0.00016319
0.000161195
0.00469817
0.00956747
0.000164065
0.00220321
0.0179802
0.000181756
0.000142867
0.000135669
0.000135404
0.000149179
0.000132362
0.000150195
0.000141236
0.000145097
0.000145884
0.000132489
0.00805096
0.0171681
0.000141207
0.000182541
0.000143716
0.014345
0.000158701
0.000181202
0.000140384
0.000166679
0.000148464
0.000161324
0.000148297
0.000130938
0.00752703
0.000175822
0.000169299
0.00210814
0.000175068
0.0158774
0.000139591
0.000175832
0.000132551
0.00778149
0.000143676
0.000132424
0.000157742
0.000185242
0.000167841
0.000142001
0.000161727
0.000175831
0.000156184
0.000155618
0.000161512
0.000193897
0.000133579
0.00318525
0.000189758
0.00014336
0.000135235
0.000147374
0.0173136
0.000155056
0.000145656
0.000186066
0.00017806
0.000157581
0.0125514
0.00464193
0.00014372
0.000169626
0.000146513
0.0142711
0.000153796
0.000143511
0.000195133
0.000155095
0.000186025
0.000160874
0.000143207
0.000174677
0.000589993
0.000146935
0.000160434
0.000149562
0.000145795
0.00443919
0.00016308
0.000173774
0.00017496
0.000158726
0.000146728
0.000195973
0.000135317
0.000150637
0.000145133
0.000176791
0.000147289
0.000178829
0.000142956
0.000178215
0.000144271
0.000150743
0.000135218
0.000171479
0.0126938
0.00015296
0.000200985
0.000149534
0.000165314
0.000135772
0.0022386
0.000134362
0.000133461
0.000135765
0.000132502
0.000150576
0.000176966
0.000141929
0.000164742
0.000133475
0.000142704
0.000139739
0.000128025
0.01469
0.000149613
0.00015147
0.000140494
0.000143177
0.000132939
0.000157319
0.00015288
0.000142196
0.000148595
0.012546
0.000142559
0.00817016
0.000135789
0.000142557
0.00459219
0.000132856
0.00384683
0.000315135
0.00352378
0.0158198
0.00014453
0.000173179
0.000181116
0.0001707
0.000151697
0.000142552
0.000189544
0.000153239
0.000148673
0.000150742
0.000139343
0.00150306
0.00014984
0.000673844
0.000153797
0.000130717
0.000146126
0.000143287
0.000160631
0.00014046
0.000185684
0.000481496
0.000146312
0.000171132
0.000143469
0.000130767
0.00012911
0.000154145
0.010619
0.000135694
0.0128638
0.0104191
0.00013967
0.00820237
0.000144478
0.000143715
0.00017854
0.000149444
0.000168427
0.00014117
0.00799579
0.000142237
0.000165102
0.000130835
0.00117604
0.000149736
0.000149358
0.000140385
0.00017061
0.000135882
0.000178053
0.000140323
0.000139489
0.000135126
0.000185472
0.00281776
0.00760326
0.00014123
0.0130484
0.00793703
0.000164092
0.00147568
0.00558014
0.0139004
0.000177444
0.000544289
0.00312524
0.000133626
0.000135029
0.000162943
0.00014231
0.000145667
0.000174491
0.000170974
0.0152013
0.000144356
0.0125729
0.000145323
0.000181992
0.0148584
0.000161997
0.000135076
0.000193024
0.000153046
0.000147645
0.0100003
0.000152999
0.000148158
0.000139843
0.0128993
0.00013071
0.00926379
0.000143124
0.000174382
0.000164892
0.000169571
0.0119427
0.000150273
0.0168641
0.000170502
0.000130781
0.000192775
0.000147673
0.000170936
0.000130728
0.00015688
0.000212296
0.0137255
0.000130967
0.000203204
0.00967562
0.000130801
0.010819
0.000182781
0.000180439
0.0161897
0.0152899
0.000134364
0.00188636
0.000186954
0.000197992
0.000157238
0.000145993
0.000156663
0.000138098
0.0100393
0.000134447
0.000158056
0.000131023
0.000150236
0.00015338
0.000170437
0.000171388
0.00196086
0.000145941
0.000173624
0.000146315
0.00861965
0.000149334
0.000149081
0.000185097
0.000142897
0.000137396
0.000147265
0.000128511
0.000143936
0.000154954
0.000157809
0.000133615
0.000148128
0.000143814
0.0122356
0.000141773
0.000140647
0.000142813
0.000149108
0.0102471
0.000132199
0.000139846
0.000196872
0.000713602
0.000132159
0.000194109
0.000147088
0.000349028
0.00017221
0.00753589
9.37469e-05
0.00014538
0.0223571
0.00014601
0.000186883
0.000142628
0.00017292
0.000140501
0.000175967
0.000173288
0.000142688
0.00107676
0.000704367
0.0187264
0.000179854
0.000169006
0.000149293
0.000132463
0.000106048
0.000147156
0.000164099
0.00367689
0.000130091
0.000149249
0.000149146
0.000139916
0.000142682
0.00015573
0.000134939
0.000180692
0.0142037
0.000143263
0.000138262
0.000164519
0.000153883
0.000148705
0.000134842
0.0174918
0.000150908
0.000452632
0.00838763
0.000181026
0.000149398
0.000146001
0.00227214
0.000151834
0.000147146
0.00792909
0.0094671
0.000149443
0.000157521
0.000142883
0.000150469
0.000129811
0.000166994
0.000138205
0.00172197
0.0150328
0.000170107
0.000144956
0.0101419
0.0185878
0.000175951
0.000153247
0.000142614
0.000143863
0.00013151
0.000142197
0.000146576
0.000203046
0.000147145
0.000145121
0.000155205
0.000139923
0.0121164
0.000140537
0.000137175
0.000131546
0.000148399
0.000160353
0.000172488
0.000142912
0.000146502
0.000187091
0.000132808
0.000145743
0.000140497
0.000150703
0.00288679
0.00241172
0.00014017
0.000144948
0.0140015
0.000171854
0.000136073
0.000128484
0.000130705
0.000140501
0.000163615
0.000143055
0.00013729
0.000144423
0.000147685
0.000867719
0.000174561
0.000150036
0.000171007
0.0132684
0.000153513
0.000190126
0.000173605
0.00737299
0.000144641
0.00020041
0.000164769
0.0159681
0.000192122
0.00018599
0.0147839
0.00020084
0.000150645
0.000199311
0.000151367
0.0157943
0.0167937
0.00641712
0.0130834
0.000130847
0.00769593
0.00014615
0.000131096
0.00016752
0.00928045
0.000155061
0.00016632
0.00014366
0.000130912
0.000151735
0.000146382
0.000151787
0.000132756
0.00490492
0.000171237
0.000162409
0.000973019
0.000134754
0.000163975
0.000140842
0.000163684
0.000146529
0.000142918
0.000132605
0.000146953
0.000147682
0.000145461
0.000141282
0.00013122
0.000177792
0.00014022
0.000174423
0.00779174
0.00145621
0.000729867
0.000192601
0.000134656
0.0162743
0.000187235
0.00260925
0.000134759
0.000130906
0.000142369
0.000967768
0.000144423
0.000146541
0.0130032
0.000190755
0.00993295
0.0179287
0.000202538
0.000174931
0.000142984
0.00014724
0.00406747
0.00159566
0.000141837
0.000142774
0.00013764
0.000233819
0.00014709
0.00710149
0.0053991
0.0177327
0.0114746
0.000158606
0.000157238
0.00573965
0.00898742
0.00390951
0.000144195
0.00719666
0.000142879
0.00403952
0.000131249
0.000142302
0.000142681
0.00013248
0.0151598
0.000137532
0.000196917
0.000180492
0.0268567
0.000143505
0.000157182
0.000162681
0.0116138
0.0104935
0.000160486
0.000182235
0.00308699
0.000130779
0.00013184
0.000158596
0.000165668
0.000180913
0.000182879
0.000145926
0.000170842
0.000643019
0.000134414
0.000137678
0.0010816
0.00776105
0.000160678
0.00014628
0.000173571
0.00921592
0.000146195
0.000220405
0.000132292
0.000172772
0.00016701
0.0117898
0.0119676
0.000145493
0.000176584
0.00014193
0.000174395
0.000152436
0.000163591
0.00014847
0.000144644
0.0171443
0.000168387
0.000170118
0.000151581
0.000150997
0.000179573
0.0012559
0.000179979
0.000168741
0.00162725
0.00185081
0.000156911
0.000151891
0.000180992
0.00865733
0.000131872
8.42079e-05
0.000183308
0.00641308
0.00013429
0.000137673
0.00118026
0.000182166
0.000140229
0.000162838
0.000143088
0.000172338
0.000174796
0.000133233
0.00997803
0.0017045
0.000139738
0.000145761
0.000137748
0.000133069
0.00013447
0.00016835
0.0102804
0.00013457
0.000148437
0.000180119
0.00270006
0.000128419
0.00425094
0.000135226
0.000133062
0.000140766
0.000139906
0.000142704
0.000175193
0.000149256
0.00969519
0.00711822
0.000171761
0.00922435
6.38725e-05
0.000163517
0.000142231
0.000166531
0.000133338
0.000135698
0.000155885
0.00882605
0.000162909
0.0271355
0.00235583
0.0168704
0.000141911
0.00744158
0.00016205
0.000380725
0.0174332
0.000141675
0.000152042
0.000156498
0.000138024
0.000146926
0.000188022
0.0146085
0.000142543
0.00016086
0.000132826
0.0101093
0.00014018
0.0142611
0.00014131
0.00411649
0.0151075
0.000175496
0.000153571
0.000153145
0.00010921
0.000187864
0.000187041
0.000135468
0.000141254
0.00427577
0.000170138
0.000197898
0.000181183
0.0113887
0.00015224
0.000155182
0.000144241
0.000145114
0.00016205
0.000142951
0.000137822
0.000137492
0.00014442
0.000140105
0.000155373
0.000558382
0.000146131
0.000140819
0.000870835
0.000574216
0.000147215
0.000175827
0.00777529
0.00015414
0.000149224
0.0141628
0.000149476
0.00146586
0.00285671
0.000142102
0.000155397
0.010488
0.000141943
0.000174447
0.000185078
0.000179409
0.000139857
0.0101648
0.00858466
0.000152341
0.000151398
0.000177165
0.000625652
0.000127778
0.000139916
0.000142927
0.000152121
0.0168864
0.0234428
0.00473034
0.0108332
0.00999074
0.000175848
0.000166018
0.000175523
0.000129082
0.000160885
0.000169563
0.000157861
0.000133023
0.00016971
0.00014164
0.000144427
0.00183683
0.00700866
0.000171955
0.00750218
0.000149095
0.000151819
0.000196476
0.00757369
0.00465366
0.0109491
0.000149323
0.000141584
0.0111301
0.000167504
0.000175502
0.000118141
0.000157879
0.000194375
0.000145905
0.000167815
0.000157158
0.000175424
0.000144965
0.00460845
0.000164239
0.000139376
0.000146376
0.000545951
0.000336682
0.000155519
0.000168235
0.0149179
0.0152012
0.000131076
0.000176322
0.000160907
0.000114397
0.000146539
0.000135795
0.000147274
0.000148735
0.00580205
0.000153016
0.000195771
0.00014247
0.000146645
0.00735485
0.000142442
0.000145644
0.000168062
0.000154722
0.000144976
0.00014335
0.000150536
0.000168081
0.00459557
0.00015749
0.000169524
0.000148047
0.000142764
0.000146295
0.000144792
0.000174431
0.000151313
0.0165379
0.000151268
0.000142567
0.000170242
0.000145742
0.000152928
0.000150396
0.00014207
0.000143723
0.000144312
0.0152752
0.000141816
0.000162652
0.000147067
0.0373608
0.00412377
0.0290306
0.000145551
0.00341251
0.000144498
0.000163192
0.000142813
0.000141283
0.00742599
0.000167668
0.000146068
0.000173566
0.0135857
0.000152899
0.0112013
0.000152207
0.000743993
0.0127128
0.000145312
0.000142465
0.00014574
0.000170902
0.000138371
0.000137479
0.000143239
0.0101188
0.00437982
0.000186021
0.000149195
0.000144124
0.000435797
0.0137506
0.0268284
0.0051124
0.00241798
0.000159221
0.00119964
0.000155362
0.000164032
0.000424535
0.000134823
0.000145405
0.000154035
0.00893207
0.00452803
0.017082
0.000139848
0.00015145
0.000150639
0.000194528
0.0141846
0.000156183
0.000172056
0.000156349
0.000160366
0.000156737
0.000134392
0.0151787
0.00543958
0.00015281
0.000152681
0.000153176
0.000159383
0.0143937
0.000153567
0.000140278
0.000143186
0.000140606
0.000146334
0.0107174
0.000183196
0.000139286
0.00016903
0.000144612
0.000142068
0.000147706
0.000140576
0.000143041
0.0109167
0.000168233
0.000167787
0.000139409
0.00017811
0.000132934
0.00013956
0.000138164
0.00013823
0.000132401
0.000146397
0.0107944
0.0001375
0.00515021
0.0235909
0.000179793
0.000164884
0.000143262
0.00830341
0.0131225
0.000146727
0.0073073
0.000175204
0.00423175
0.000138449
0.00549637
0.000168029
0.000139767
0.000719478
0.000150151
0.00019907
0.000141863
0.000141766
0.000139195
0.000174338
0.000147076
0.000141574
0.000184951
0.000156142
0.000135258
0.000143806
0.00394223
0.00014216
0.0128102
0.000152327
0.000210241
0.000180634
0.0115862
0.00186324
0.000147218
0.000144157
0.000144904
0.000147269
0.0133288
0.00938977
0.000153177
0.0001377
0.00354941
0.000150641
0.000148672
0.000132505
0.00457118
0.000149676
0.000186834
0.0150304
0.00014959
0.000194477
0.00599431
0.000173414
0.000179762
0.00018263
0.00754163
0.00338964
0.000153957
0.00580944
0.000150409
0.000166487
0.00170253
0.000155052
0.000145377
0.000147142
0.000652842
0.0152054
0.00121549
0.000153023
0.000142706
0.000168576
0.000151319
0.00915516
0.000132846
0.0136282
0.000186503
0.000140689
0.0001397
0.00571883
0.000155615
0.00345841
0.000151633
0.000155195
0.000163262
0.000192445
0.000142861
0.000156208
0.0098792
0.028537
0.00427345
0.0093645
0.000139676
0.0037132
0.000140123
0.000153873
0.000149748
0.000141111
0.000133963
0.000167085
0.000144098
0.000146167
0.000175168
0.0149544
0.0121914
0.000152266
0.000182
0.00764527
0.000139082
0.000143031
0.000141702
0.000149628
0.000192038
0.000147362
0.000144451
0.00475356
0.000144936
0.0106106
0.0102679
0.000174232
0.000133956
0.000148257
0.00016235
0.000170989
0.000155852
0.000138243
0.000137454
0.000133889
0.000170758
0.00920446
0.000193915
0.000143373
0.00183534
0.000139042
0.00019002
0.0116293
0.00017463
0.000145484
0.000170434
0.00539671
0.000138848
0.000151056
0.000180775
0.000145598
0.0181796
0.000186343
0.000134964
0.000226803
0.000173974
0.000146299
0.000140578
0.000136016
0.000143015
0.00014703
0.000154544
0.000145266
0.00013943
0.000154928
0.000144178
0.000147692
0.000141808
0.0032204
0.000151174
0.000135447
0.00335576
0.000194054
0.013941
0.000135371
0.000140007
0.000148424
0.000183214
0.000134651
0.000144979
0.000181775
0.000184462
0.000151237
0.000141785
0.000142429
0.000152138
0.000169577
0.000148235
0.000135368
0.000187184
0.000146531
0.000142939
0.000189995
0.0185649
0.0171514
0.000159234
0.000141839
0.000159026
0.0105313
0.000140672
0.000144956
0.000154706
0.000144506
0.00897352
0.00014881
0.0001435
0.000135296
0.000142936
0.00198284
0.000139626
0.000134776
0.0142927
0.000198863
0.0128936
0.000133218
0.0131938
0.000134887
0.000155313
0.000141167
0.0147052
0.000136194
0.000157465
0.000157179
0.000158222
0.000155357
0.000169483
0.000147169
0.00933041
0.000156281
0.000194242
0.000146323
0.000155544
0.00434349
0.000156533
0.000171855
0.000139124
0.000139019
0.000149297
0.000160183
0.000163523
0.0170189
0.0375977
0.000140208
0.000134251
0.00493286
0.000142281
0.000191735
0.0136581
0.00839115
0.00403541
0.000556763
0.00999768
0.000133189
0.00215096
0.000161334
0.000207365
0.000160177
0.000181303
0.000561045
0.000147389
0.000134553
0.000139962
0.000142139
0.00356239
0.00635366
0.000160817
0.000173884
0.0001282
0.000137957
0.00020213
0.000107727
0.000140914
0.000154258
0.000139008
0.000142211
0.000159782
0.00907649
0.00691811
0.000142227
0.00017948
0.000140273
0.00014418
0.000172327
0.000153526
0.000155712
0.000595152
0.000130457
0.00263815
0.000138126
0.000136683
0.000150942
0.000119866
0.0130533
0.0122906
0.000161036
0.000149961
0.000131788
0.00014861
0.000131768
0.000147369
0.000166606
0.000156951
0.000190991
0.00019542
0.000170544
0.000170172
0.000161637
0.00655925
0.000174089
0.000157695
0.00014737
0.000158538
0.000167532
0.000729791
0.00015484
0.00378259
0.000156447
0.000151248
0.000181882
0.00014096
0.000187575
0.000145592
0.000132589
0.000166388
0.0117592
0.000145124
0.000148797
0.0105169
0.000184078
0.000195523
0.000158372
0.000184282
0.00425216
0.000152433
0.000141777
0.0128491
0.000172873
0.000144994
0.0044703
0.000129606
0.0142429
0.000157492
0.000190755
0.000147172
0.000133318
0.000146358
0.000151201
0.000174387
0.0117784
0.000170207
0.000919012
0.000177158
0.0204351
0.00964619
0.000143062
0.00014296
0.000142261
0.0166308
0.0119211
0.0128021
0.0131757
0.0136955
0.0134404
0.000143602
0.000146729
0.000140284
0.0182644
0.015364
0.00015389
0.00768642
0.000142512
0.0127437
0.000145285
0.000148288
0.0104616
0.00254624
0.000146274
0.000194779
0.000155063
0.000151972
0.000148456
0.000152258
0.000176799
0.00500134
0.000142348
0.00013984
0.000186544
0.0157055
0.00104639
0.000141211
0.000148259
0.000172125
0.000135819
0.000165414
0.00609053
0.000159323
0.000175818
0.00522184
0.000134088
0.00933445
0.000107919
0.000171854
0.000143682
0.000151449
0.00893139
0.000185174
0.000144661
0.000140762
0.000142266
0.000180143
0.000169941
0.000127813
0.000142048
0.000642484
0.000160641
0.000156078
0.000146947
0.000150053
0.000174579
0.000134193
0.0147692
0.000180291
0.000150911
0.000139986
0.00225499
0.000691879
0.000160057
0.00962409
0.000516636
0.000183442
0.0112323
0.000144057
0.00703465
0.000143085
0.0040698
0.000138085
0.000153923
0.000137533
0.0146687
0.00139008
0.000175629
0.000141245
0.0127059
0.0256123
0.00816071
0.000145362
0.000177847
0.000162015
0.0103536
0.000169152
0.014392
0.000143484
0.000142983
0.000161572
0.000187524
0.00664838
0.000159839
0.000152369
0.00671279
0.000169269
0.000151829
0.000152672
0.000139716
0.012228
0.000146829
0.000138251
0.000145913
0.000158074
0.000191564
0.000134549
0.000771052
0.0116231
0.000137621
0.000139335
0.000151644
0.000143002
0.00220727
0.000141254
0.00019393
0.0113173
0.000139888
0.000156453
0.0087607
0.000171509
0.000143453
0.000141151
0.00877168
0.000135494
0.000137944
0.000175429
0.00948994
0.000160437
0.00119214
0.000146773
0.00943969
0.000153211
0.000194876
0.000139727
0.000142125
0.0105005
0.000162321
0.000144222
0.0111068
0.0001802
0.0115169
0.00787836
0.00746269
0.000141028
0.000150139
0.000152875
0.000139415
0.000140921
0.000141076
0.00684048
0.00264127
0.0053237
0.000151254
0.00019289
0.000185017
0.000147011
0.000143345
0.000142035
0.000167581
0.0143324
0.000148509
0.00392386
0.000159409
0.000146
0.000138974
0.000169717
0.00227785
0.000158064
0.000150815
0.0303928
0.000245068
0.000182738
0.000172111
0.000152182
0.000141945
0.0225965
0.000164136
0.00613209
0.000135767
0.000140551
0.0146735
0.000133617
0.000167562
0.00017934
0.00396259
0.000140256
0.000135853
0.00899124
0.000147018
0.00014175
0.000145214
0.00016093
0.00294883
0.0213151
0.000145144
0.000133669
0.000165982
0.000253653
0.000144742
0.00413312
0.000143078
0.000169016
0.000162446
0.0261599
0.000142696
0.000139211
0.000151148
0.000142944
0.000166789
0.000163728
0.000139129
0.000142466
0.0143201
0.00360712
0.000138952
0.000138444
0.00177056
0.0127299
0.000150191
0.000151207
0.00978785
0.000184492
0.000143525
0.00858393
0.000155779
0.0001474
0.000165491
0.000145289
0.00013824
0.00014176
0.000139018
0.000136213
0.000143544
0.000132376
0.000151171
0.000136703
0.000145659
0.0036745
0.000182169
0.000172477
0.000144551
0.00238261
0.000145149
0.000156589
0.000146975
0.000143608
0.000170059
0.000178372
0.000142046
0.000122447
0.000159014
0.000164857
0.000144719
0.00142947
0.00706765
0.0123614
0.000202503
0.000133601
0.0124057
0.00937705
0.000192241
0.000169108
0.00756487
0.000151293
0.000147423
0.000157094
0.000146728
0.000148053
0.000141854
0.000159404
0.00014172
0.000137246
0.00653307
0.000168928
0.000168495
0.00013935
0.000172232
0.000152765
0.00014233
0.000143248
0.000136165
0.00014657
0.000144985
0.00014579
0.000171629
0.0124517
0.000135428
0.0110848
0.010876
0.000142682
0.000142676
0.000191902
0.000858138
0.000141558
0.000142542
0.0117902
0.000142738
0.000142766
0.000180325
0.000137731
0.000142833
0.000142218
0.000145381
0.0213823
0.00952842
0.000147458
0.000141746
0.000142497
0.000140208
0.000159409
0.000141015
0.000142107
0.000148369
0.0108771
0.00347474
0.000146114
0.000167566
0.000196535
0.000149853
0.000195178
0.000156305
0.000146085
0.000139313
0.000137971
0.000141671
0.000149717
0.000155805
0.000143348
0.000178336
0.00938597
0.00731107
0.0165974
0.00014177
0.000156218
0.000154599
0.000183186
0.000156558
0.000149561
0.000152746
0.000197351
0.000145515
0.00015169
0.000184214
0.000204079
0.000169997
0.000153522
0.000142614
0.0114643
0.0160478
0.0117941
0.000143108
0.000140689
0.000135855
0.00579469
0.0258986
0.000130804
0.000163499
0.000186619
0.000336527
0.000162639
0.000154269
0.000186478
0.000139131
0.000134702
0.000168895
0.000152987
0.00129793
0.000135748
0.000156239
0.000140285
0.000176841
0.0324122
0.000178616
0.00999404
0.0027079
0.0021138
0.00643883
0.00014901
0.000163122
0.000143451
0.0139461
0.000141697
0.00460631
0.00015635
0.00799987
0.000173701
0.00429791
0.00420612
0.000157722
0.000140105
0.00989264
0.00587061
0.000141114
0.00754633
0.000153276
0.000142318
0.000155832
0.0148337
0.000139497
0.00180868
0.000149203
0.000142839
0.0142371
0.000167772
0.000327234
0.000151468
0.000184723
0.000157226
0.000159807
0.000180733
0.000288439
0.000180761
0.000168785
0.000198112
0.00896098
0.000161284
0.000703447
0.000134024
0.0021876
0.00018152
0.00015885
0.000139257
0.000170598
0.000180068
0.0138806
0.0106477
0.000144942
0.000152354
0.000172911
0.0134126
0.00017067
0.00778667
0.000259925
0.000135666
0.000464378
0.014345
0.000162701
0.000168892
0.0125154
0.000134136
0.00013391
0.000150967
0.0117772
0.0125002
0.0003594
0.00013732
0.000139549
0.00998138
0.000138434
0.0324107
0.00917349
0.000133734
0.000159464
0.000174556
0.000133931
0.000171192
0.000143265
0.00523247
0.000186605
0.000257178
0.000136812
0.000132978
0.0104489
0.000150859
0.000174368
0.0139509
0.00450756
0.000149912
0.013536
0.00041767
0.00239553
0.000186563
0.000176363
0.000143372
0.00884532
0.000169132
0.000143048
0.00251063
0.0123413
0.000168794
0.000143857
0.000199337
0.000137449
0.000144064
0.000148126
0.00013384
0.0110123
0.000382835
0.000168936
0.000174661
0.0001823
0.000179371
0.000149655
0.000934848
0.01491
0.024681
0.0170494
0.000148101
0.00014653
0.0158808
0.000132598
0.0145994
0.000145311
0.000136669
0.000167828
0.000176524
0.000168342
0.000177352
0.0238073
0.000131823
0.00016878
0.000168234
6.11242e-05
0.0161537
0.00829338
0.00375274
0.000141004
0.000793076
0.000156942
0.000146992
0.000167495
0.000133734
0.000152533
0.00246907
0.000175356
0.000160398
0.000145283
0.0374915
0.00671758
0.000176424
0.0343153
0.000198387
0.000275191
0.00013904
0.0107519
0.000150359
0.00631795
0.00965994
0.0342779
0.000141149
0.000142544
0.000600353
0.000179199
0.000128285
0.000142095
0.00015078
0.00803741