/*--------------------------------*- C++ -*----------------------------------*\
| =========                 |                                                 |
| \\      /  F ield         | OpenFOAM: The Open Source CFD Toolbox           |
|  \\    /   O peration     | Version:  v2012                                 |
|   \\  /    A nd           | Website:  www.openfoam.com                      |
|    \\/     M anipulation  |                                                 |
\*---------------------------------------------------------------------------*/
FoamFile
{
    version     2.0;
    format      ascii;
    class       volScalarField;
    location    "100";
    object      k_0;
}
// * * * * * * * * * * * * * * * * * * * * * * * * * * * * * * * * * * * * * //

dimensions      [0 2 -2 0 0 0 0];


internalField   nonuniform List<scalar> 
15335
(
0.0163444
0.000199822
0.000148109
0.000141628
0.000154734
0.000143168
0.000179393
0.000160033
0.00013203
0.000145227
0.00014912
0.000142386
0.000182837
0.000171506
0.00016241
0.000128161
0.000195218
0.00019057
0.000140741
0.000157685
0.000132117
0.0321726
0.000159986
0.000132233
0.000118338
0.0166838
0.000183162
0.000136166
0.000164231
0.00043664
0.000134202
0.000181524
0.000164322
0.0001552
0.000180314
0.00018503
0.000145194
0.000157157
0.000170914
0.000190604
0.00013579
0.00404194
0.000131535
0.000174019
0.00435786
0.000135664
0.000158649
0.000157198
0.000166964
0.000147582
0.000132366
0.000134299
0.000147187
0.000153592
0.0201966
0.0038814
0.000186158
0.000180367
0.000158615
0.00516218
0.000198612
0.00013145
0.000147187
0.000149258
0.000154521
0.014605
0.00481328
0.000142996
0.000164339
0.000130789
0.000158816
0.000159785
0.000146759
0.00531764
0.00014897
0.00647219
0.000197068
0.000171017
0.000141536
0.000184228
0.0175302
0.000162774
0.000163518
0.000182095
0.000160599
0.0162626
0.000149452
0.000182844
0.00014313
0.000151986
0.0102162
0.000193899
0.00552258
0.00256073
0.000157216
0.000182084
0.000131342
0.0147707
0.000134153
0.0149013
0.000131436
0.000151914
0.00019394
0.000128248
0.000146726
0.000131256
0.00746314
0.000146717
0.000154373
0.000173829
0.000182453
0.00017033
0.000189355
0.000163477
0.00015759
0.000135515
0.000174162
0.000146151
0.00280527
0.00920524
0.000151582
0.000180127
0.00534555
0.000140779
0.000179967
0.000136021
0.000141452
0.0262117
0.000180837
0.000153586
0.000136186
0.000180201
0.000149407
0.0162751
0.000134709
0.00547687
0.00014561
0.00013089
0.000172952
0.000154226
0.00014879
0.0106167
0.000140192
0.0172208
0.00533209
0.000150052
0.00842129
0.00017899
0.000146764
0.000176919
0.000142681
0.0140543
0.000128001
0.000156114
0.0114124
0.000144615
0.000182701
0.000146284
0.000134736
0.000160048
0.000139664
0.000156787
0.000146756
0.000170598
0.000174523
0.000141277
0.000134811
0.0159468
0.000134268
0.000141519
0.000152256
0.000142984
0.000149129
0.00014485
0.000157117
0.000155736
0.0176298
0.000134386
0.000181629
0.0146137
0.000148923
0.000509891
0.000155029
0.00015531
0.000155312
0.000188244
0.000182713
0.000481715
0.000147115
0.00711752
0.000148591
0.0145531
0.000167394
0.000135714
0.00014676
0.00377104
0.000148893
0.000131674
0.000176266
0.000178833
0.000510749
0.000157798
0.000135493
0.000183329
0.0147012
0.000157932
0.000358043
0.000141188
0.000181586
0.0161613
0.000195107
0.000157745
0.000135919
0.000163304
0.000198728
0.000156592
0.000158041
0.000169955
0.000155041
0.00418091
0.000156399
0.00017294
0.0101951
0.000181648
0.000164038
0.00637217
0.000178317
0.000147978
0.000178566
0.000195127
0.000146362
0.00018795
0.0104446
0.000160221
0.000147289
0.000151587
0.000141638
0.0129164
0.0088441
0.000149722
0.000176903
0.000144688
0.000176147
0.00015223
0.0160237
0.000156858
0.00552166
0.00015649
0.00830728
0.00259142
0.000155779
0.00013301
0.000197846
0.000162024
0.00013271
0.0342734
0.000148511
0.000163101
0.0111482
0.000132616
0.00671581
0.00146392
0.00906104
0.000169118
0.00602889
0.00723104
0.0114341
0.000133206
0.000199387
0.000148741
0.000185289
0.000127797
0.0172305
0.000135052
0.000150668
0.0094282
0.00513467
0.000155248
0.000146589
0.0150093
0.000136073
0.000141777
0.000150026
0.000146592
0.000185048
0.000146611
0.000161707
0.000141611
0.000195334
0.000156529
0.000194845
0.000152898
0.000134628
0.000143296
0.00900194
0.000156837
0.000151863
0.000134855
0.000148554
0.000150095
0.00178006
0.000174359
0.00436097
0.000484855
0.00937558
0.000136135
0.000136221
0.00138407
0.0076205
0.000178691
0.0048795
0.0001525
0.000188486
0.0173493
0.000135593
0.000161825
0.000134772
0.000134458
0.000148817
0.000157845
0.000144117
0.000151089
0.00701178
0.0109055
0.000157036
0.00467885
0.000189264
0.000134514
0.000135018
0.000135809
0.000135584
0.00758071
0.000622502
0.00015825
0.000170349
0.000131159
0.00014762
0.000155356
0.000173205
0.00408261
0.000162192
0.000172488
0.00018307
0.000162448
0.000183896
0.00585961
0.000175425
0.00802629
0.000152589
0.00015304
0.00018203
0.000134853
0.000149282
0.0148594
0.00040024
0.000152809
0.000148818
0.000135052
0.00014391
0.0101009
0.000142922
0.000135509
0.000157188
0.000142956
0.00550699
0.000156888
0.000150332
0.000149116
0.000167283
0.00014219
0.000148159
0.00014166
0.000159616
0.00014401
0.000133808
0.000135686
0.000130437
0.000127804
0.000143617
0.000181957
0.00991179
0.000180708
0.000168252
0.000177474
0.00640026
0.000163951
0.00013598
0.0129353
0.000140792
0.000143348
0.000149314
0.000168503
0.000134331
0.000152976
0.0123381
0.000151724
0.000145546
0.00012818
0.00014146
0.0121891
0.000162703
0.00525892
0.000178443
0.000132819
0.00014194
0.000174038
0.000132645
0.000148267
0.000189352
0.00014535
0.000132752
0.000145214
0.000149273
0.000151719
0.000174019
0.000135446
0.000142119
0.000156675
0.00014413
0.000145915
0.000174969
0.000138802
0.000200414
0.000143548
0.000158928
0.00012468
0.000140782
0.000143887
0.000135964
0.000200748
0.00682436
0.000179353
0.000174735
0.00539807
0.000129099
0.000132611
0.0156957
0.000174948
0.000138758
0.000163948
0.000131467
0.0001453
0.000140787
0.00889945
0.000152899
0.0114559
0.000164869
0.000144103
0.000156524
0.00553189
0.000159621
0.0152571
0.000140456
0.00534873
0.000142562
0.00014589
0.000164086
0.00791593
0.000157361
0.000146762
0.000146249
0.000158773
0.000177313
0.000152519
0.000177959
0.00308048
0.000175044
0.000197039
0.000152852
0.00015139
0.00013978
0.0164496
0.000152816
0.00170378
0.000143764
0.000138452
0.000141838
0.000152225
0.00919008
0.000145151
0.000149824
0.000147435
0.000147877
0.000140381
0.000143099
0.00965835
0.000150804
0.000145353
0.000135457
0.000145578
0.0022015
0.00185446
0.000141503
0.000133404
0.0164892
0.0120687
0.0100871
0.00016217
0.000163787
0.000181154
0.000172053
0.0376034
0.000142989
0.000173865
0.000130971
0.000155492
0.000161639
0.000178893
0.000138788
0.000147714
0.000150998
0.000155673
0.00203139
0.000184222
0.00399405
0.000131626
0.000145103
0.000140752
0.000182787
0.0125979
0.00541517
0.00604849
0.000152587
0.000133762
0.000418798
0.000141742
0.00263749
0.000150337
0.000134579
0.000144094
0.000149997
0.000175433
0.0180494
0.00014143
0.000180749
0.000163874
0.0282985
0.00014427
0.000132647
0.000152041
0.000187479
0.000175988
0.00014186
0.00795084
0.000143405
0.00966873
0.0155864
0.000148512
0.000176251
0.000165543
0.000169546
0.000142178
0.000130989
0.000134125
0.00852576
0.00845497
0.000138846
0.000151471
0.000144457
0.00881661
0.000164713
0.000143973
0.00016283
0.000142664
0.000274307
0.00015116
0.000162588
0.000157882
0.016222
0.00993684
0.0107821
0.000141157
0.000133959
0.000174581
0.000147132
0.000133896
0.000142408
0.000149259
0.00014399
0.0127175
0.00851134
0.00727662
0.000169848
0.000155621
0.000163941
0.00773505
0.0102725
0.014487
0.000159167
0.000134677
0.000136212
0.000152357
0.000119255
0.000155823
0.000138762
0.0263802
0.000157868
0.0177699
0.000138306
0.000196513
0.000156083
0.000162014
0.00783762
0.0127277
0.000157096
0.000135684
0.000171559
0.000146064
0.0330264
0.000169776
0.033486
0.00361349
0.000289532
0.000135981
0.000149089
0.00017634
0.000173845
0.037872
0.000151192
0.000133141
0.000144277
0.000145626
0.000142905
0.000152613
0.000180283
0.000135948
0.000132456
0.000127795
0.000148311
0.00016082
0.000150406
0.000184181
0.000135814
0.000155984
0.000171267
0.0144953
0.000194724
0.000143838
0.000135444
0.000161524
0.000175655
0.000141648
0.000143242
0.000151409
0.000144203
0.00017709
0.000170783
0.000131957
0.000160982
0.00950402
0.0172018
0.000144012
0.000134884
0.000138102
0.0125527
0.000146257
0.000293919
0.00014521
0.000152481
0.000147128
0.000140207
0.0001634
0.000182349
0.00119952
0.000135193
0.00332713
0.000148959
0.000146524
0.000840112
0.000141678
0.00014869
0.000152898
0.000156971
0.000138745
0.000173522
0.000142091
0.000143781
0.000141281
0.000175099
0.000152104
0.000138524
0.0040949
0.000171511
0.000132678
0.0235706
0.0134209
0.000177716
0.000138238
0.000153097
0.000141356
0.000170791
0.000173724
0.000140418
0.00015783
0.000146191
0.00842994
0.000163812
0.000145322
0.00015781
0.00650037
0.00014565
0.0142173
0.00013442
0.000151951
0.00013152
0.00508954
0.000156035
0.000164329
0.000161805
0.00519301
0.000139887
0.000149862
0.000867114
0.000141999
0.000156749
0.0177944
0.000187425
0.000201969
0.000155898
0.000143443
0.000132825
0.000139614
0.000145377
0.000145907
0.000163192
0.000161194
0.00470439
0.00956729
0.000164065
0.00220285
0.0179797
0.000181757
0.000142867
0.000135669
0.000135404
0.000149179
0.000132363
0.000150194
0.000141235
0.000145097
0.000145882
0.000132489
0.00805086
0.0171672
0.000141207
0.000182542
0.000143716
0.0143442
0.000158701
0.000181202
0.000140384
0.000166678
0.000148464
0.000161323
0.000148297
0.000130939
0.0075269
0.000175596
0.000169298
0.00210779
0.000175072
0.0158769
0.000139591
0.000175923
0.000132551
0.0077814
0.000143676
0.000132424
0.000157741
0.000185313
0.00016784
0.000142001
0.000161793
0.000175831
0.000156232
0.000155618
0.000161511
0.000193893
0.000133579
0.00314896
0.000189754
0.000143359
0.000135235
0.000147374
0.0173129
0.000155038
0.000145656
0.000186066
0.000178059
0.000157581
0.0125073
0.00462842
0.00014372
0.000169599
0.000146513
0.0142702
0.000153802
0.000143511
0.000195128
0.000155095
0.000186024
0.000160873
0.000143207
0.000174677
0.000583194
0.000146935
0.000160434
0.000149562
0.000145802
0.00441933
0.000163079
0.000172972
0.000174964
0.000158727
0.000146727
0.000195977
0.000135317
0.000150636
0.000145133
0.00017679
0.000147289
0.000178868
0.000142956
0.000178214
0.000144271
0.000150742
0.000135218
0.000171478
0.0126936
0.000152959
0.00020099
0.000150515
0.000164328
0.000135771
0.00223567
0.000134363
0.000133461
0.000135765
0.000132502
0.000150576
0.000176965
0.000141929
0.000164741
0.000133475
0.000142704
0.000139739
0.000128025
0.0146894
0.00014962
0.000151552
0.000140494
0.000143177
0.000132939
0.000157319
0.00015288
0.000142196
0.000148595
0.0125815
0.000142559
0.00817005
0.000135789
0.000142557
0.00459328
0.000132855
0.0038447
0.000315158
0.00352332
0.0158192
0.00014453
0.000173178
0.000181114
0.0001707
0.000151697
0.000142552
0.000189541
0.000153331
0.000148674
0.000150742
0.000139343
0.00154378
0.000149847
0.000666613
0.000153797
0.000130717
0.000146126
0.000143287
0.000160695
0.00014046
0.000185683
0.000473984
0.000146311
0.000171131
0.000143469
0.000130768
0.000129112
0.000154145
0.0106187
0.000135693
0.012863
0.0104291
0.00013967
0.00812007
0.000144478
0.000143715
0.000178538
0.000149444
0.000168427
0.00014117
0.00799569
0.000142237
0.000165102
0.000130835
0.00117593
0.000149736
0.000149358
0.000140384
0.00017061
0.000135882
0.000178051
0.000140326
0.000139489
0.000135126
0.000185476
0.00278073
0.00760311
0.00014123
0.0130482
0.00793693
0.000164092
0.00146833
0.00558404
0.0138998
0.000177443
0.000544074
0.00313991
0.000133626
0.000135029
0.000162942
0.000142309
0.000145667
0.000174491
0.000170973
0.0152005
0.000144356
0.0125729
0.000145322
0.000181991
0.0148577
0.000161997
0.000135076
0.000193024
0.000153045
0.000147645
0.00999948
0.000152999
0.000148158
0.000139843
0.0128989
0.00013071
0.00926318
0.000143124
0.000174382
0.000164871
0.000169571
0.0119424
0.000150274
0.0168636
0.000170501
0.000130781
0.000192776
0.000147673
0.000170936
0.000130729
0.000156879
0.000212191
0.0137248
0.000130969
0.000203211
0.00967539
0.000130802
0.0108127
0.000182786
0.000180442
0.0161892
0.0152905
0.000134364
0.00186539
0.000186953
0.000198003
0.000157238
0.000145993
0.000156663
0.000138098
0.0101878
0.000134447
0.000158102
0.000131024
0.000150236
0.00015338
0.000170436
0.000170839
0.00197406
0.00014594
0.000173623
0.000146326
0.0086198
0.000149333
0.000149081
0.000185096
0.000142897
0.000137396
0.000147265
0.000128512
0.000143936
0.000154965
0.00015781
0.00013362
0.000148128
0.000143823
0.0122354
0.000141772
0.000140647
0.000142813
0.000149108
0.0102469
0.000132199
0.000139846
0.00019687
0.000713418
0.000132159
0.000194087
0.000147088
0.000348414
0.00017221
0.00753574
9.41442e-05
0.00014538
0.0224172
0.00014601
0.000186882
0.000142628
0.000172919
0.0001405
0.000175966
0.000173292
0.000142688
0.00107702
0.000707542
0.0187268
0.00017988
0.000169184
0.000149293
0.000132463
0.00010657
0.000147156
0.000164003
0.00367612
0.000130091
0.000149283
0.000149146
0.000139916
0.000142682
0.00015573
0.000134938
0.000180647
0.0142956
0.000143261
0.000138262
0.000164518
0.000153798
0.000148704
0.000134841
0.017491
0.000150908
0.000452511
0.00838751
0.000181025
0.000149455
0.000146001
0.00227171
0.000151834
0.000147145
0.00792929
0.0094673
0.000149442
0.000157522
0.000142888
0.000150469
0.000130343
0.000166993
0.000138205
0.0017216
0.0150321
0.000170106
0.000144957
0.0101411
0.0185881
0.000175951
0.000153246
0.000142614
0.000143861
0.00013151
0.000142197
0.000146576
0.000203046
0.000147145
0.000145121
0.000155215
0.000139923
0.0121164
0.000140537
0.000137175
0.000131547
0.000148399
0.000160343
0.000172488
0.000142911
0.000146502
0.000187092
0.000132809
0.000145743
0.000140496
0.000150702
0.00306455
0.00237075
0.00014017
0.000144949
0.0139986
0.000171854
0.000136073
0.000128484
0.000130705
0.000140501
0.000163616
0.000143062
0.00013729
0.000144424
0.000147685
0.000868066
0.00017456
0.000150038
0.000171006
0.0132708
0.000153512
0.000190118
0.000173604
0.00736371
0.000144632
0.00020041
0.000164772
0.0159675
0.000195153
0.000186039
0.0147831
0.000200839
0.000150645
0.000199311
0.000151367
0.0157936
0.0167934
0.00641647
0.0130998
0.000130849
0.00764195
0.00014615
0.000131096
0.000167519
0.0092802
0.000155072
0.000166292
0.00014366
0.000130912
0.000151735
0.000146382
0.000151787
0.000132762
0.00490578
0.000171246
0.000162408
0.000985947
0.000134754
0.000163976
0.000140842
0.000163684
0.000146528
0.000142916
0.000132611
0.000146953
0.000147682
0.000145461
0.000141281
0.000131222
0.00017779
0.000140219
0.000174423
0.00779353
0.00145601
0.000754726
0.000192594
0.000134656
0.0162738
0.000186727
0.00257737
0.000134759
0.000130907
0.000142369
0.00102395
0.000144423
0.000146541
0.0130037
0.000190748
0.00993202
0.0179283
0.000202536
0.000174857
0.000142984
0.00014724
0.0040868
0.00159587
0.000141836
0.000142774
0.00013764
0.000233889
0.00014709
0.00710094
0.00539907
0.0177319
0.0114743
0.000158599
0.000157237
0.0057396
0.00898702
0.00383917
0.000144195
0.00719663
0.000142879
0.00402539
0.000131251
0.000142302
0.000142681
0.00013248
0.0151592
0.000137531
0.000197005
0.000180491
0.0268702
0.000143505
0.000157182
0.000162681
0.0116138
0.0104932
0.000160486
0.000182232
0.00308615
0.000130779
0.000131846
0.000158589
0.000165667
0.000180914
0.000182877
0.000145926
0.000170842
0.000642665
0.000134414
0.000137678
0.0010821
0.00776088
0.000160678
0.000146281
0.000173576
0.00921609
0.000146195
0.000220985
0.000132293
0.000172772
0.000167013
0.0117894
0.011955
0.000145492
0.000176583
0.00014193
0.000174381
0.000152436
0.000163591
0.000148469
0.000144644
0.017144
0.000168387
0.000170117
0.000151581
0.000150997
0.000179579
0.00125607
0.000180007
0.00016874
0.00160549
0.00185045
0.000156864
0.00015189
0.000180975
0.00865753
0.000131877
8.41166e-05
0.000183362
0.00641259
0.00013429
0.000137673
0.0011806
0.000182164
0.000140229
0.000162839
0.000143088
0.000172348
0.000174663
0.000133229
0.00997805
0.0017121
0.000139738
0.000145761
0.000137748
0.000133069
0.00013447
0.000168349
0.0102802
0.000134569
0.000148437
0.000180118
0.00269933
0.000128419
0.00425071
0.000135225
0.000133062
0.000140768
0.000139906
0.000142708
0.000175193
0.000149256
0.00969491
0.00711844
0.00017176
0.00922416
7.49884e-05
0.000163533
0.000142231
0.000166532
0.000133337
0.000135698
0.000155885
0.00883054
0.000162871
0.0270905
0.0023484
0.0168701
0.000141911
0.00744147
0.00016205
0.000380579
0.0174328
0.000141675
0.000150854
0.000156497
0.000138024
0.000146926
0.000188026
0.0146079
0.000142547
0.000160859
0.000132826
0.0101091
0.000140179
0.0142603
0.00014131
0.00410938
0.0151066
0.000175495
0.000153571
0.000153145
0.000109679
0.000187864
0.000187037
0.000135468
0.000141254
0.0042822
0.000170138
0.000197871
0.000181182
0.0113886
0.00015224
0.000155182
0.000144241
0.000145114
0.00016205
0.00014295
0.000137822
0.000137411
0.00014442
0.000140105
0.000155453
0.000558068
0.000146131
0.000140819
0.000870597
0.000601009
0.000147215
0.000175826
0.00775078
0.000154139
0.000149225
0.0141622
0.000149476
0.00146569
0.00281239
0.000142101
0.000155397
0.0104878
0.000141943
0.000174447
0.000185079
0.000179408
0.000139857
0.010164
0.00858448
0.000152334
0.000151398
0.000177163
0.000634476
0.000127779
0.000139916
0.000142927
0.000152121
0.016886
0.0234195
0.00472733
0.0108332
0.00999056
0.000175848
0.000166017
0.000175519
0.000129086
0.000160885
0.000169563
0.00015786
0.000133024
0.000169709
0.0001416
0.000144426
0.00183656
0.00701
0.000171922
0.00742937
0.000149095
0.000151818
0.000196474
0.00757467
0.00464979
0.0109489
0.000149322
0.000141575
0.0111299
0.000167503
0.000175506
0.00011813
0.000157879
0.000194367
0.000145905
0.000167814
0.000157158
0.000175424
0.000144964
0.00460358
0.000164238
0.000139375
0.000146376
0.000545963
0.000336601
0.000155519
0.000168235
0.0148674
0.0152007
0.000131076
0.000176321
0.000160907
0.000114507
0.000146539
0.000135795
0.000147274
0.000148735
0.00580512
0.000153016
0.000195779
0.00014247
0.000146645
0.00735401
0.000142442
0.000145644
0.000168061
0.000154722
0.000144976
0.00014335
0.000150536
0.000168081
0.00458791
0.00015749
0.000169524
0.000148047
0.000142764
0.000146295
0.000144791
0.000174385
0.000151313
0.0165375
0.000151268
0.000142566
0.000170242
0.000145741
0.000152928
0.000150396
0.00014207
0.000143723
0.000144312
0.0152744
0.000141815
0.000162652
0.000147067
0.0373719
0.0041246
0.0289899
0.000145551
0.00341171
0.000144494
0.000163192
0.000142813
0.000141283
0.00742882
0.000167668
0.000146068
0.000173565
0.0135854
0.000152895
0.0112011
0.000152231
0.000743836
0.0127214
0.000145311
0.000142464
0.000145739
0.000170869
0.000138371
0.000137478
0.000143238
0.0100102
0.00436995
0.00018602
0.000149195
0.000144131
0.000435817
0.01375
0.0268437
0.00525931
0.00246427
0.000159421
0.00119955
0.000155389
0.000164032
0.000424374
0.000134822
0.000145405
0.000154039
0.00891426
0.00452424
0.0170816
0.000139848
0.000151451
0.000150639
0.000194469
0.014184
0.000156183
0.00017206
0.000156378
0.000160357
0.000156737
0.000134392
0.0151781
0.00543977
0.00015281
0.000152681
0.000153176
0.000159406
0.0143928
0.000153567
0.000140277
0.000143186
0.000140606
0.000146334
0.0107172
0.000183195
0.000139286
0.00016903
0.000144611
0.000142065
0.000147706
0.000140576
0.000143041
0.0109165
0.000168233
0.000167787
0.000139409
0.000178108
0.000132934
0.00013956
0.000138164
0.00013823
0.000132401
0.000146397
0.0107942
0.0001375
0.00507595
0.0235578
0.000179792
0.000164884
0.000143262
0.00830468
0.0131003
0.000146727
0.00730719
0.000175207
0.00421989
0.000138449
0.00545945
0.000168029
0.000139767
0.000724503
0.000150151
0.000199067
0.000141863
0.000141766
0.000139195
0.000174337
0.000147075
0.000141573
0.000185068
0.000156142
0.000135258
0.000143806
0.00392583
0.00014216
0.0128097
0.000152327
0.000210623
0.000180633
0.0115861
0.0018628
0.000147218
0.000144157
0.000144904
0.000147268
0.0133279
0.00938961
0.000153177
0.000137699
0.0034994
0.00015064
0.000148672
0.000132506
0.00456352
0.000149676
0.00018683
0.0150296
0.000149589
0.000194492
0.00599628
0.000173414
0.000179761
0.000182629
0.00754434
0.0033937
0.000153961
0.00577253
0.000150409
0.000166487
0.00169516
0.000155052
0.000145377
0.000147141
0.000652614
0.0151642
0.00119886
0.000153022
0.000142705
0.000168562
0.000151319
0.00915495
0.000132846
0.0136276
0.000186504
0.000140689
0.0001397
0.00571797
0.000155614
0.00344486
0.000151637
0.000155195
0.000163261
0.00019245
0.000142861
0.000156207
0.00987898
0.0285378
0.00427244
0.00936379
0.000139676
0.00369628
0.000140123
0.000153873
0.000149748
0.00014112
0.000133969
0.000167085
0.000144098
0.000146167
0.000175167
0.0149541
0.0121908
0.000152292
0.000181994
0.00764522
0.000139082
0.00014303
0.000141702
0.000149622
0.000192041
0.000147362
0.000144451
0.00475352
0.000144935
0.0106104
0.0102677
0.000174245
0.000133956
0.000148323
0.000162349
0.000171028
0.000155833
0.000138243
0.000137454
0.000133889
0.000170757
0.00920432
0.000193921
0.000143373
0.00189892
0.000139042
0.000190023
0.0116292
0.000174629
0.000145484
0.000170433
0.00541107
0.000138848
0.000151059
0.000180775
0.000145597
0.0181788
0.000186339
0.000134964
0.000226792
0.000173984
0.000146299
0.000140578
0.000136016
0.000143015
0.000147022
0.000154474
0.000145266
0.00013943
0.000154927
0.000144188
0.000147691
0.000141808
0.00321955
0.000151174
0.000135447
0.00335062
0.000194052
0.0139399
0.000135371
0.000140007
0.000148412
0.000182737
0.000134651
0.000144978
0.000181773
0.000184461
0.000151237
0.000141785
0.000142429
0.000152137
0.000169582
0.000148235
0.000135368
0.00018718
0.000146531
0.000142939
0.000189999
0.0185655
0.017151
0.000159235
0.000141839
0.000159026
0.0105312
0.000140673
0.000144955
0.000154706
0.000144506
0.00897335
0.000148843
0.0001435
0.000135296
0.000142936
0.00195535
0.000139626
0.000134777
0.0142144
0.000199108
0.0128924
0.000133218
0.0131936
0.000134887
0.000155354
0.000141166
0.0147042
0.000136194
0.000157464
0.000157178
0.000158222
0.000155356
0.000169482
0.000147169
0.00933021
0.000156281
0.000194245
0.000146323
0.000155543
0.00434288
0.000156533
0.000171855
0.000139124
0.000139019
0.000149298
0.000160183
0.000163523
0.0170185
0.0376084
0.000140208
0.000134252
0.00502826
0.000142281
0.000191737
0.0136571
0.0083914
0.00405742
0.000556649
0.009997
0.000133189
0.00217235
0.000161334
0.000207311
0.000160177
0.000181302
0.000560926
0.000147389
0.000134553
0.000139962
0.000142139
0.00357979
0.00635389
0.000160817
0.000173937
0.000128201
0.000137957
0.000201823
0.000107849
0.000140914
0.000154258
0.000139008
0.000142211
0.000159782
0.00907635
0.00691807
0.000142227
0.00017948
0.000140273
0.00014418
0.000172326
0.000153526
0.000155711
0.000594848
0.000130453
0.00263862
0.000138126
0.000136683
0.000150941
0.000120167
0.0130526
0.0122903
0.000161035
0.00014996
0.000131789
0.000148609
0.000131764
0.000147369
0.000166605
0.000156945
0.000190989
0.000195428
0.00017055
0.000170171
0.000161637
0.00655883
0.000174085
0.000157695
0.00014737
0.000158538
0.000167521
0.000729414
0.00015484
0.00378865
0.000156348
0.000151248
0.000181882
0.00014096
0.000187572
0.000145592
0.000132584
0.000166388
0.0117591
0.000145124
0.000148797
0.0105166
0.000184079
0.000195529
0.000158372
0.000184279
0.00427012
0.000152435
0.000141777
0.0128486
0.000172872
0.000144571
0.00448174
0.000129607
0.0142419
0.000157491
0.000190758
0.000147167
0.000133318
0.000146327
0.0001512
0.000174387
0.0117782
0.000170206
0.000918313
0.000177178
0.0203645
0.00964644
0.000143062
0.00014296
0.000142261
0.01663
0.0119208
0.0128017
0.0131753
0.0136949
0.0134401
0.000143602
0.000146729
0.000140284
0.018261
0.0153616
0.00015389
0.00768582
0.000142512
0.0127434
0.000145284
0.000148288
0.0104614
0.00255743
0.000146274
0.000194786
0.000155062
0.000151972
0.000148456
0.000152257
0.000176798
0.0050024
0.000142348
0.00013984
0.000186541
0.0156413
0.00104573
0.000141211
0.000148259
0.000172124
0.000135819
0.000165415
0.00609075
0.000159314
0.000175816
0.0052419
0.000134088
0.00933412
0.000108361
0.000171846
0.000143682
0.000151449
0.00893363
0.000185173
0.000144661
0.000140762
0.000142265
0.000180147
0.000169941
0.000127814
0.000142048
0.000642332
0.000160641
0.000156078
0.000146947
0.000150053
0.000174561
0.000134193
0.0147845
0.00018029
0.000150904
0.000139876
0.00234665
0.000684036
0.000160056
0.00962432
0.000516397
0.000183441
0.011232
0.000144057
0.00703491
0.000143085
0.00407209
0.000138085
0.0001538
0.000137533
0.0146678
0.00143814
0.000175629
0.000141245
0.0127056
0.0256555
0.00816061
0.000145362
0.000177847
0.000162003
0.0103533
0.000169152
0.0143904
0.000143484
0.000142983
0.000161571
0.00018752
0.00664823
0.00015984
0.000152369
0.00668165
0.000169268
0.000151829
0.000152671
0.000139716
0.0122278
0.000146829
0.000138251
0.000145913
0.000158082
0.00019156
0.000134551
0.000770625
0.0116228
0.000137621
0.000139335
0.000151648
0.000143001
0.00220679
0.000141254
0.000193935
0.0113284
0.000139888
0.000156452
0.00876056
0.000171508
0.000143453
0.000141151
0.00877151
0.000135494
0.000137944
0.000175429
0.00948976
0.00016044
0.00119183
0.000146773
0.00943953
0.000153211
0.000194886
0.000139727
0.000142124
0.0105003
0.00016232
0.000144221
0.0111065
0.000180228
0.0115165
0.00786371
0.00746298
0.00014102
0.000150134
0.000152875
0.000139414
0.00014092
0.000141039
0.00684073
0.00264064
0.00526736
0.000151255
0.000192894
0.000185014
0.000147011
0.000143345
0.000142035
0.000167581
0.0143502
0.000148509
0.00392264
0.000159408
0.000146
0.000138973
0.000169716
0.00227709
0.000158064
0.000150814
0.0303935
0.000245265
0.000182734
0.000172416
0.000152181
0.000141945
0.0225971
0.000164213
0.00613228
0.000135767
0.000140551
0.0146726
0.000133618
0.000167562
0.00017934
0.00397977
0.000140256
0.000135853
0.00899141
0.000147018
0.00014175
0.000145214
0.000160921
0.00292855
0.0212418
0.000145155
0.000133842
0.000165981
0.000253645
0.000144742
0.0041319
0.000143078
0.000169019
0.000162446
0.026195
0.000142696
0.000139211
0.000151147
0.000142944
0.000166789
0.000163728
0.000139128
0.000142466
0.0143191
0.00360632
0.000138952
0.000138444
0.00175803
0.0127296
0.000150187
0.000151207
0.00978713
0.000184491
0.000143525
0.00856465
0.000155776
0.0001474
0.00016549
0.000145289
0.000138239
0.00014176
0.000139018
0.000136207
0.000143544
0.000132586
0.000151171
0.000136703
0.000145659
0.0036787
0.000182039
0.000172476
0.000144551
0.00238219
0.000145149
0.000156588
0.000146974
0.000143607
0.000170059
0.000178372
0.000142046
0.000122762
0.000159014
0.000164835
0.000144719
0.00143306
0.00706781
0.0123609
0.000202422
0.000133601
0.0124054
0.00937615
0.000192238
0.000169107
0.00756428
0.000151297
0.000147423
0.000157123
0.000146728
0.000148053
0.000141854
0.000159403
0.00014172
0.000137246
0.0065333
0.000168927
0.000168495
0.00013935
0.000172232
0.000152765
0.00014233
0.000143247
0.000136165
0.000146569
0.000144985
0.00014579
0.000171629
0.0124513
0.000135428
0.0110844
0.0108757
0.000142682
0.000142674
0.000191904
0.000857928
0.000141558
0.000142542
0.0117901
0.000142738
0.000142766
0.000180324
0.000137732
0.000142833
0.000142218
0.00014538
0.0213449
0.00952824
0.000147458
0.000141746
0.000142497
0.000140208
0.000159392
0.000141014
0.000142107
0.000148368
0.010877
0.00347362
0.000146113
0.000167554
0.00019649
0.000149853
0.000195182
0.000156304
0.000146085
0.000139313
0.000137971
0.00014171
0.000149717
0.000156082
0.000143348
0.000178336
0.00938618
0.00731303
0.0165969
0.00014177
0.000156217
0.000154599
0.000183181
0.000156558
0.000149574
0.000152745
0.000197359
0.000145514
0.00015169
0.000184214
0.000204067
0.000169996
0.000153523
0.000142611
0.0114637
0.0160473
0.0117937
0.000143108
0.000140689
0.000135855
0.00579473
0.0259446
0.0001308
0.000163499
0.000186615
0.00033654
0.00016264
0.000154268
0.000186539
0.00013913
0.000134702
0.000168925
0.000152987
0.00129726
0.000135748
0.000156239
0.000140285
0.000176834
0.0324122
0.000178616
0.00999393
0.00267824
0.00211287
0.00643904
0.00014901
0.000163119
0.000143451
0.0139509
0.000141697
0.00458894
0.000156346
0.00797055
0.000173701
0.00424771
0.00435546
0.000157716
0.000140105
0.00989187
0.00586974
0.000141114
0.00754638
0.000153276
0.000142318
0.000155829
0.0148328
0.000139496
0.00179417
0.000147297
0.000142839
0.0142377
0.000167756
0.000325858
0.000151468
0.000184777
0.000157123
0.000159807
0.000180732
0.000288351
0.000180761
0.000168785
0.000198128
0.0089599
0.000161283
0.000703178
0.000134062
0.00218678
0.000181524
0.000158791
0.000139257
0.000170598
0.000180068
0.0138798
0.0106476
0.000144942
0.000152356
0.000172922
0.0134116
0.000170671
0.00778697
0.000259512
0.000135641
0.000462671
0.0143446
0.0001627
0.000168892
0.0125153
0.000134136
0.00013391
0.000150966
0.0117769
0.012499
0.000357718
0.00013732
0.000139549
0.00998404
0.000138434
0.032411
0.00917306
0.000133734
0.000159464
0.000174554
0.000133931
0.000171191
0.000143265
0.00525099
0.000186601
0.000268425
0.000136812
0.000132978
0.0104489
0.000150859
0.000174381
0.0139506
0.00450732
0.000149927
0.0135355
0.000417517
0.00239522
0.00018656
0.000176367
0.000143372
0.00884441
0.000169122
0.000143047
0.00249399
0.0123412
0.000168793
0.000143856
0.00019941
0.000137418
0.000144063
0.000148126
0.00013384
0.0110121
0.000380465
0.000168936
0.00017466
0.000182298
0.000179376
0.000149655
0.000935436
0.0149091
0.0246813
0.01705
0.000148101
0.00014653
0.0157716
0.000132598
0.0145992
0.000145311
0.00013667
0.000167812
0.000176533
0.000168342
0.000177352
0.0238081
0.000131823
0.00016878
0.000168233
6.07487e-05
0.0161485
0.00829226
0.0037542
0.000141004
0.00079274
0.000156936
0.000146991
0.000167494
0.000133734
0.000152533
0.00246828
0.000175355
0.000160398
0.000145271
0.0374938
0.00668927
0.000176423
0.034306
0.000198404
0.000274542
0.00013904
0.0107515
0.000150359
0.00631738
0.00965979
0.0342786
0.000141149
0.000142544
0.000593757
0.000179198
0.000128285
0.000142095
0.000151019
0.00803735