/*--------------------------------*- C++ -*----------------------------------*\
| =========                 |                                                 |
| \\      /  F ield         | OpenFOAM: The Open Source CFD Toolbox           |
|  \\    /   O peration     | Version:  v2012                                 |
|   \\  /    A nd           | Website:  www.openfoam.com                      |
|    \\/     M anipulation  |                                                 |
\*---------------------------------------------------------------------------*/
FoamFile
{
    version     2.0;
    format      ascii;
    class       volScalarField;
    location    "100";
    object      nut;
}
// * * * * * * * * * * * * * * * * * * * * * * * * * * * * * * * * * * * * * //

dimensions      [0 2 -1 0 0 0 0];


internalField   nonuniform List<scalar> 
15335
(
0.00571306
0.00114035
0.000856368
0.00584818
0.00560377
0.00582817
0.0022391
0.0062134
0.00579905
0.00590798
0.00589422
0.00584142
0.00286968
0.00326575
0.00471757
0.00578649
0.00126802
0.00136764
0.00582567
0.00530157
0.00579993
0.00669329
0.00428294
0.00580305
0.000794852
0.00550265
0.00210538
0.00582613
0.00449253
0.00423364
0.00581269
0.00230515
0.0064047
0.00546815
0.00245301
0.00197245
0.00590895
0.00542752
0.00303064
0.0013626
0.00580982
0.00187254
0.00579245
0.00363717
0.0132723
0.0058163
0.00450232
0.00633673
0.00411938
0.00597328
0.00580567
0.00581866
0.00591391
0.00554691
0.00225629
0.0123806
0.00156469
0.00599997
0.00530666
8.32776e-05
0.00119201
0.00587129
0.00591316
0.00585022
0.0049697
0.00547531
0.0140888
0.00585337
0.00385934
0.00578911
0.00584778
0.00416078
0.00591378
0.0148907
0.00587492
0.00408481
0.00119284
0.00649455
0.00594534
0.00207147
0.00586173
0.00470823
0.00460963
0.00235898
0.00500857
0.0015585
0.00584562
0.0021573
0.00582806
0.00565215
0.00189256
0.00255906
0.0152278
0.00136496
0.00535412
0.0023613
0.00579301
0.00552011
0.00581325
0.00553296
0.0057937
0.00572265
0.00133037
0.00578803
0.00607846
0.00579254
0.000494249
0.00589801
0.0057854
0.00264886
0.00655125
0.0040078
0.00356657
0.00626493
0.00618984
0.00581807
0.00256924
0.00602992
0.00134615
0.00141047
0.00574651
0.00228673
0.00225231
0.00582714
0.00248336
0.00583072
0.00582703
0.00537516
0.00239871
0.00580416
0.0058381
0.00240339
0.00610732
0.00571952
0.00583618
0.0151466
0.00591184
0.00579
0.00319662
0.00556375
0.00590029
0.00489631
0.00582236
0.00570642
0.00210587
0.0058723
0.00465567
0.00611353
0.00590514
0.00320373
0.00600537
0.00396728
0.00578017
0.005471
0.00500911
0.00590956
0.00230835
0.00590067
0.00581401
0.00483912
0.005832
0.00569225
0.00591468
0.00390093
0.0060388
0.00584253
0.0058198
0.00412416
0.00583885
0.005824
0.00577537
0.00588649
0.00589427
0.00591195
0.0053706
0.00553869
0.00586292
0.00584039
0.00239234
0.00550014
0.00589834
0.00373173
0.00611097
0.00555158
0.00485787
0.00152313
0.00231084
0.0037615
0.00591688
0.000564986
0.00616644
0.00548307
0.00407786
0.00580962
0.00591017
0.00171085
0.0058985
0.00588612
0.0025819
0.00107023
0.00334877
0.00532568
0.00582444
0.00281259
0.00547846
0.00555589
0.000632433
0.00582524
0.00229911
0.005705
0.00124942
0.00536686
0.00581366
0.00557911
0.00118532
0.00544114
0.00616458
0.00376845
0.0061261
0.0149834
0.00547128
0.0036216
0.00436646
0.00239253
0.00623335
0.000634519
0.00208815
0.00590192
0.00241489
0.00129124
0.00588693
0.00154074
0.00404303
0.00471766
0.00591361
0.005811
0.00589332
0.011815
0.00136638
0.00586071
0.00322912
0.00585867
0.0030988
0.00577536
0.00563626
0.00468019
0.0151693
0.0054569
0.00390802
0.00134857
0.0055014
0.00581804
0.0012001
0.00574273
0.00580436
0.00744325
0.00588956
0.00632269
0.00472907
0.00580362
0.00254425
0.000896935
0.00161498
0.000698145
0.00210943
0.000956606
0.00502607
0.00580277
0.00117215
0.00590078
0.00145308
0.00577709
0.00578536
0.00584533
0.00584682
0.00320897
0.000117187
0.00560757
0.00590935
0.00553672
0.00582168
0.0058325
0.00586518
0.00590407
0.0015754
0.00590434
0.00489327
0.00584544
0.00118415
0.00542693
0.0012381
0.00573522
0.00581643
0.0058922
0.00184849
0.00539056
0.00579744
0.0058187
0.00590455
0.00586111
0.00710891
0.00251327
0.00493281
0.00390145
0.00475991
0.00582143
0.00582534
0.00505007
0.00132202
0.00213673
0.000211189
0.00576294
0.00456316
0.00583322
0.0058167
0.00571777
0.00586223
0.00584813
0.00590088
0.0061243
0.00585172
0.00605881
0.00640645
0.00471015
0.00537399
0.00149203
0.0014868
0.00584824
0.00587041
0.00590372
0.00581065
0.00695711
0.000581617
0.00533513
0.00373225
0.00579173
0.00591899
0.00554394
0.00316567
0.00191165
0.00459751
0.00263651
0.00162805
0.00391865
0.00657995
0.00235293
0.00282076
0.00378617
0.00575394
0.00572801
0.00292891
0.00586124
0.00605239
0.00501066
0.00171459
0.00573835
0.00566992
0.00587116
0.00587695
0.0136005
0.00582786
0.00580811
0.00486259
0.00582828
0.0151515
0.00587149
0.00586125
0.00589445
0.00409233
0.00582749
0.00578888
0.00597382
0.00480038
0.00588631
0.00580965
0.00582095
0.00583742
0.00577786
0.00584163
0.00291322
0.00459625
0.00240032
0.00264845
0.00301237
0.000440202
0.00414943
0.00581568
0.00511283
0.00587612
0.0058916
0.00589214
0.00414652
0.00581726
0.00573291
0.0107117
0.00576788
0.00588469
0.00578456
0.00583214
0.00485479
0.00455306
0.0147302
0.00274242
0.00580753
0.00583186
0.00303551
0.00579515
0.00590796
0.00168123
0.00588033
0.00580728
0.0058936
0.00596054
0.0058033
0.00254954
0.00581829
0.00582683
0.00486145
0.00590742
0.00589834
0.00314946
0.00581907
0.00115544
0.00584038
0.00507313
0.000835113
0.00582774
0.00590456
0.00583142
0.00114301
0.00259004
0.00583723
0.00663267
0.0149725
0.00580396
0.00579516
0.00535366
0.0031478
0.00581878
0.00438092
0.00579234
0.00591109
0.00591748
0.00260428
0.0057339
0.00490089
0.00341918
0.00584868
0.00542789
0.0151978
0.00572095
0.00519364
0.00582348
9.41396e-05
0.00594956
0.00590272
0.00452069
0.0030569
0.00592976
0.00590533
0.00590141
0.00424989
0.00617417
0.00576192
0.00200604
0.0107574
0.00627938
0.00122792
0.00573536
0.00582183
0.00583343
0.00562501
0.0057413
0.00119209
0.00588546
0.00582896
0.00583402
0.00578003
0.0015625
0.00587768
0.00583113
0.00591073
0.00590128
0.00582559
0.00586344
0.00447376
0.00581819
0.00591031
0.00582573
0.00590335
0.00822614
0.00736126
0.00582908
0.00590092
0.00567129
0.00393718
0.00199449
0.00475743
0.00453903
0.00189202
0.00600209
0.0090797
0.0058535
0.00294685
0.00579031
0.00552875
0.0048277
0.0021873
0.00581094
0.00590442
0.00580834
0.00553752
0.0012982
0.00163759
0.0145327
0.00579313
0.00588567
0.00600031
0.00219036
0.00520223
0.000310301
0.000294625
0.00575511
0.00581032
0.000803438
0.00590446
0.00142535
0.00583853
0.00581738
0.00590664
0.0058716
0.00250312
0.00587906
0.00590321
0.00195302
0.00410115
0.0087591
0.00458584
0.00581337
0.0057908
0.00452096
0.00222744
0.00582448
0.00125036
0.00583919
0.00423431
0.00554383
0.00590416
0.00296697
0.00318882
0.00382661
0.00586858
0.00578868
0.00581545
0.00142399
0.00164869
0.00581163
0.0057847
0.00585406
0.00238772
0.0033198
0.00589012
0.00467242
0.00584525
0.00178679
0.0058318
0.00472606
0.00438311
0.00548568
0.00301128
0.004273
0.00582399
0.00579423
0.00290126
0.00591413
0.00579379
0.00587289
0.00596445
0.00586709
0.00500577
0.00382439
0.00111123
0.0037668
0.00554681
0.00451942
0.00154851
0.00234138
0.00548495
0.00489818
0.00581474
0.00583678
0.00573016
0.000249144
0.00609171
0.0058103
0.00728178
0.00531567
0.00302939
0.00582666
0.00119904
0.00482306
0.004778
0.00104173
0.00521416
0.00537578
0.00581166
0.00275861
0.00590825
0.0147782
0.00379561
0.013877
0.012088
0.000508854
0.00582274
0.00589547
0.00292961
0.00294768
0.0103632
0.00583359
0.00580277
0.00602131
0.00591337
0.00585035
0.00575814
0.00214694
0.00583366
0.00579734
0.00577605
0.00597514
0.00452445
0.00596753
0.00199554
0.00581889
0.00477363
0.00328094
0.00549094
0.001211
0.00586413
0.00584645
0.00483834
0.00302346
0.0058333
0.00585964
0.000703088
0.00585023
0.00283177
0.00370408
0.00579909
0.00620985
0.00154538
0.00952628
0.00585003
0.00581663
0.00582504
0.00422455
0.00613634
0.000633512
0.00589353
0.00576317
0.00591366
0.0058675
0.00461321
0.00175118
0.00158981
0.00584169
0.00158224
0.00589782
0.00589898
0.00439209
0.00588581
0.00587142
0.00573325
0.0053793
0.00581018
0.00272107
0.0059647
0.00585864
0.00582593
0.00639108
0.00479596
0.00582882
0.0129666
0.00651323
0.00580885
0.00752953
0.0037977
0.00248901
0.00582706
0.00572594
0.00582622
0.00362641
0.00329894
0.00582215
0.00530013
0.00604956
0.00136221
0.000628195
0.00588136
0.00613898
0.000419111
0.00591274
0.00493907
0.000442556
0.00605614
0.00579418
0.000239713
0.0056616
0.00419011
0.00483095
0.00950265
0.00581559
0.00596208
0.00458737
0.00589226
0.00612463
0.00578314
0.0022883
0.00112848
0.00548842
0.00589924
0.0058143
0.00583482
0.00589497
0.00590242
0.00474349
0.00489134
0.0140518
0.00259807
0.00396414
0.0012276
0.00592467
0.00235594
0.00590271
0.00583214
0.0058071
0.00589319
0.00580087
0.00584307
0.00582426
0.00586461
0.00582945
0.00579435
0.00141403
0.00549719
0.00582316
0.00229984
0.00584173
0.0054609
0.00518977
0.00187415
0.00582848
0.00415772
0.00590399
0.00498059
0.00590657
0.00585535
0.00126334
0.00759366
0.00382807
0.00117703
0.0065401
0.00534921
0.00583178
0.0004168
0.00580641
0.00113164
0.00583975
0.00579372
0.00530964
0.00213618
0.00389236
0.00583349
0.00552268
0.00222763
0.00561697
0.00551762
0.00495702
0.00132617
0.00580892
0.00726932
0.00144362
0.00585273
0.0058236
0.00590718
0.00555867
0.00548752
0.00610949
0.00188559
0.00222009
0.00537859
0.00926004
0.0138993
0.00590699
0.00370615
0.00589882
0.00540026
0.00560107
0.00587906
0.00136091
0.00559176
0.00188049
0.00492599
0.00589693
0.00638421
0.006723
0.00590154
0.00477261
0.00588585
0.00590558
0.0134708
0.00463991
0.00512186
0.00318863
0.00523653
0.00591505
0.00127549
0.00580682
0.00601932
0.00588997
0.00222622
0.00591383
0.00624907
0.00582315
0.00218155
0.00590381
0.00601122
0.00580588
0.00298173
0.00522148
0.00572806
0.00112167
0.00249942
0.00758895
0.00589185
0.00179007
0.00581524
0.00579272
0.00582068
0.0057971
0.00584871
0.00220218
0.00589682
0.0044562
0.00579291
0.00584525
0.00581545
0.00578428
0.00510489
0.00575309
0.00648294
0.0058223
0.00586904
0.00579889
0.00534641
0.00573725
0.00584067
0.00597848
0.00695083
0.00588583
0.00137488
0.00581204
0.00590061
0.0135766
0.00579806
0.0120694
0.000788015
0.00162386
0.00559554
0.00590634
0.00248342
0.00244585
0.00294051
0.00580558
0.00590111
0.00139088
0.00599374
0.00587648
0.00580279
0.00587448
0.00677211
0.00573489
0.00658369
0.00561797
0.00578871
0.00589634
0.0058521
0.00567713
0.00582115
0.0018643
0.00145031
0.00589581
0.00358653
0.00584005
0.00579766
0.00580754
0.0051886
0.0029391
0.0058282
0.00507318
0.00494346
0.00581534
0.0110984
0.0059073
0.00588305
0.00275376
0.00588871
0.00393777
0.00588357
0.00140304
0.0058985
0.00328971
0.00579787
0.00101305
0.00587578
0.00587002
0.00589911
0.00335698
0.00581062
0.00270065
0.00589653
0.00583297
0.00580559
0.00660403
0.00649823
0.00142365
0.00588594
0.00527662
0.00132891
0.00454466
0.00384644
0.0152906
0.00472231
0.00212388
0.000448116
0.0110162
0.00580852
0.00580465
0.00465178
0.00582962
0.00602313
0.00243703
0.00286521
0.00558186
0.00600729
0.00520845
0.00591058
0.00229636
0.00546778
0.00477887
0.00582073
0.00132588
0.00572949
0.00590633
0.003254
0.00573112
0.00590864
0.00582483
0.00519588
0.00579231
0.00466926
0.00584225
0.00296328
0.00427825
0.00400765
0.00339712
0.00581997
0.00561526
0.0037287
0.00579277
0.00132546
0.0059025
0.00371793
0.0057948
0.00539409
0.000355715
0.00535105
0.0058066
0.0011118
0.00169719
0.0057952
0.00828955
0.00656167
0.00667499
0.00561004
0.00483678
0.00579541
0.00528214
0.00180453
0.0012269
0.00539902
0.005914
0.00477156
0.00582882
0.0111699
0.0057958
0.00586548
0.00580624
0.00581782
0.00571521
0.00617236
0.000512492
0.00369696
0.0058882
0.00328505
0.00590912
0.00390564
0.00586847
0.00589446
0.00192383
0.00587091
0.0058175
0.00591329
0.00579549
0.00589764
0.00551885
0.00632837
0.00581461
0.00589307
0.00590098
0.00285498
0.00584953
0.00582469
0.00588937
0.005895
0.00302361
0.00578888
0.00582314
0.00122459
0.000692405
0.00578888
0.00128743
0.00591488
0.0015118
0.00313111
0.00135644
0.00336889
0.00589531
0.0144972
0.0060105
0.00168326
0.00584269
0.00304991
0.0058712
0.00243336
0.0033741
0.00588035
0.00124579
0.00373281
0.00309804
0.00270777
0.00673986
0.00588848
0.00580256
0.00363228
0.00591402
0.000319135
0.00168391
0.00582708
0.00587669
0.00589528
0.00581658
0.00582698
0.00553049
0.00580437
0.00298385
0.00929847
0.00589801
0.00581536
0.00610892
0.00693912
0.00590227
0.00580335
0.00555119
0.00579009
0.000451468
0.00151787
0.00194211
0.0059437
0.00591357
0.00128482
0.00578857
0.00591339
0.00363901
0.00103879
0.00588869
0.00525482
0.00589233
0.005849
0.00219274
0.00412883
0.00581498
0.000952472
0.00532732
0.00372067
0.00601226
0.00482709
0.00269471
0.00638688
0.00571762
0.00582607
0.00589509
0.0058264
0.00582513
0.00606447
0.00112105
0.00590449
0.00588647
0.00547598
0.00582365
0.00508943
0.00582134
0.00580624
0.00582509
0.0059053
0.00500906
0.00351221
0.00590221
0.00591396
0.00180522
0.00581606
0.00588304
0.00587271
0.00583901
0.00363171
0.00311974
0.00589084
0.00590269
0.0029142
0.00350011
0.00581971
0.00579073
0.00579022
0.00582028
0.00430445
0.00589668
0.00580641
0.00606898
0.00590902
0.00111268
0.00232701
0.00617857
0.00392782
0.0207438
0.00570419
0.0015553
0.00327813
0.00419838
0.00107549
0.00115449
0.00644147
0.0056544
0.000786436
0.00236639
0.00547757
0.00113048
0.00585221
0.001169
0.00582294
0.00562133
0.00558573
0.00319047
0.00543212
0.00580179
0.00680459
0.00589256
0.00578987
0.00405911
0.00171759
0.00551517
0.0041889
0.00586214
0.00578854
0.00580283
0.00591327
0.00579421
0.00585609
0.0143564
0.00374045
0.00352336
0.00569718
0.0058031
0.00443638
0.00590169
0.004554
0.00590505
0.00589968
0.00585037
0.00590447
0.00590887
0.00590363
0.00587659
0.00581488
0.00283956
0.00582471
0.00323306
0.0043567
0.0011183
0.0037419
0.00142636
0.00580211
0.00543333
0.00813198
0.00342422
0.00582342
0.00580123
0.00582991
0.00415574
0.00590663
0.00590212
0.00496333
0.00137952
0.00326284
0.00591688
0.00111131
0.00038615
0.00584099
0.00591097
0.00996847
0.00106171
0.00583092
0.00584092
0.00584214
0.000944527
0.00591273
0.00280549
0.000312677
0.00565359
0.00394828
0.00521199
0.00536619
0.000314875
0.00462219
0.00583335
0.00590133
0.000867251
0.00584202
0.0127137
0.00581403
0.00584216
0.00584304
0.00580957
0.00507556
0.00582289
0.00388029
0.00250027
0.0203047
0.00587742
0.00514157
0.00460495
0.00487972
0.00416914
0.00496464
0.00202888
0.00145227
0.0057908
0.00583404
0.00521681
0.00332417
0.0024182
0.00189656
0.00588727
0.00299819
0.000582857
0.00581452
0.00584101
0.00102708
0.00142993
0.00381668
0.00608152
0.00651755
0.00409849
0.00590731
0.00457104
0.00580121
0.0030265
0.0064369
0.00358412
0.00554225
0.00590532
0.00634538
0.00582532
0.00143144
0.00576495
0.00435762
0.00588829
0.00599251
0.00572249
0.00327353
0.00298637
0.0059677
0.00583658
0.00664395
0.00107069
0.00269015
0.00389684
0.00549748
0.00114571
0.000416538
0.00579752
0.00160002
0.000538516
0.00583458
0.00153284
0.00408022
0.00260032
0.00579973
0.00582488
0.00111309
0.00193174
0.00581978
0.00476569
0.00584222
0.00358895
0.000377707
0.00588566
0.00443097
0.00256456
0.00582572
0.00589895
0.00582476
0.00579232
0.00580091
0.00632984
0.00189309
0.00580191
0.00590523
0.00186183
0.00161742
0.00579409
0.0151152
0.0058162
0.00579204
0.0058963
0.00582513
0.00590547
0.00638813
0.0058879
0.00188745
0.00139934
0.00270075
0.00293401
0.000165718
0.00557333
0.00589914
0.000578163
0.00587781
0.00583086
0.0051647
0.00457335
0.000501933
0.0110723
0.00294359
0.00553227
0.00589563
0.00111423
0.00369309
0.000457483
0.00581519
0.00584601
0.00327148
0.00544091
0.00582492
0.0059025
0.00664821
0.00494738
0.00590135
0.00492914
0.00581091
0.00319767
0.00582442
0.00508731
0.00582749
0.0125825
0.00547571
0.00308478
0.00604061
0.00572133
0.00383353
0.00156443
0.00167433
0.00582849
0.00582238
0.0129668
0.0030166
0.00256663
0.00240816
0.00497771
0.00577586
0.00555746
0.00584969
0.00591287
0.00443504
0.00584101
0.00582324
0.00658949
0.00585471
0.00581579
0.00601591
0.000611819
0.00589515
0.00584528
0.000674487
0.00328775
0.00591184
0.00308859
0.0131397
0.00603243
0.00585439
0.00497223
0.00588798
0.000951224
0.00450064
0.0058438
0.00553381
0.00335026
0.00586357
0.00637139
0.0015805
0.00196336
0.00582694
0.00480213
0.00124039
0.00569924
0.00582132
0.00291685
0.00464862
0.00577728
0.00582706
0.00585492
0.0057817
0.00573016
0.0164547
0.0031658
0.00474372
0.00348526
0.00639415
0.00351668
0.000583547
0.00580811
0.0039586
0.00347236
0.00529355
0.00581613
0.00376485
0.00653098
0.00588044
0.00110586
0.00397776
0.00355668
0.00615599
0.00588984
0.00580112
0.00125858
0.00418681
0.0137729
0.0044762
0.00588379
0.000995618
0.00492524
0.00366683
0.00655573
0.000564422
0.00528284
0.0014293
0.00600541
0.00402679
0.00517893
0.00311504
0.00588456
0.0136719
0.00610765
0.00581284
0.00591242
0.000547052
0.000434934
0.00555016
0.00382124
0.0188213
0.00523062
0.00579135
0.00627592
0.00463064
0.00106612
0.00591244
0.00582559
0.00591198
0.00590044
0.00358593
0.00573039
0.00124068
0.00590265
0.00590283
0.00359276
0.00582776
0.00590721
0.00400156
0.0056149
0.00588499
0.00586479
0.00585839
0.0036859
0.0135848
0.00533071
0.00288102
0.00590142
0.00582683
0.0059139
0.00591028
0.000455977
0.00582299
0.00574011
0.00582592
0.0058869
0.00375589
0.00589854
0.00573161
0.00585815
0.00582448
0.00583951
0.00585292
0.0055738
0.00584922
0.00352755
0.00602642
0.0126064
0.00250085
0.0120679
0.00587969
0.00146989
0.00587629
0.00362077
0.00582975
0.00582336
0.00423784
0.00376461
0.00591273
0.00230315
0.00374908
0.00569056
0.00463252
0.00573339
0.000704504
0.0201026
0.00589143
0.00582543
0.00590868
0.00362977
0.00581592
0.00581771
0.00591472
0.00845515
0.0131283
0.00171759
0.00589458
0.00591025
0.000583507
0.00499439
0.0188749
0.00610735
0.00273414
0.00622814
0.000837664
0.00602894
0.00468471
0.000530593
0.00584333
0.0058929
0.00579339
0.0145875
0.0135403
0.00579529
0.00582127
0.00576477
0.00607122
0.00251147
0.00516954
0.00549331
0.00356538
0.00595576
0.00500461
0.00497266
0.00580078
0.0053151
0.00212359
0.00578779
0.00574799
0.00571766
0.000995325
0.00548252
0.00569634
0.00587342
0.00583529
0.00587901
0.00604673
0.00360996
0.00227361
0.00583105
0.0033494
0.00590064
0.00590363
0.0059056
0.00582463
0.00582784
0.00242823
0.00406461
0.00405714
0.00583277
0.00279999
0.00579362
0.00582439
0.00582847
0.00585943
0.00580396
0.00589902
0.00372302
0.00582017
0.00714234
0.0168184
0.0025479
0.00427263
0.00582855
0.00455644
0.0121823
0.00591366
0.00108917
0.00666037
0.0128206
0.00581709
0.0105637
0.00398093
0.0058207
0.00481566
0.00586121
0.00118101
0.00582376
0.00582209
0.00582183
0.00271122
0.00591228
0.00588214
0.00347939
0.00546137
0.00582199
0.00586477
0.0123
0.00583304
0.00513937
0.00577064
0.00472403
0.00246106
0.00490254
0.00141772
0.00590622
0.00585144
0.00588111
0.00590932
0.00518074
0.00276365
0.00572749
0.0058217
0.00350951
0.00585382
0.00590137
0.005808
0.0135218
0.00605744
0.00171236
0.0055509
0.00588594
0.0011635
0.00363001
0.0025043
0.00209333
0.00186169
0.00427914
0.0120992
0.0057751
0.0101786
0.00586281
0.00377897
0.00147323
0.00556736
0.00589942
0.00590494
0.00055699
0.0197723
0.00193553
0.00578515
0.00587919
0.000502456
0.00582255
0.00157701
0.00579277
0.0047887
0.00184391
0.005863
0.00583499
0.00293351
0.00517956
0.0118429
0.00574976
0.00536248
0.00620897
0.00132146
0.00585238
0.00546462
0.00366823
0.00578097
0.00245197
0.00438964
0.00582548
0.0120101
0.0058167
0.00568009
0.00587378
0.000472757
0.00585543
0.00310611
0.00589225
0.00589367
0.00239435
0.00456615
0.00489761
0.00571022
0.00291806
0.00113345
0.00582921
0.00582821
0.00582357
0.00595147
0.00124128
0.00591337
0.00589811
0.00244852
0.00588783
0.00392164
0.00335937
0.00330176
0.00581171
0.00641379
0.00474932
0.000651302
0.00547296
0.00585782
0.00582284
0.00581494
0.00295105
0.00138757
0.00127705
0.00589014
0.00561689
0.00581108
0.00143415
0.00487042
0.00317917
0.00590619
0.00278719
0.0137546
0.00583525
0.0057791
0.00242567
0.00588429
0.00575384
0.00180825
0.00579832
0.000443025
0.00350942
0.00589888
0.0058204
0.00581404
0.00582644
0.00583676
0.00688563
0.00590122
0.00581307
0.00557949
0.00589833
0.0059089
0.0058278
0.00205061
0.00582998
0.00581447
0.0118407
0.00128502
0.00528244
0.00581451
0.00581623
0.0059451
0.00900437
0.00584034
0.00587358
0.00200996
0.00164581
0.00598612
0.00582917
0.00582814
0.00578205
0.00395974
0.00590706
0.00581962
0.0016678
0.00591505
0.00589489
0.00122683
0.00591804
0.00580247
0.00519108
0.00582219
0.00481324
0.00374557
0.00589416
0.00587507
0.00560204
0.00590661
0.00257765
0.00585188
0.00584627
0.00581598
0.00590452
0.00376833
0.00581849
0.00582165
0.0168351
0.00317778
0.00492889
0.00579257
0.00341668
0.00579803
0.00558455
0.00582156
0.00546171
0.00581922
0.00463124
0.00488754
0.00530193
0.00553808
0.00379431
0.00591099
0.00295796
0.00549149
0.00127515
0.00590251
0.00553055
0.00187917
0.00504947
0.00293474
0.00581978
0.00581517
0.00585544
0.00501995
0.00330682
0.00575176
0.0129556
0.00584316
0.0058412
0.00829878
0.00583097
0.00137285
0.0052134
0.00445841
0.0138546
0.000567197
0.00470339
0.00579235
0.00227646
0.00488405
0.000355433
0.00426537
0.00240772
0.000530897
0.00591071
0.00581945
0.00586935
0.00582753
0.0127168
0.00367121
0.00492982
0.00103223
0.00578829
0.00582651
0.00334231
0.000703567
0.0058304
0.00551851
0.00582054
0.00584539
0.00506218
0.00229629
0.000677833
0.00586019
0.00253867
0.00587479
0.00585729
0.0026125
0.00569265
0.00551657
0.000512498
0.00582035
0.00167432
0.00580909
0.00586012
0.0058421
0.00471838
0.00469307
0.00501082
0.00490776
0.00599727
0.00579369
0.00589463
0.00582677
0.00590654
0.00613221
0.0053317
0.00145026
0.00120277
0.00386986
0.003043
0.00484689
0.00321227
0.00141587
0.00531279
0.00592331
0.00518708
0.00423679
0.000718145
0.00558728
0.0110503
0.00671838
0.00582569
0.0023577
0.00586817
0.00175466
0.00590259
0.00582847
0.002909
0.00495846
0.00587856
0.00589389
0.00296715
0.00167519
0.00125215
0.00522508
0.00178656
0.0143671
0.00569774
0.00582437
0.00482102
0.00326882
0.00701886
0.0147744
0.00581854
0.00527115
0.00501664
0.00669538
0.00583297
0.00580402
0.000328101
0.00579177
0.00319228
0.00444186
0.00306266
0.000588613
0.0031344
0.0149643
0.000702415
0.00584541
0.00585462
0.00583418
0.00540616
0.00418508
0.00404833
0.00436885
0.00536604
0.00403969
0.00589059
0.00590731
0.0058874
0.00455211
0.00277523
0.00568357
0.00369113
0.00601288
0.00347014
0.00590378
0.00590612
0.00359527
0.0082675
0.00591258
0.00123062
0.00557746
0.0057928
0.00590222
0.00577547
0.00221821
0.00294619
0.00583124
0.00587993
0.00187834
0.0181275
0.000888999
0.00581843
0.00590578
0.00346855
0.00580219
0.00436963
0.00315974
0.00508356
0.00564295
0.0135229
0.00580014
0.00321698
0.0035302
0.00374553
0.00583796
0.00581901
0.00459107
0.00184466
0.00590354
0.00589239
0.00583254
0.00660756
0.00377965
0.00578325
0.00585695
0.00392843
0.00497692
0.00550406
0.0059037
0.00587149
0.000857346
0.0058012
0.00606831
0.00246309
0.00569157
0.00677155
0.00652521
0.00436512
0.00503284
0.000750647
0.000610691
0.00214046
0.00365589
0.00584878
0.00440324
0.00582583
0.0126859
0.00581459
0.000481393
0.00582669
0.00532589
0.00283139
0.00237604
0.00582749
0.00375485
0.0165062
0.00156065
0.00589797
0.00211935
0.00464928
0.00434557
0.00387533
0.00427222
0.00586029
0.00582684
0.00381679
0.00162992
0.00321229
0.00513804
0.00576887
0.0112997
0.00388455
0.00574164
0.00574995
0.00581922
0.00504375
0.00590991
0.00580932
0.00589049
0.000489615
0.00148956
0.00585389
0.000629975
0.00417258
0.00582154
0.00588558
0.0057459
0.0059065
0.00126541
0.00581911
0.00129075
0.00522603
0.00582251
0.00485257
0.00458228
0.00353914
0.00585339
0.00582642
0.00133326
0.0058013
0.00580791
0.00235708
0.00299248
0.00632785
0.000775835
0.00591235
0.00286648
0.00572267
0.00117905
0.00588999
0.00582983
0.00337196
0.00440282
0.00590784
0.0029917
0.000755397
0.00471491
0.0134514
0.00470612
0.000386646
0.00571314
0.00573981
0.0058695
0.00582997
0.00644442
0.00440397
0.00150625
0.00954891
0.0062194
0.00130485
0.00181067
0.00591464
0.00588615
0.00587961
0.00405302
0.00584402
0.00590333
0.0018924
0.00455833
0.00591354
0.00588202
0.00283497
0.00122932
0.00489207
0.00584683
0.00584218
0.000657054
0.00222479
0.00558219
0.00578006
0.00584537
0.00336953
0.0049792
0.00334398
0.00580049
0.00581947
0.00548358
0.0057932
0.00413747
0.0020716
0.0112328
0.00588605
0.00580101
0.00397132
0.00591436
0.00584637
0.00591355
0.00472985
0.0106919
0.0164321
0.00590871
0.00564133
0.0037922
0.000401952
0.00588418
0.00199657
0.00582665
0.00645329
0.00442255
0.0165191
0.00586949
0.00583094
0.00582899
0.00589426
0.00404598
0.00340825
0.00588136
0.00582476
0.00524012
0.00189715
0.00582023
0.00582629
0.00816092
0.00383236
0.0057839
0.00581131
0.00458742
0.00193293
0.00590663
0.0142436
0.00549814
0.00591265
0.00612042
0.00587839
0.0058735
0.00585816
0.00581111
0.0058818
0.00585513
0.00547462
0.00582658
0.00580951
0.00591354
0.0136934
0.00245162
0.00289322
0.00591025
0.00118932
0.00589559
0.00545718
0.00590995
0.00586425
0.00381765
0.00268299
0.00584804
0.00502558
0.00617708
0.00429092
0.00587592
0.00180798
0.00324925
0.00390147
0.000374312
0.00579314
0.00349651
0.00446937
0.00146016
0.00358152
0.00400624
0.00576422
0.00591189
0.000707911
0.00589999
0.00590913
0.00582936
0.00517595
0.00582704
0.00582095
0.00306564
0.00387244
0.00402819
0.00588633
0.00263166
0.00605109
0.00583268
0.00589353
0.00581628
0.00590793
0.00589644
0.00590805
0.0026361
0.00398525
0.00580126
0.00494979
0.00276875
0.00582234
0.00590997
0.00134912
0.000716127
0.00583227
0.00582488
0.00489278
0.00584774
0.00585068
0.00245536
0.0059929
0.00582284
0.00582156
0.00587569
0.0196397
0.00314224
0.00591324
0.00585996
0.00583917
0.00586936
0.00794659
0.00587373
0.00583137
0.00596033
0.00454627
0.00211627
0.00591119
0.00391493
0.000528535
0.00587797
0.00122875
0.00544881
0.00591376
0.00582278
0.00581081
0.00584146
0.005878
0.000870667
0.00585731
0.0024877
0.00154769
0.00417584
0.00556953
0.00582285
0.00490682
0.00560979
0.00219932
0.00546687
0.0058111
0.00575
0.00119966
0.00589057
0.00580658
0.0019833
0.00037154
0.00288148
0.00569947
0.00590828
0.00465112
0.00552419
0.00334402
0.00584031
0.00586498
0.00580341
0.000264229
0.0162084
0.00582881
0.00383497
0.00176967
0.000519578
0.00479973
0.00605056
0.00218228
0.00588029
0.00579672
0.00482869
0.00572837
0.000784141
0.00580003
0.0050622
0.00584824
0.00140802
0.00620299
0.00269063
0.00424573
0.0075424
0.00116774
0.00341404
0.00587679
0.0047603
0.00586089
0.00463257
0.00582279
0.0119851
0.00542545
0.0131801
0.00328672
0.00868359
0.00750079
0.00528245
0.00584495
0.00473382
0.00271639
0.0058224
0.00341
0.005714
0.00583421
0.00549797
0.00541276
0.00582412
0.00890811
0.00580689
0.00582811
0.00462495
0.00424313
0.00414762
0.0058157
0.00578264
0.000452763
0.00417387
0.0025132
0.000366846
0.00248073
0.00337011
0.00119288
0.00434593
0.00443832
0.000563021
0.000461815
0.00127211
0.00208582
0.000512461
0.00582828
0.00287505
0.00385457
0.00537922
0.00401323
0.00589225
0.005697
0.00349478
0.00492159
0.00375227
0.00427624
0.0049029
0.00595485
0.00603453
0.00480481
0.00620232
0.0030577
0.00521028
0.00583311
0.00579907
0.00584048
0.00322726
0.00477839
0.00422431
0.00582102
0.00581827
0.00475308
0.00588223
0.00685451
0.00473457
0.00579804
0.00620924
0.00623453
0.00581408
0.00290486
0.00583813
0.0147396
0.0017575
0.00262409
0.00582182
0.00584726
0.00463773
0.00584536
0.00333199
0.00446453
0.00236096
0.00579605
0.00468483
0.000542806
0.00161014
0.00174525
0.0066807
0.00586401
0.00422187
0.00413129
0.00583848
0.00954716
0.00514434
0.00392792
0.00586266
0.003603
0.00603922
0.00589291
0.00590766
0.00579909
0.00420573
0.00227204
0.00345509
0.00317548
0.00213246
0.00661416
0.00588254
0.000963979
0.00550583
0.00319273
0.0042372
0.0059071
0.00590599
0.0120354
0.0058053
0.0015981
0.00588635
0.00586119
0.00387947
0.00297832
0.00304638
0.0026271
0.00442003
0.00579531
0.00299632
0.00398521
0.000165799
0.00307261
0.00403596
0.00247074
0.0058716
0.000639088
0.0053364
0.00591068
0.000501849
0.00581276
0.00575752
0.00140624
0.00625883
0.00438462
0.000486901
0.00980651
0.0114879
0.00279699
0.0159829
0.00120932
0.00478308
0.00581755
0.00445781
0.00586348
0.0034429
0.00455182
0.00784909
0.00582077
0.00582415
0.0073456
0.00203963
0.00579017
0.00582456
0.00603617
0.0035631
0.005871
0.00591127
0.00190969
0.00581185
0.000815679
0.00420417
0.00531246
0.00184103
0.00463317
0.00255047
0.00128268
0.00480999
0.0020153
0.000607958
0.00587026
0.00260878
0.00359501
0.00591222
0.00590187
0.00543037
0.00429456
0.00582302
0.00591157
0.00579477
0.00539838
0.000471772
0.00589779
0.0058547
0.00119394
0.00587758
0.00396451
0.00793235
0.0021855
0.00766642
0.00603099
0.00582144
0.00480295
0.00586317
0.00198442
0.00587293
0.00224941
0.00210824
0.00455291
0.00132818
0.0028142
0.00581933
0.00619032
0.00122179
0.0024484
0.000894309
0.00209642
0.00231012
0.000755481
0.00581413
0.00284754
0.00104123
0.00480697
0.000465365
0.00446572
0.00554022
0.00157653
0.0010099
0.00338495
0.00590796
0.000934718
0.00703892
0.00260723
0.00583352
0.0181895
0.00588214
0.00502194
0.00581843
0.00462083
0.0059733
0.000489758
0.00550687
0.005865
0.00682738
0.00426397
0.00103371
0.0047325
0.00589117
0.00586231
0.00353324
0.00588087
0.00584186
0.00568881
0.00408958
0.00271106
0.0058001
0.00588152
0.00450144
0.00585746
0.00174885
0.00582124
0.00590354
0.00338864
0.00218836
0.00507313
0.00587781
0.0037154
0.00586837
0.00318334
0.00587667
0.00661843
0.00148938
0.00588389
0.0128755
0.00584855
0.000427216
0.00119295
0.00590574
0.00582191
0.00667023
0.00560448
0.00260013
0.000881666
0.0054599
0.0143568
0.00579862
0.00574021
0.00173156
0.00586379
0.00150659
0.00579262
0.000462135
0.00168005
0.00386715
0.00590654
0.00508628
0.00353789
0.00582224
0.00589274
0.00188708
0.00592204
0.00588757
0.00538548
0.0047696
0.00471327
0.0054098
0.0051245
0.00692783
0.00560619
0.00415304
0.00475446
0.00588535
0.00341137
0.00123818
0.00589951
0.00124093