/*--------------------------------*- C++ -*----------------------------------*\
| =========                 |                                                 |
| \\      /  F ield         | OpenFOAM: The Open Source CFD Toolbox           |
|  \\    /   O peration     | Version:  v2012                                 |
|   \\  /    A nd           | Website:  www.openfoam.com                      |
|    \\/     M anipulation  |                                                 |
\*---------------------------------------------------------------------------*/
FoamFile
{
    version     2.0;
    format      ascii;
    class       volScalarField;
    location    "100";
    object      omega;
}
// * * * * * * * * * * * * * * * * * * * * * * * * * * * * * * * * * * * * * //

dimensions      [0 0 -1 0 0 0 0];


internalField   nonuniform List<scalar> 
15335
(
2.86097
0.175236
0.172959
0.0242175
0.0276125
0.0245647
0.0703869
0.0257562
0.0227674
0.0245815
0.0252994
0.0243753
0.0637199
0.0470494
0.0344268
0.0221482
0.153961
0.139344
0.0241589
0.0297431
0.0227789
4.80764
0.0317091
0.0227867
0.14891
3.03202
0.0869982
0.0233717
0.0365565
0.104083
0.0230877
0.0787471
0.025656
0.0283809
0.0735074
0.0938079
0.0245719
0.028953
0.0462383
0.139885
0.0233725
2.15881
0.0227079
0.0478455
0.329389
0.0233248
0.0304315
0.0248072
0.0405315
0.0247071
0.0227994
0.0230807
0.0248883
0.0276924
8.95118
0.314078
0.118982
0.0300218
0.0298859
18.8908
0.166628
0.0223887
0.0248915
0.0255131
0.0274878
2.66757
0.343037
0.0244297
0.0360439
0.0225924
0.0271545
0.0315198
0.0248165
0.357874
0.0253571
1.59137
0.165219
0.0263318
0.0238063
0.0889357
2.9907
0.0345724
0.0354733
0.077193
0.0318649
10.4347
0.0255663
0.0847568
0.0245588
0.026892
5.3982
0.0757724
0.362507
1.87628
0.0293636
0.0771123
0.0226725
2.67595
0.0230771
2.69334
0.022686
0.0265454
0.145783
0.0221573
0.0241385
0.0226595
15.0995
0.0248759
0.0266863
0.0522572
0.0278495
0.0425008
0.053065
0.026094
0.0254595
0.0232921
0.0541074
0.0242377
2.08454
6.5265
0.0263776
0.0730796
2.3733
0.0241592
0.0724691
0.0233284
0.0242752
4.8782
0.0753892
0.0264664
0.0233272
0.0732573
0.0244635
2.84562
0.0230819
0.360845
0.0246304
0.0226063
0.0500324
0.0277186
0.0252175
2.16682
0.0240782
3.01786
2.53194
0.0255525
1.81557
0.0292579
0.0248537
0.0552275
0.0237588
3.54351
0.0221448
0.0285348
2.27837
0.0244713
0.0791486
0.0247913
0.0231745
0.0314481
0.023948
0.027536
0.0248123
0.0437319
0.0288808
0.0241809
0.0231641
3.86793
0.0229956
0.0242993
0.026363
0.0242903
0.0253006
0.0245012
0.0292559
0.0281178
3.00708
0.0230098
0.0759213
2.65713
0.0252483
0.137818
0.0253691
0.0279759
0.0279576
0.123589
0.0790688
0.129163
0.0248636
12.5973
0.0240965
2.65433
0.0410496
0.0233603
0.0248318
2.20468
0.0252426
0.0223722
0.0582475
0.167074
0.14855
0.0296304
0.0232629
0.0651781
2.68359
0.0284257
0.565951
0.0242373
0.0789814
2.83292
0.156163
0.0293982
0.0233793
0.029264
0.167665
0.0287797
0.0256371
0.0450996
0.0253083
0.279228
0.0285855
0.047753
2.33485
0.0759232
0.0263163
9.38254
0.0651416
0.0250729
0.0670191
0.15112
0.0248586
0.121986
2.5834
0.0320332
0.0249068
0.0260862
0.0240338
1.0957
6.47282
0.0255469
0.0547869
0.0246964
0.0568379
0.0263586
2.84307
0.0290041
0.364636
0.0286781
2.12579
1.92187
0.0283163
0.0228614
0.164881
0.0282107
0.0228638
4.60511
0.025216
0.0257958
2.35738
0.0228505
2.64
1.63246
5.61078
0.168257
2.85798
7.55912
2.275
0.0229556
0.170105
0.0252071
0.0956847
0.0221214
2.97837
0.0231045
0.0257692
2.93815
23.6731
0.0276796
0.0248062
2.71099
0.0233736
0.0243081
0.0255791
0.024829
0.0957674
0.024831
0.0330468
0.0242259
0.164948
0.0288431
0.157395
0.0266595
0.0231461
0.0243196
4.87
0.0290948
0.0261948
0.0231761
0.0251593
0.0256087
0.253411
0.0532728
0.845433
0.125355
1.96983
0.0233852
0.0233842
0.278083
5.76439
0.0658296
23.1049
0.0264622
0.0413244
2.97429
0.0233111
0.0282968
0.0229898
0.0229912
0.0252196
0.0257737
0.0246281
0.0249372
1.11143
2.3153
0.0292216
3.13581
0.127297
0.0230005
0.0229991
0.0230045
0.0233337
1.1022
1.07064
0.0296667
0.0456428
0.0226459
0.0249402
0.0280227
0.0508055
2.13587
0.0336917
0.0500569
0.0842052
0.0338532
0.0279472
2.49061
0.0557463
2.11996
0.026519
0.0267179
0.0621657
0.0230071
0.024665
2.96232
0.233226
0.0266296
0.0262441
0.0230021
0.0244872
0.748711
0.0245239
0.023331
0.0293168
0.024528
0.363616
0.0267148
0.0256485
0.0252977
0.0408774
0.0243999
0.0255913
0.0237134
0.0313949
0.0244653
0.023032
0.0233101
0.0223448
0.0221195
0.0245852
0.0624752
2.15662
0.075285
0.021731
0.0589073
11.6751
0.0356578
0.0233817
2.5301
0.0239601
0.024331
0.0253412
0.0403883
0.0230918
0.0266838
1.15847
0.0263052
0.024733
0.022159
0.0242553
2.5109
0.0346987
0.356125
0.0650676
0.02287
0.0243388
0.0540919
0.0228891
0.0250962
0.112634
0.0247181
0.0228595
0.0246393
0.0250436
0.0261437
0.0531385
0.0232793
0.0243905
0.0288923
0.0243981
0.0247357
0.0555553
0.023853
0.173449
0.0245785
0.0304018
0.149216
0.0241573
0.0243689
0.0233159
0.175625
2.63528
0.030679
0.0263442
0.360198
0.0222431
0.022883
2.93187
0.0555781
0.0238466
0.0362009
0.0226966
0.0245809
0.0237918
3.41731
0.0266658
2.33751
0.0372161
0.0246385
0.028837
0.364275
0.0279009
2.93775
0.024119
18.7001
0.0239618
0.0247159
0.0362967
2.58972
0.0265278
0.0248524
0.0247822
0.030511
0.0287048
0.0264703
0.0635623
0.286128
0.0278763
0.160474
0.0266509
0.0260039
0.0239619
2.92445
0.026617
1.4295
0.024427
0.0237524
0.0243122
0.0263364
5.88179
0.0246953
0.0256936
0.0249436
0.0250585
0.0240973
0.0244054
2.15901
0.0259195
0.0245932
0.0232516
0.0246604
0.270207
0.255034
0.0242754
0.0226071
2.90758
3.06543
5.05755
0.0340878
0.0360844
0.0757164
0.0286594
4.14136
0.0244279
0.0535821
0.0226191
0.0281244
0.0334817
0.0669744
0.0238839
0.0250175
0.0259968
0.0281138
1.56514
0.0888765
0.274974
0.022721
0.0246536
0.0234573
0.0834514
2.42165
15.56
20.5293
0.0265133
0.0230215
0.521031
0.0240056
1.85085
0.0257493
0.023134
0.0243952
0.0255462
0.0575519
3.0702
0.0239578
0.0748528
0.0355567
3.22723
0.0313459
0.0228174
0.0262557
0.0414596
0.0580661
0.0243559
6.02313
0.0245591
2.28339
2.8116
0.0251538
0.0594044
0.03795
0.0443071
0.024227
0.0226285
0.0230636
5.98735
5.12837
0.023891
0.026185
0.0246764
3.69254
0.0369585
0.0244431
0.0348492
0.0244069
0.149933
0.0259199
0.0344024
0.0297722
2.95725
3.29993
2.52335
0.0242371
0.0231195
0.0552733
0.0248781
0.0231103
0.0242484
0.0250248
0.024542
2.54074
2.22549
6.54837
0.045091
0.0280576
0.0362749
3.9091
4.38746
2.64138
0.0310062
0.0231613
0.0233369
0.0265889
0.478768
0.0255797
0.0238821
3.62261
0.0296993
5.86729
0.0237369
0.163911
0.0284627
0.0339085
7.52378
2.44101
0.0292238
0.0233468
0.0472297
0.024722
2.23618
0.0447297
2.41467
0.297111
0.568878
0.0233535
0.0252888
0.0601911
0.0532764
3.65404
0.0259175
0.0229445
0.023961
0.0246265
0.0244267
0.0265039
0.073186
0.0233042
0.0228477
0.0221249
0.0248104
0.0321372
0.0252042
0.092298
0.0233402
0.0284223
0.0479028
2.64001
0.160787
0.0245284
0.0231668
0.0333842
0.0580973
0.0242827
0.0244455
0.215356
0.0246491
0.0625364
0.0461068
0.0227547
0.0259237
6.15005
1.80089
0.0246174
0.0231894
0.0237084
2.97147
0.0238345
0.464098
0.0246389
0.0264579
0.0248794
0.0238955
0.03542
0.0813012
0.730875
0.0231428
2.10336
0.0252567
0.0248389
0.184313
0.0240711
0.0253201
0.0266687
0.0291806
0.0238797
0.0522783
0.023822
0.0245417
0.0242504
0.0273974
0.0316295
0.0237653
0.31371
0.0263322
0.0228405
3.12601
3.53403
0.0625151
0.0237236
0.0267375
0.024262
0.0471056
0.0516397
0.0241178
0.0295404
0.0241655
6.18855
0.261273
0.024709
0.0257064
15.51
0.0246333
2.87865
0.303707
0.0250905
0.0226986
17.4498
0.0275521
0.0359722
0.0334935
0.551549
0.0240539
0.0251359
0.191562
0.0240993
0.0255933
3.07704
0.081884
0.178963
0.0284049
0.0243155
0.0228445
0.0239277
0.0246612
0.0247199
0.034403
0.0329552
0.334346
3.68254
0.035841
1.79473
3.0348
0.0771483
0.0242036
0.0232623
0.023317
0.0253138
0.0228177
0.0257048
0.0242495
0.0247412
0.0250254
0.0228653
5.69361
3.12306
0.0242492
0.0793715
0.0246017
2.62686
0.0305796
0.0760903
0.0240859
0.0400891
0.0251464
0.0323905
0.0251071
0.0223621
5.95805
0.0231538
0.0442256
1.79107
0.0267684
2.96818
0.0239363
0.421862
0.0228284
6.87628
0.0246032
0.0228564
0.0297086
0.0867162
0.041894
0.0243423
0.0292842
0.0580652
0.0278057
0.0282038
0.0325824
0.146209
0.0229955
0.438177
0.131446
0.0244945
0.0232219
0.0249484
3.11471
0.0282562
0.023841
0.098678
0.0641598
0.0292978
1.35544
0.333969
0.0243306
0.0457688
0.0248377
2.64267
0.0274582
0.0244106
0.143384
0.0277364
0.0989238
0.0326581
0.024285
0.0273608
0.0877575
0.0248977
0.0318647
0.0254104
0.0246876
0.329541
0.0351472
0.0268188
0.0548699
0.0303113
0.0248058
0.153645
0.0233032
0.0250255
0.0246408
0.0599949
0.0249058
0.0286169
0.0245496
0.0642129
0.0244369
0.0250769
0.0232898
0.0472107
2.43107
0.0267036
0.179184
0.0598276
0.0217835
0.0230441
1.25056
0.0231052
0.0230394
0.0233246
0.0228565
0.0257452
0.0611923
0.0240688
0.0369691
0.0230411
0.0244137
0.024029
0.0221332
2.87763
0.0260057
0.0233644
0.0241303
0.0243953
0.022925
0.0294252
0.0266469
0.0243459
0.024855
1.80496
0.0242207
5.94245
0.0233634
0.0241596
0.338243
0.0229138
0.318727
0.399909
2.17
2.82722
0.0244703
0.0505911
0.0740504
0.0466091
0.0261294
0.0241569
0.132611
0.0255665
0.0252997
0.0259774
0.02372
0.221949
0.0261278
0.10235
0.027098
0.0225814
0.0247826
0.0244847
0.0282943
0.0241293
0.0995997
0.331996
0.0248162
0.0477152
0.0245665
0.0225551
0.0222314
0.02729
3.61302
0.0232822
2.53564
2.10765
0.0240175
0.739059
0.0244576
0.0244287
0.0648348
0.025378
0.0427722
0.023994
5.6989
0.0241141
0.0373458
0.022566
1.1609
0.0254836
0.0254443
0.0237976
0.0466722
0.0233851
0.0634833
0.0237976
0.0239139
0.0232752
0.0280846
0.43362
5.34067
0.0239945
2.47287
5.97257
0.0361066
0.383649
0.36494
2.94356
0.0626787
1.21462
0.283697
0.0230052
0.0232622
0.035028
0.0244114
0.0241846
0.0545784
0.0463504
2.72334
0.0240301
2.41395
0.0245869
0.0792525
2.71745
0.0338987
0.023206
0.145581
0.0267119
0.0249978
3.07322
0.0266962
0.0250748
0.0240081
2.4826
0.0225661
1.984
0.0244981
0.0547647
0.038542
0.0423119
3.51555
0.0258203
3.00326
0.0457269
0.0225765
0.14544
0.0250187
0.0459762
0.0225596
0.0290836
0.596815
2.56501
0.0225548
0.182771
5.70098
0.0225706
1.30513
0.0278559
0.0270321
2.88584
3.16117
0.0231846
0.357119
0.103602
0.161377
0.0291234
0.0246861
0.0289116
0.0236923
0.898783
0.0231973
0.0269468
0.0225659
0.0258234
0.0268372
0.027613
0.334422
0.530397
0.0247853
0.0528527
0.0247609
2.20698
0.0254468
0.0252918
0.0962127
0.0243398
0.0236177
0.0249041
0.0221744
0.0244057
0.0280772
0.0249368
0.0229791
0.025136
0.0243711
4.28571
0.0242366
0.0241466
0.0242493
0.0252939
3.38902
0.0228367
0.0240156
0.160766
1.03061
0.0228299
0.150772
0.0248676
0.230869
0.0497923
5.55563
0.0278272
0.0246603
1.54217
0.0242924
0.111024
0.0244113
0.0501343
0.0239304
0.0581312
0.0513582
0.0242652
0.864317
0.188696
6.04458
0.0664215
0.0250756
0.0253534
0.0228284
0.0291961
0.0248826
0.514199
2.18355
0.0223252
0.0253967
0.0252992
0.0240547
0.0244864
0.0281584
0.0232477
0.0605568
1.52753
0.02429
0.0237754
0.0269309
0.0221761
0.0251945
0.0232352
3.15101
0.0260631
1.00258
5.52592
0.0745043
0.0251355
0.0246891
1.76845
0.02623
0.0248835
2.17891
7.38143
0.0253779
0.0293741
0.024249
0.0257256
0.0592002
0.0404457
0.0237671
1.8079
2.82184
0.0457194
0.0241101
2.10104
6.89786
0.0275489
0.0268025
0.0244786
0.0244039
0.0225713
0.024411
0.0241696
0.181121
0.0249208
0.0246534
0.0283429
0.0240267
2.3807
0.0241418
0.0236254
0.0225826
0.0251298
0.0320126
0.0491111
0.0242132
0.0247723
0.103639
0.0228347
0.0247734
0.0239236
0.0258096
0.794885
0.773052
0.0237945
0.0245564
4.80456
0.0490997
0.0233813
0.0221879
0.0225733
0.02414
0.0352134
0.0242602
0.0236446
0.0237969
0.0249932
0.779848
0.0538371
0.0242833
0.0435372
0.63963
0.0269122
0.122244
0.0529585
1.75615
0.134489
0.173592
0.0255794
2.824
0.244294
0.0785964
2.69898
0.177658
0.0257415
0.170497
0.025995
2.8097
3.00653
2.01134
2.40854
0.0225529
1.13099
0.0248025
0.0226423
0.04127
5.40316
0.0281153
0.039705
0.0245064
0.0226158
0.0261484
0.0247548
0.0261963
0.0226698
0.341654
0.0457799
0.0341032
0.17079
0.023221
0.0355343
0.0238647
0.035943
0.0248141
0.0242247
0.022666
0.0248885
0.0249933
0.0246393
0.0240415
0.0225662
0.0626124
0.0240732
0.0539498
1.78845
1.30216
0.195053
0.13503
0.0232081
2.99527
0.0230245
0.761998
0.0231408
0.0225652
0.0244205
0.232875
0.0244511
0.0248285
2.61985
0.138277
3.04426
3.03009
0.182252
0.453012
0.0244794
0.0249096
0.408033
1.50292
0.0243249
0.0244438
0.0235599
0.247551
0.0248769
2.53129
17.0539
3.13653
2.90623
0.030431
0.0293016
18.2284
1.94441
0.670199
0.0244344
8.00849
0.0244571
0.317729
0.0225745
0.0243577
0.0244191
0.0228037
2.98682
0.0236191
0.050748
0.0721892
1.32268
0.0244164
0.0293073
0.0346634
2.38001
2.51694
0.0323259
0.0898204
2.12563
0.0225839
0.0225985
0.030401
0.0271165
0.0748131
0.0816028
0.0247867
0.0469825
1.10322
0.023117
0.0235709
1.05308
5.42758
0.0323792
0.0240533
0.0266314
2.24861
0.0247482
0.0482176
0.0228043
0.0508772
0.0259456
3.28947
2.15934
0.0246375
0.0278288
0.0243643
0.121832
0.0264418
0.0358027
0.0252144
0.0241374
2.99596
0.041981
0.0455882
0.0254003
0.0258709
0.0270281
1.17299
0.0669031
0.043302
0.295999
1.61543
0.376703
0.0261992
0.113118
6.52454
0.0226018
0.0549358
0.0449261
2.46627
0.0231546
0.0236354
1.06035
0.0796506
0.0240953
0.0341687
0.0244921
0.0480191
0.462781
0.0226368
2.25188
0.664635
0.0239865
0.0247097
0.0236487
0.0229734
0.0231809
0.0265962
5.43049
0.023194
0.0251366
0.0715102
1.66937
0.0221637
0.281236
0.0232498
0.0229732
0.0238737
0.0240176
0.0241647
0.0274248
0.0253496
5.13667
4.6962
0.048676
3.14394
0.385429
0.0293392
0.0241104
0.288035
0.022685
0.0232724
0.0283706
1.92989
0.324563
2.45075
0.800325
3.04946
0.0240705
6.67866
0.0335867
0.832216
2.99787
0.0242346
0.0464751
0.0287632
0.0236955
0.0248922
0.0282815
2.95277
0.0241544
0.0326344
0.022858
3.16146
0.0240676
2.80326
0.0242489
0.327159
2.759
0.0568909
0.0254231
0.0267673
0.0284881
0.120085
0.111711
0.0232424
0.0242605
0.329749
0.0456635
0.0771039
0.075237
2.28793
0.0263579
0.0279233
0.0246578
0.0245421
0.0334957
0.0244736
0.0236676
0.0208654
0.0246673
0.0240904
0.0258269
0.912659
0.0247884
0.0240911
1.29111
0.174653
0.0249018
0.0569278
0.59174
0.0255519
0.0254893
2.84839
0.0253867
1.54102
0.634733
0.0243166
0.0280814
3.13052
0.0242077
0.0273798
0.0967341
0.0683904
0.0240018
2.11672
6.92095
0.02673
0.0260075
0.0607384
0.134589
0.0221174
0.0240114
0.0244115
0.0263109
2.94693
1.42469
1.4942
2.2837
2.86657
0.0275013
0.0271463
0.300786
0.0222245
0.0324096
0.0447012
0.0298214
0.0228714
0.0450775
0.0216875
0.0245607
1.661
1.76196
0.048347
1.21868
0.025314
0.0261706
0.156109
1.80894
0.337885
2.44606
0.0253787
0.142208
2.25981
0.0413183
0.0267707
0.209314
0.0298853
0.135993
0.0242956
0.0416747
0.0293094
0.0560944
0.0246348
0.337074
0.0268907
0.0239772
0.0247574
0.997988
0.7741
0.0280205
0.0424396
0.79261
2.90619
0.0226331
0.0280951
0.03224
0.107302
0.0247849
0.0233101
0.0249111
0.0252074
1.618
0.0267025
0.157794
0.0241366
0.0248432
2.04713
0.024442
0.0246554
0.0419991
0.0275556
0.0246349
0.0244425
0.0256958
0.0421668
0.338287
0.029544
0.043865
0.0250866
0.0245011
0.0247375
0.0244983
0.382543
0.0259854
2.88112
0.0259646
0.0242176
0.0453268
0.0247081
0.0266815
0.025673
0.0243918
0.0246123
0.0246565
2.74053
0.0242452
0.0342988
0.0244037
2.96363
1.64895
2.40561
0.0247549
2.32162
0.02459
0.0350567
0.0244973
0.0242614
1.75231
0.0415981
0.024704
0.0520477
3.62374
0.0268689
2.41798
0.0265475
1.05605
0.632395
0.0246649
0.0244556
0.0246654
0.0470833
0.0237918
0.023631
0.0242174
1.19677
0.333617
0.104747
0.0253106
0.0243853
0.746858
2.75321
1.42138
0.83709
0.884369
0.0255648
1.43212
0.0257693
0.0350144
0.800113
0.0230729
0.0246746
0.026588
0.612312
0.334411
2.94756
0.0240235
0.0262716
0.0248119
0.0774558
2.74388
0.0284315
0.0482574
0.0262518
0.0320437
0.0288915
0.023168
2.85577
2.5615
0.0264021
0.0265625
0.0267901
0.14364
2.62537
0.0269589
0.0238835
0.024538
0.0239166
0.0242005
2.96885
0.0805749
0.023887
0.0429093
0.0245078
0.0240645
0.0250112
0.0241348
0.0245445
4.49575
0.0413896
0.0408723
0.023901
0.0636111
0.0229449
0.0239614
0.0237051
0.023591
0.0228122
0.0248172
2.89936
0.0236247
0.721082
1.40268
0.0705652
0.0360877
0.0245794
1.82234
1.07718
0.0248115
6.70907
0.0263055
0.330074
0.0238003
0.520309
0.0422085
0.024012
0.149404
0.0256178
0.168559
0.0243593
0.0243496
0.0239092
0.0544462
0.0248763
0.0240684
0.0531562
0.0285903
0.0232322
0.0245203
0.320507
0.0243715
2.49257
0.0263968
0.0445045
0.073397
2.36331
1.31426
0.024926
0.0246362
0.024639
0.0249214
2.57275
3.3976
0.0267442
0.0236528
1.01137
0.0257337
0.0251928
0.0228142
0.33806
0.0247095
0.109109
2.70775
0.0254148
0.167149
1.65132
0.0519993
0.069989
0.0821607
1.76242
0.280154
0.0266588
0.570748
0.0256548
0.0396441
1.15564
0.0278502
0.0246427
0.0249184
1.17209
0.769025
0.627988
0.0264511
0.024273
0.16784
0.0259884
5.80538
0.022933
2.84591
0.101145
0.0239961
0.0239418
1.94949
0.0281893
0.292025
0.0263721
0.0279203
0.0262946
0.14563
0.0244107
0.0285853
2.69318
4.93637
1.74287
2.13332
0.0239768
0.309172
0.0240899
0.02709
0.0254943
0.298485
0.0228784
0.0403424
0.0244555
0.0248007
0.0560634
3.27506
2.48925
0.0266655
0.0623703
6.74511
0.0238596
0.0245411
0.0243325
0.0251413
0.154709
0.0249202
0.0244911
1.9414
0.0246161
2.70564
3.05649
0.0527695
0.0230493
0.0231154
0.0341838
0.177127
0.0284768
0.0235997
0.0236061
0.0230249
0.0467719
6.63353
0.151845
0.0243412
0.326753
0.023927
0.132497
2.38775
0.0549294
0.0246325
0.0456907
0.392357
0.0237947
0.0261384
0.0745256
0.0247435
3.15956
0.103051
0.0232764
0.511941
0.0495735
0.0248012
0.0241527
0.0233944
0.0245459
0.0251904
0.0224444
0.0246163
0.0239855
0.0277673
0.0244438
0.0249948
0.024333
1.57046
0.0259305
0.0232948
0.283409
0.151013
2.63912
0.0232816
0.0240717
0.0249657
0.0203472
0.0230554
0.0246831
0.0778125
0.0919851
0.0252647
0.0243234
0.0244382
0.0263121
0.0428253
0.0250945
0.0232606
0.112234
0.0247725
0.024248
0.154867
3.13699
2.95589
0.0306746
0.0243618
0.0306111
2.81167
0.0238664
0.024673
0.027616
0.0244651
3.48128
0.0254294
0.0245456
0.0232629
0.0242078
0.526184
0.0239969
0.0231509
0.848984
0.0625793
2.61591
0.0229981
3.8616
0.0232643
0.0278112
0.0242489
2.69241
0.0234042
0.0294555
0.029307
0.0298423
0.0280524
0.0446676
0.0248975
3.15434
0.0284587
0.152329
0.02479
0.0281244
2.31138
0.0287676
0.048957
0.0239054
0.0239063
0.0254971
0.0319093
0.0351547
2.95891
2.90203
0.0239953
0.0229835
0.594408
0.0244009
0.139663
2.61981
1.88209
0.291268
0.981604
2.12563
0.0229939
0.944871
0.0330329
0.583416
0.031624
0.0753009
1.05679
0.0249359
0.0231213
0.0238463
0.024391
0.280133
1.73067
0.0326213
0.168454
0.0221481
0.0236774
0.0604761
0.153116
0.0241688
0.0273523
0.0238824
0.0243288
0.0315639
3.95268
8.91414
0.02427
0.0706987
0.0238772
0.0246155
0.0491749
0.0269691
0.0282262
1.16128
0.0224139
1.57565
0.0237776
0.0233242
0.0258369
0.0254041
2.7814
2.45281
0.0328124
0.0250048
0.0227469
0.025211
0.0226143
0.0249502
0.0271691
0.0294373
0.131694
0.162476
0.0440698
0.0448513
0.0333486
2.04194
0.122956
0.0296822
0.0248797
0.0300969
0.0395422
1.01622
0.0277129
0.342306
0.0232864
0.0259623
0.0771439
0.0240211
0.106901
0.0246658
0.0227485
0.0392837
2.37154
0.0246869
0.025246
3.54446
0.0899011
0.15615
0.0303101
0.089754
0.295966
0.0267532
0.024342
2.66522
0.0511341
0.0206577
0.302571
0.0222747
2.70205
0.0295473
0.0284905
0.025231
0.02297
0.446076
0.0261062
0.0546279
2.65168
0.0458279
1.56132
0.0565206
1.36558
13.7329
0.0244743
0.0244184
0.0243841
3.07626
2.84848
3.16232
3.01583
2.55226
3.32707
0.0243782
0.0248386
0.0238279
4.01229
5.53612
0.0270763
2.0824
0.0237011
3.67239
0.0246087
0.0251075
2.90982
0.307981
0.0247395
0.158277
0.0278017
0.0262346
0.0251526
0.0263628
0.0598378
1.69757
0.0244113
0.0237826
0.0993133
0.866392
1.17704
0.0242696
0.0251041
0.0496244
0.0234082
0.0374586
1.92754
0.0313408
0.0280758
0.386149
0.0231181
2.90162
0.0305702
0.0458823
0.0246117
0.0260266
1.94538
0.0970463
0.0245041
0.0238887
0.0243917
0.0272631
0.0449622
0.0221006
0.0242529
0.163547
0.0322772
0.0283569
0.0248907
0.0255563
0.16614
0.023132
2.43382
0.0731969
0.0265148
0.0206727
0.345581
0.158502
0.0318024
12.8211
0.845986
0.0857022
3.07238
0.0246303
1.59761
0.0245604
0.320814
0.023748
0.314322
0.023604
2.75424
0.490954
0.0579239
0.0242377
3.38386
1.55168
5.22905
0.0246461
0.063609
0.0348473
2.38256
0.0436484
3.36874
0.0244841
0.0245386
0.0331629
0.115051
2.06967
0.0311091
0.0264122
0.59407
0.043575
0.0264434
0.0265518
0.0240094
2.42438
0.0248446
0.0237981
0.0247709
0.322853
0.128605
0.0229845
1.22394
2.78559
0.0236399
0.0236739
0.0263917
0.0242109
1.74431
0.0242741
0.150245
2.16556
0.0240254
0.0287243
1.91186
0.0484607
0.0245076
0.0242261
6.57915
0.0233558
0.0237511
0.0572983
3.17126
0.0253541
1.5366
0.0248248
3.29313
0.0267727
0.165282
0.0237228
0.0243789
3.11406
0.0343032
0.024412
3.71254
0.174023
2.44265
0.58569
1.58574
0.214611
0.0262795
0.0266341
0.0237524
0.0241717
0.0218912
1.55325
1.75354
0.557519
0.0243198
0.147825
0.0921345
0.0248555
0.024353
0.0241572
0.0413473
2.45249
0.0251568
2.07348
0.0308806
0.0246891
0.023627
0.0445065
1.85293
0.0300341
0.0257943
5.2023
0.372979
0.0821372
0.0308321
0.0263287
0.0242833
6.70612
0.0329642
1.83377
0.0234061
0.0241519
2.67589
0.0230645
0.0404986
0.0690197
0.352768
0.0238285
0.0234189
2.26404
0.0248578
0.0242459
0.0245562
0.0340243
0.2758
1.29717
0.0245643
0.0236946
0.0389972
0.631052
0.0245985
2.07011
0.0245559
0.0261906
0.0338248
1.58361
0.0243114
0.0238745
0.0259303
0.0242514
0.040126
0.0355878
0.0236559
0.0244587
2.73278
1.90133
0.023874
0.0237619
0.216956
3.32169
0.0259671
0.0260195
2.13363
0.0948058
0.024299
0.602654
0.0283331
0.0249296
0.0270392
0.0247158
0.0235362
0.0241988
0.0239228
0.0231584
0.024516
0.02418
0.0259451
0.0235309
0.0246314
0.268341
0.0580922
0.0501168
0.0244578
2.00335
0.02462
0.0286941
0.024869
0.0244886
0.0445454
0.0664827
0.0242896
0.0243648
0.0257427
0.0384199
0.0246292
0.790645
2.17516
3.16839
0.541
0.0230619
3.54803
2.09807
0.131658
0.043976
1.88827
0.0262469
0.0249367
0.132678
0.0248692
0.0250549
0.0243345
0.0307971
0.0243211
0.023578
2.13106
0.0436231
0.0418289
0.0236735
0.0493562
0.025246
0.0244021
0.0243059
0.0234111
0.024809
0.0245886
0.0246765
0.0479107
3.12445
0.0233446
2.23945
3.92814
0.0245059
0.0241415
0.142243
1.19831
0.0242716
0.0244712
2.40972
0.0244091
0.0244016
0.0734415
0.0229823
0.0245299
0.0244295
0.0247427
1.08873
3.03237
0.0249369
0.0241889
0.0244037
0.0238882
0.02006
0.0240077
0.0243694
0.0248927
2.39254
1.64192
0.0247181
0.0428017
0.371849
0.025494
0.158843
0.028686
0.0247025
0.0239255
0.0237439
0.0242527
0.0254708
0.17895
0.0244734
0.0666877
5.60886
1.7508
2.98003
0.0243472
0.0285995
0.0275588
0.0832923
0.0286375
0.025737
0.0265645
0.164506
0.024703
0.0261238
0.0928822
0.54928
0.0452971
0.0269363
0.024138
2.46484
2.905
3.52691
0.0245036
0.023988
0.0234095
21.9306
1.59785
0.022441
0.0355546
0.105454
0.647694
0.033885
0.0254966
0.0854511
0.0236605
0.0232377
0.0349774
0.0267069
1.65522
0.0234047
0.0285416
0.0239875
0.125596
5.22525
0.0663845
2.3539
0.359023
1.81017
1.88599
0.0253557
0.0342672
0.024476
3.01045
0.0243348
0.384338
0.0288179
0.606965
0.0528495
0.494947
0.560758
0.0298577
0.0239703
2.08978
2.16118
0.0242365
2.213
0.0268246
0.0243938
0.0283436
2.7405
0.0239515
0.203037
0.0256942
0.0245087
3.07833
0.0395395
0.078897
0.0260447
0.0319444
0.171667
0.0315035
0.0719135
0.786268
0.0728662
0.0433726
0.166079
2.06192
0.0331474
1.24942
0.263355
1.71966
0.0870258
0.250804
0.0238933
0.0463738
0.0467155
2.5804
2.65316
0.0245987
0.0267429
0.0494768
2.72525
0.0454844
1.82092
0.0530145
0.0227825
0.0769535
2.98556
0.0262323
0.0433333
2.40205
0.0229956
0.0230917
0.0258483
3.6493
2.61598
0.085079
0.0235905
0.0239846
2.09998
0.0235344
4.72838
1.93755
0.0230653
0.0256817
0.0279983
0.0230356
0.0466884
0.0245395
0.354995
0.106176
0.0980064
0.0234999
0.022742
2.25303
0.0258083
0.0523313
3.12483
1.9092
0.0258645
2.88932
0.769465
1.48778
0.106898
0.0263989
0.0244495
2.09512
0.0409393
0.0245008
0.262971
2.39901
0.0429729
0.0245378
0.0553254
0.0227594
0.0244469
0.0250736
0.0230795
2.61839
0.168499
0.0436566
0.055003
0.0854882
0.0271193
0.0254406
0.969781
2.70804
7.7304
4.02374
0.0250717
0.0248105
1.31951
0.0228408
9.13548
0.0246861
0.0233177
0.0432605
0.0592696
0.0424905
0.0631018
5.38624
0.0227465
0.0430977
0.0422146
0.368664
5.25734
2.05487
1.51887
0.0240146
1.24095
0.0294097
0.0248688
0.179919
0.023007
0.0264929
1.75579
0.0280174
0.0318382
0.263439
3.82312
0.584751
0.0584283
2.147
0.164049
0.0575342
0.0239001
2.41192
0.0256433
1.83507
2.12221
4.36712
0.0242492
0.0244747
0.0817296
0.0682195
0.0221557
0.0243958
0.0249793
2.25574
0.0255334
0.0244708
1.3947
0.0237578
13.0064
0.0397578
0.0281118
1.29389
4.26713
0.0705728
0.151409
0.0287689
0.0917251
1.29592
0.0242199
2.16204
0.0571156
0.0243707
3.01055
0.0287904
2.79192
0.0239351
0.0245825
0.0231464
0.0906041
0.660482
0.0243497
0.0242277
0.164968
0.0242351
0.0429856
0.414385
1.44814
3.83509
0.0247783
0.0242116
2.84454
0.0229534
0.0797617
0.0242123
1.68663
0.0714637
2.43834
0.109306
0.0460651
0.023974
0.175865
0.161246
0.053267
0.866602
0.285782
0.0786911
0.175113
0.0240513
2.07476
0.16167
2.46679
0.319544
0.033448
2.72413
0.106533
0.706785
0.0511115
0.0247943
0.93071
4.23376
0.0497505
0.0259075
1.23974
0.023626
2.6298
0.0239126
2.29099
0.0231692
0.812821
0.0282994
0.0234923
0.0263371
2.57909
7.00262
1.89188
0.0242165
0.0242159
0.048563
0.0243308
0.0245988
0.0269974
2.68945
0.048316
0.0231059
0.0244066
2.29529
0.0256918
0.106492
0.02443
0.0247873
2.74261
1.55776
2.47375
0.0235804
2.29555
0.0239799
0.0475556
0.0243092
0.0268909
0.128729
0.0241843
2.85656
0.025626
0.447107
0.166279
0.02453
0.0243233
0.0284429
0.0275928
2.2949
1.35829
0.0286265
0.252325
0.0231165
2.86204
1.19025
0.0245376
0.126963
0.022732
0.369161
0.10902
2.81698
0.0248091
2.44583
0.0273824
0.0242237
0.0247272
0.075909
0.0244876
0.0244192
2.58766
0.029264
3.75264
2.59523
0.0283653
0.0236131
0.0275738
2.65214
2.4897
0.024691
0.0508167
0.158254
0.0247682
0.157485
0.0245488
0.214855
0.0265372
0.0254983
0.0411337
0.350422
0.0333382
0.0246894
0.606722
0.0905269
0.0252096
0.0246401
0.0251032
0.0239084
2.7641
0.0245591
0.0267352
3.2681
0.0264474
1.38438
0.0234845
0.236037
0.0249496
1.06118
0.0409817
0.0279674
0.101275
0.0221227
0.0221065
1.61133
0.0253076
0.86621
0.0231349
0.0630984
0.0450144
0.0243971
0.0950929
0.0324374
5.93903
0.0277753
2.33329
0.127078
0.0235736
0.0245244
1.95207
0.0853815
0.0221591
0.0245195
0.0318491
0.0251986
2.91516
0.0243187
0.332127
0.0244123
1.62642
0.174184
0.0586654
0.0463594
0.0248358
2.75847
0.0237315
0.52235
0.221487
1.84736
0.0616098
2.74017
0.0243671
0.0245171
0.103968
0.383605
0.0242572
2.75761
0.0235171
0.160049
0.0502934
2.74705
0.0247506
0.032928
0.0578847
0.0291243
0.0469943
0.0256023
0.0247423
0.0590858
0.0708148
0.0835312
0.024778
3.29943
2.25181
3.29309
0.0251567
2.79921
0.186982
0.16614
0.0236168
0.0247097
0.0248126
0.0280558
2.60594
0.0515729
2.77505
0.02463
2.44093
0.107225
0.0247475
0.098454
0.0248526
2.68662
0.744089
12.1936
0.0334032
0.0250738
0.028206
0.167573
0.0455424
0.0227784
1.46379
3.46484
0.0249073
3.17559
0.178287
0.180137
0.835274
0.0246748
0.715668
3.05092
0.0253008
0.0441045
0.0341274
2.92851
5.26567
3.90279
2.5595
0.0278208
0.0380269
3.0324
0.0245003
0.0252556
0.0325189
3.44829
0.0251612
3.72409
0.0248767
1.85615
0.0239611
0.0934358
0.0257521
0.0237232
0.0246586
0.0257588
2.8433
0.0291035
2.72202
0.165269
0.0247842
0.0247958
0.0982043
0.163294
0.024619
2.74613
0.0403739
0.200169
0.088295
0.0287905
2.60016
0.0256236
0.0309272
0.0246016
0.0544789
0.0460373
0.0246642
0.0542495
0.0260158
0.162294
0.0251205
0.105962
0.11474
0.0285068
0.171462
0.245172
0.0255905
0.0254106
0.0254151
3.1893
0.0252062
2.06132
0.0246682
0.0321384
0.0251165
3.7735
0.0233972
0.0416018
0.0237505
0.0226009
2.24963
0.0254542
0.196671
2.59205
0.134844
2.65849
0.0246172
0.0231171
0.025334
2.06029
0.024259
0.0249165
0.0253403
0.0260188
0.0238393
2.85895
0.0668827
0.0240248
2.6954
0.0253846
0.0274912
2.65951
0.0375696
1.14244
0.0245249
0.0286896
0.0473806
0.0256083
1.93577
2.99066
4.89827
0.0243829
1.79899
0.0523137
2.56671
0.0252754
0.0676012
0.0531816
0.0247202
0.0230884
0.0247137
0.405561
0.0322368
0.067297
2.65773
2.86426
0.0491806
0.0496593
0.048232
0.0802687
0.0234715
1.74987
0.1762
0.0571611
0.84205
0.0242146
0.0276348
0.024056
0.148172
0.0289898
0.0276563
0.039605
0.025231
0.0676688
0.0272942
0.168727
0.0244757
0.0292351
0.0247632
2.97186
0.0275089
0.0239564
2.25319
0.0714852
0.0260308
0.0239861
0.0247848
0.0243173
0.0247329
0.257058
3.15959
0.0247284
0.0361311
0.0444047
0.024749
0.0248476
3.46538
0.0569747
0.0472352
3.02078
2.66362
0.102984
0.0243799
2.71018
0.0331019
0.0582831
0.155464
0.0319924
0.170832
2.59499
0.0255107
4.62647
0.0714316
0.0675178
0.0707315
0.050543
0.228089
0.0728041
0.3235
8.36677
1.1841
0.281692
0.463131
0.027598
0.934144
1.34917
0.0262183
0.0514611
0.0273839
0.0244425
0.0241186
0.024796
2.75193
3.08364
0.0251716
2.60831
4.04792
0.0277398
2.98688
0.502912
2.81068
3.01796
0.0340154
0.0249986
0.0238682
2.90907
0.151718
0.0240265
2.88009
3.11608
0.0427588
3.31286
0.0662967
0.0242415
3.10056
0.024832
3.58433
0.0248735
2.66128
2.00214
0.0337025
2.36826
0.0235787
0.0733481
0.0256023
0.0343043
0.161544
0.0247647
0.0247899
0.18825
2.59567
0.202404
0.0235069
0.0277177
0.0351617
0.047882
0.0250812
0.184672
1.98674
0.0267491
0.0254458
0.0446649
1.45191
0.0245111
0.0251742
0.0245216
0.0274798
3.03467
0.0316335
0.0571733
0.167081
0.0253364
0.0245025
2.6387
2.11193
0.0247856
4.0396
0.294054
0.0359249
0.187369
0.681255
1.27693
1.7185
0.0314726
2.8416
6.24611
0.168736
0.0265654
2.6354
0.0243925
0.0244331
0.173504
0.0323808
0.0440603
0.0952047
0.0257179
0.0238219
0.0247102
0.0247433
0.0245836
0.0408718
0.170685
0.0238218
0.0231025
0.0366795
0.158848
0.0237189
0.0247621
0.027652
2.73684
0.0424867
0.0238162
2.33283
1.65063
0.0320429
1.65915
0.0230134
0.142316
0.0223877
0.300491
0.0959715
0.0318118
1.22238
0.0244185
0.0274421
0.0373951
0.257211
0.0319203
0.0315877
0.0502604
0.0278934
0.0230393
0.0255005
0.0245174
0.0246396
0.0243575
0.0431674
0.0265174
0.0262206