/*--------------------------------*- C++ -*----------------------------------*\
| =========                 |                                                 |
| \\      /  F ield         | OpenFOAM: The Open Source CFD Toolbox           |
|  \\    /   O peration     | Version:  v2012                                 |
|   \\  /    A nd           | Website:  www.openfoam.com                      |
|    \\/     M anipulation  |                                                 |
\*---------------------------------------------------------------------------*/
FoamFile
{
    version     2.0;
    format      ascii;
    class       volScalarField;
    location    "100";
    object      omega_0;
}
// * * * * * * * * * * * * * * * * * * * * * * * * * * * * * * * * * * * * * //

dimensions      [0 0 -1 0 0 0 0];


internalField   nonuniform List<scalar> 
15335
(
2.86098
0.17524
0.172996
0.0242174
0.0276124
0.0245647
0.0703851
0.0257561
0.0227675
0.0245815
0.0252993
0.0243753
0.0637278
0.0470483
0.0344263
0.0221483
0.153969
0.139336
0.0241588
0.0297428
0.022779
4.80767
0.0317088
0.0227868
0.148931
3.03203
0.0869959
0.0233717
0.0365559
0.102965
0.0230877
0.0787448
0.0256562
0.0283813
0.0735059
0.0938075
0.0245718
0.0289541
0.0462373
0.139878
0.0233725
2.15873
0.022708
0.047846
0.329067
0.0233248
0.0304312
0.0248072
0.0405308
0.0247071
0.0227994
0.0230808
0.0248883
0.0276915
8.95117
0.313946
0.118979
0.0300379
0.0298872
18.8908
0.166642
0.0223886
0.0248914
0.0255131
0.0274877
2.66757
0.34255
0.0244297
0.0360433
0.0225924
0.0271517
0.0315194
0.0248165
0.357654
0.025357
1.58912
0.165217
0.0263321
0.0238063
0.0889344
2.99071
0.0345719
0.0354728
0.0771917
0.0318645
10.4348
0.0255664
0.0847546
0.0245588
0.0268905
5.39821
0.0757655
0.362666
1.87611
0.0293634
0.077111
0.0226725
2.67595
0.0230771
2.69334
0.022686
0.0265456
0.145783
0.0221574
0.0241386
0.0226595
15.0994
0.0248758
0.0266822
0.0522562
0.0278498
0.0425007
0.052728
0.0260939
0.0254595
0.0232921
0.0541065
0.0242377
2.08387
6.52646
0.0263777
0.0730782
2.37337
0.0241592
0.0724681
0.0233284
0.0242752
4.87806
0.0753881
0.0264598
0.0233272
0.0732559
0.0244635
2.84563
0.0230818
0.361275
0.0246303
0.0226063
0.0500312
0.0277189
0.0252174
2.16783
0.0240782
3.01787
2.53198
0.0255524
1.81318
0.0292959
0.0248537
0.0552371
0.0237588
3.54264
0.0221448
0.0285346
2.27836
0.0244713
0.0791473
0.0247912
0.0231745
0.0314479
0.0239479
0.0275388
0.0248123
0.0437322
0.0288802
0.0241809
0.0231641
3.86713
0.0229956
0.0242992
0.0263629
0.0242902
0.0253006
0.0245012
0.0292552
0.0281176
3.00709
0.0230098
0.0759199
2.65713
0.0252482
0.136636
0.025369
0.0279758
0.0279574
0.123586
0.0790675
0.12799
0.0248636
12.5972
0.0240966
2.65433
0.0410489
0.0233603
0.0248318
2.20395
0.0252425
0.022372
0.0582461
0.16706
0.149617
0.0296298
0.0232629
0.0651769
2.68359
0.0284614
0.566015
0.0242373
0.0789793
2.83293
0.156176
0.0293889
0.0233793
0.0292737
0.167651
0.0287793
0.025637
0.0450987
0.0253082
0.279164
0.0285853
0.047755
2.33483
0.0759219
0.0263162
9.38259
0.06514
0.0250729
0.0670178
0.151118
0.0248591
0.121982
2.5834
0.0320329
0.0249068
0.0260862
0.0240337
1.09578
6.47279
0.0255468
0.0547945
0.0246964
0.0568406
0.0263585
2.84307
0.0290038
0.364498
0.0286776
2.12576
1.92166
0.0283161
0.0228615
0.164906
0.0282082
0.0228638
4.60513
0.025216
0.0257959
2.35735
0.0228505
2.63983
1.6324
5.61075
0.168242
2.85796
7.55921
2.27499
0.0229556
0.170124
0.025207
0.0956843
0.0221214
2.97837
0.0231044
0.0257691
2.93815
23.6732
0.0276833
0.0248062
2.711
0.0233736
0.0243081
0.0255791
0.024829
0.0957668
0.024831
0.0330465
0.0242259
0.164943
0.0288429
0.157401
0.0266594
0.0231461
0.0243196
4.87002
0.0290946
0.0261947
0.0231761
0.0251593
0.0256087
0.25126
0.0532717
0.848779
0.12415
1.9698
0.0233852
0.0233842
0.275145
5.76446
0.0658281
23.105
0.0264621
0.0413208
2.9743
0.0233111
0.0282841
0.02299
0.0229914
0.0252195
0.0257736
0.0246281
0.0249371
1.10933
2.31527
0.0292214
3.13593
0.127291
0.0230006
0.0229993
0.0230037
0.0233337
1.10065
1.07065
0.0296604
0.0456419
0.0226459
0.0249402
0.0280225
0.0508047
2.13575
0.0336914
0.050056
0.0842035
0.0338527
0.0279476
2.49047
0.0557451
2.11993
0.0265189
0.0267177
0.062169
0.0230073
0.024665
2.96368
0.231474
0.0266294
0.0262452
0.0230023
0.0244872
0.749086
0.0245239
0.023331
0.0293166
0.024528
0.363655
0.0267185
0.0256484
0.0252976
0.0408767
0.0243999
0.0255908
0.0237135
0.0313946
0.0244653
0.023032
0.02331
0.0223448
0.0221195
0.0245851
0.062453
2.1566
0.075284
0.0217487
0.0589096
11.6751
0.0356574
0.0233817
2.53009
0.0239601
0.024331
0.0253412
0.040388
0.0230918
0.0266837
1.15833
0.026305
0.024733
0.022159
0.0242552
2.51089
0.0346982
0.356551
0.0650653
0.0228701
0.0243387
0.0540909
0.0228891
0.0250961
0.112628
0.0247181
0.0228595
0.0246393
0.0250435
0.0261436
0.0531372
0.0232793
0.0243905
0.0288921
0.0243981
0.0247361
0.0555542
0.023853
0.173434
0.0245785
0.0304015
0.14907
0.0241573
0.0243689
0.0233159
0.175599
2.63515
0.0306929
0.0263443
0.36041
0.0222431
0.022883
2.93187
0.055577
0.0238466
0.0362004
0.0226966
0.0245809
0.0237917
3.41732
0.0266657
2.33748
0.0372155
0.0246385
0.0288368
0.364263
0.0279162
2.93774
0.024119
18.7
0.0239618
0.0247158
0.0362961
2.58976
0.0265251
0.0248524
0.0247821
0.0305107
0.0287017
0.0264702
0.0635607
0.286097
0.027876
0.160473
0.0266508
0.0260038
0.0239619
2.92446
0.0266169
1.42945
0.0244269
0.0237524
0.0243122
0.0263363
5.88175
0.0246953
0.0256936
0.0249436
0.0250584
0.0240973
0.0244054
2.15899
0.0259194
0.0245932
0.0232516
0.0246603
0.26874
0.253174
0.0242754
0.0226072
2.90758
3.06541
5.05755
0.0340873
0.0360838
0.0757149
0.0286574
4.14145
0.0244279
0.053581
0.022619
0.0281242
0.0334813
0.0669726
0.0238839
0.0250174
0.0259967
0.0281133
1.56507
0.088877
0.274967
0.022721
0.0246535
0.0234573
0.0834504
2.42164
15.56
20.5294
0.0265132
0.0230215
0.52131
0.0240058
1.8508
0.0257491
0.023134
0.0243952
0.0255461
0.0575509
3.07021
0.0239579
0.0748509
0.0355562
3.22763
0.0313723
0.0228175
0.0262556
0.0414676
0.0580649
0.0243559
6.0232
0.0245591
2.28337
2.81161
0.0251537
0.0594032
0.0379494
0.0443063
0.0242269
0.0226284
0.0230636
5.98736
5.12846
0.023891
0.0261848
0.0246764
3.69258
0.0369579
0.0244431
0.0348487
0.0244069
0.153885
0.0259198
0.034402
0.0297719
2.95725
3.29995
2.52335
0.0242371
0.0231195
0.0552723
0.0248781
0.0231103
0.0242484
0.0250247
0.0245419
2.54073
2.22546
6.54841
0.0450901
0.0280571
0.0362743
3.90896
4.38744
2.64138
0.0310059
0.0231613
0.0233369
0.0265887
0.483149
0.0255796
0.0238821
3.62315
0.0296987
5.86703
0.0237369
0.163943
0.0284625
0.033908
7.52378
2.441
0.0292232
0.0233468
0.0472287
0.024722
2.23702
0.0447289
2.41535
0.297976
0.568747
0.0233535
0.0252888
0.060189
0.0532754
3.65373
0.0259174
0.0229445
0.023961
0.0246265
0.0244267
0.0265038
0.0731843
0.0233041
0.0228477
0.0221249
0.0248088
0.0321368
0.0252041
0.0922943
0.0233402
0.0284221
0.0479019
2.64001
0.160782
0.0245284
0.0231669
0.0333838
0.0580961
0.0242827
0.0244455
0.215416
0.0246491
0.0625339
0.0461059
0.0227547
0.0259236
6.15005
1.80071
0.0246174
0.0231894
0.0237084
2.97146
0.0238345
0.463931
0.0246389
0.0264578
0.0248794
0.0238955
0.0354195
0.0812997
0.736203
0.0231427
2.10293
0.0252567
0.0248389
0.186966
0.0240711
0.0253228
0.0266686
0.0291804
0.0238797
0.0522773
0.023822
0.0245417
0.0242504
0.0273974
0.0316493
0.0237653
0.314688
0.0263324
0.0228405
3.12671
3.53404
0.0625134
0.0237236
0.0267374
0.024262
0.047093
0.0516386
0.0241178
0.0295403
0.0241655
6.18854
0.260771
0.024709
0.0257062
15.51
0.0246333
2.87864
0.303611
0.0250904
0.0226987
17.4499
0.0275555
0.0359717
0.033493
0.550842
0.0240539
0.0251359
0.189521
0.0240993
0.0255932
3.07704
0.0818965
0.17896
0.0284047
0.0243155
0.0228445
0.0239277
0.0246612
0.0247198
0.0344025
0.0329548
0.334623
3.68256
0.0358406
1.79464
3.03481
0.0771471
0.0242036
0.0232623
0.023317
0.0253137
0.0228177
0.0257046
0.0242495
0.0247409
0.0250247
0.0228653
5.69368
3.12306
0.0242492
0.0793702
0.0246016
2.62686
0.0305793
0.0760886
0.0240859
0.0400884
0.0251464
0.0323901
0.0251071
0.0223618
5.95812
0.0231717
0.0442248
1.79103
0.0267687
2.96818
0.0239363
0.421768
0.0228284
6.87629
0.0246032
0.0228564
0.0297083
0.0867868
0.0418932
0.0243423
0.0292996
0.0580642
0.0278114
0.0282036
0.0325819
0.146213
0.0229955
0.435604
0.13144
0.0244945
0.0232219
0.0249483
3.11471
0.0282561
0.023841
0.0986773
0.064158
0.0292975
1.35515
0.333645
0.0243306
0.0457563
0.0248377
2.64267
0.0274585
0.0244106
0.143375
0.0277362
0.0989228
0.0326577
0.024285
0.0273608
0.0866109
0.0248977
0.0318645
0.0254104
0.0246895
0.32903
0.0351467
0.0267651
0.0548685
0.0303112
0.0248058
0.153647
0.0233032
0.0250254
0.0246408
0.0599938
0.0249058
0.0286138
0.0245496
0.0642113
0.0244369
0.0250768
0.0232898
0.0472097
2.43106
0.0267035
0.179182
0.0613565
0.0216664
0.0230434
1.25018
0.0231053
0.0230394
0.0233246
0.0228565
0.0257451
0.0611911
0.0240687
0.0369685
0.0230411
0.0244137
0.024029
0.0221333
2.87762
0.026006
0.0233512
0.0241303
0.0243952
0.022925
0.0294249
0.0266468
0.0243459
0.0248549
1.80489
0.0242207
5.94246
0.0233634
0.0241596
0.338354
0.0229138
0.318727
0.400238
2.16996
2.82723
0.0244703
0.05059
0.0740487
0.0466082
0.0261294
0.0241569
0.132607
0.0255888
0.0252997
0.0259774
0.02372
0.224358
0.026128
0.101177
0.0270979
0.0225814
0.0247825
0.0244846
0.028298
0.0241293
0.0995994
0.330789
0.0248162
0.0477142
0.0245664
0.0225552
0.0222316
0.0272899
3.613
0.0232822
2.53563
2.10877
0.0240175
0.739262
0.0244576
0.0244287
0.0648329
0.025378
0.0427714
0.023994
5.69895
0.0241141
0.0373452
0.022566
1.1609
0.0254836
0.0254442
0.0237979
0.0466713
0.0233851
0.0634817
0.0237977
0.0239139
0.0232752
0.028085
0.430345
5.34073
0.0239945
2.47286
5.97261
0.036106
0.382403
0.365141
2.94354
0.0626775
1.21264
0.283943
0.0230052
0.0232622
0.0350275
0.0244114
0.0241846
0.0545773
0.0463493
2.72334
0.0240301
2.41394
0.0245868
0.0792507
2.71745
0.0338982
0.023206
0.145585
0.0267118
0.0249978
3.07295
0.026696
0.0250748
0.0240081
2.48259
0.0225661
1.98397
0.0244981
0.0547637
0.0385383
0.0423119
3.51553
0.0258203
3.00326
0.045726
0.0225765
0.145446
0.0250186
0.0459751
0.0225597
0.0290834
0.596766
2.565
0.022555
0.182794
5.70097
0.0225707
1.30453
0.0278563
0.0270323
2.88585
3.16133
0.0231846
0.357794
0.103601
0.161376
0.0291232
0.0246861
0.0289114
0.0236923
0.901256
0.0231973
0.0269493
0.022566
0.0258233
0.0268371
0.0276127
0.333655
0.53064
0.0247853
0.0528516
0.0247622
2.20695
0.0254467
0.0252917
0.0962108
0.0243398
0.0236177
0.024904
0.0221744
0.0244057
0.0280777
0.0249368
0.022985
0.025136
0.0243717
4.28572
0.0242366
0.0241466
0.0242493
0.0252939
3.38904
0.0228367
0.0240156
0.160746
1.03054
0.0228299
0.150776
0.0248675
0.232685
0.0497914
5.55568
0.0278488
0.0246603
1.54257
0.0242924
0.111019
0.0244113
0.0501332
0.0239304
0.0581296
0.0513567
0.0242652
0.86445
0.189386
6.04463
0.0664284
0.02505
0.0253533
0.0228284
0.0291927
0.0248825
0.519762
2.1837
0.0223252
0.0254009
0.0252992
0.0240547
0.0244864
0.0281582
0.0232477
0.060555
1.52868
0.02429
0.0237754
0.0269307
0.0221603
0.0251945
0.0232351
3.15101
0.026063
1.00224
5.52593
0.0745024
0.0251329
0.0246891
1.76841
0.0262299
0.0248834
2.17889
7.38125
0.0253778
0.0293739
0.0242502
0.0257256
0.0588297
0.040445
0.0237671
1.80757
2.82183
0.0457186
0.0241101
2.10102
6.89789
0.0275487
0.0268024
0.0244785
0.024404
0.0225714
0.024411
0.0241696
0.181115
0.0249208
0.0246534
0.0283434
0.0240267
2.38068
0.0241418
0.0236254
0.0225827
0.0251297
0.0320114
0.0491101
0.0242131
0.0247722
0.103637
0.0228348
0.0247734
0.0239236
0.0258095
0.800276
0.768982
0.0237945
0.0245564
4.80381
0.0490987
0.0233813
0.0221879
0.0225733
0.02414
0.035213
0.0242606
0.0236446
0.023797
0.0249932
0.780058
0.053836
0.0242834
0.0435373
0.63933
0.0269121
0.122242
0.0529574
1.75542
0.134488
0.173575
0.0255796
2.82401
0.250083
0.0785901
2.69898
0.177672
0.0257415
0.170474
0.0259949
2.80971
3.00655
2.01129
2.41015
0.022553
1.1291
0.0248025
0.0226423
0.0412693
5.40313
0.028116
0.0397016
0.0245063
0.0226158
0.0261483
0.0247548
0.0261962
0.0226699
0.34178
0.04578
0.0341027
0.171654
0.023221
0.0355338
0.0238646
0.0359425
0.0248141
0.0242246
0.0226664
0.0248885
0.0249933
0.0246393
0.0240414
0.0225664
0.0626106
0.0240732
0.0539488
1.78857
1.30213
0.198593
0.135034
0.023208
2.99527
0.0229308
0.757103
0.0231408
0.0225652
0.0244205
0.236012
0.0244511
0.0248285
2.61998
0.138274
3.04392
3.0301
0.182239
0.452848
0.0244794
0.0249096
0.408722
1.50294
0.0243249
0.0244438
0.0235599
0.247614
0.0248769
2.53128
17.0537
3.13653
2.90624
0.0304301
0.0293013
18.2284
1.94438
0.667217
0.0244343
8.00855
0.024457
0.317377
0.0225746
0.0243577
0.024419
0.0228037
2.9868
0.0236191
0.0507315
0.0721873
1.32188
0.0244164
0.029307
0.034663
2.37999
2.51693
0.0323255
0.0898117
2.12559
0.0225839
0.0225991
0.0304001
0.0271164
0.0748109
0.0816013
0.0247867
0.0469816
1.10299
0.023117
0.0235709
1.05328
5.4276
0.0323788
0.0240533
0.0266317
2.24859
0.0247481
0.048338
0.0228043
0.0508762
0.0259459
3.28944
2.15854
0.0246375
0.0278286
0.0243643
0.121831
0.0264417
0.0358021
0.0252143
0.0241374
2.99597
0.0419803
0.0455873
0.0254003
0.0258708
0.0270285
1.17304
0.0669079
0.0433012
0.2932
1.61482
0.376591
0.0261991
0.113114
6.52447
0.0226023
0.0555752
0.0449219
2.46623
0.0231546
0.0236354
1.06046
0.0796491
0.0240953
0.0341686
0.0244921
0.0480185
0.462748
0.0226363
2.25185
0.665723
0.0239865
0.0247097
0.0236487
0.0229734
0.0231809
0.0265961
5.4305
0.023194
0.0251365
0.071508
1.66925
0.0221638
0.281234
0.0232498
0.0229732
0.0238738
0.0240176
0.0241652
0.0274248
0.0253496
5.13664
4.69602
0.0486751
3.14396
0.396881
0.0293561
0.0241104
0.28807
0.0226842
0.0232724
0.0283704
1.93051
0.324491
2.45093
0.802878
3.04948
0.0240705
6.67874
0.0335863
0.832065
2.99788
0.0242346
0.047504
0.0287629
0.0236955
0.0248921
0.0282819
2.95276
0.0241547
0.032634
0.0228581
3.16148
0.0240676
2.80325
0.0242489
0.327127
2.759
0.0568899
0.025423
0.0267672
0.0284891
0.120076
0.111709
0.0232424
0.0242605
0.329994
0.0456627
0.0770942
0.0752359
2.28792
0.0263578
0.0279231
0.0246578
0.024542
0.0334955
0.0244736
0.0236676
0.0208896
0.0246673
0.0240904
0.0258591
0.912445
0.0247884
0.0240911
1.29085
0.178556
0.0249017
0.0569263
0.592213
0.0255518
0.0254893
2.84838
0.0253867
1.54102
0.631854
0.0243166
0.0280812
3.13054
0.0242077
0.0273798
0.0967336
0.0683889
0.0240018
2.11669
6.92091
0.0267295
0.0260074
0.0607365
0.138005
0.0221174
0.0240114
0.0244115
0.0263108
2.94694
1.42503
1.49387
2.28368
2.86658
0.0275013
0.0271462
0.300786
0.0222249
0.0324092
0.0447003
0.0298211
0.0228715
0.0450767
0.0217052
0.0245603
1.66097
1.76206
0.0483411
1.21688
0.025314
0.0261705
0.156115
1.80899
0.337858
2.44606
0.0253786
0.1422
2.25979
0.0413175
0.026771
0.209378
0.029885
0.135998
0.0242956
0.0416739
0.0293092
0.0560933
0.0246348
0.33714
0.0268906
0.0239772
0.0247573
0.998035
0.773616
0.0280204
0.0424388
0.793206
2.90618
0.0226331
0.0280948
0.0322396
0.107293
0.0247848
0.02331
0.0249111
0.0252074
1.61831
0.0267024
0.157792
0.0241366
0.0248432
2.04709
0.024442
0.0246553
0.0419983
0.0275554
0.0246349
0.0244425
0.0256958
0.042166
0.338231
0.0295437
0.043864
0.0250866
0.0245011
0.0247374
0.0244982
0.382429
0.0259854
2.88113
0.0259645
0.0242176
0.0453259
0.0247081
0.0266814
0.0256729
0.0243918
0.0246123
0.0246565
2.74054
0.0242452
0.0342983
0.0244037
2.96356
1.64905
2.40583
0.0247549
2.32148
0.0245893
0.0350562
0.0244973
0.0242614
1.75255
0.0415974
0.024704
0.0520466
3.62374
0.0268686
2.41796
0.0265488
1.05584
0.6321
0.0246649
0.0244556
0.0246653
0.0470743
0.0237917
0.023631
0.0242175
1.1942
0.333664
0.104743
0.0253106
0.0243856
0.746873
2.7532
1.42079
0.841514
0.886544
0.0255707
1.43214
0.0257795
0.0350141
0.800205
0.0230728
0.0246746
0.0265906
0.612654
0.334537
2.94758
0.0240235
0.0262716
0.0248119
0.0774465
2.74387
0.0284313
0.0482567
0.0262706
0.0320426
0.0288913
0.023168
2.85577
2.56158
0.0264034
0.0265624
0.0267899
0.143639
2.62537
0.0269588
0.0238834
0.024538
0.0239166
0.0242005
2.96887
0.0805734
0.0238869
0.0429084
0.0245078
0.0240646
0.0250112
0.0241348
0.0245445
4.49575
0.0413889
0.0408717
0.023901
0.0636094
0.0229449
0.0239613
0.0237051
0.023591
0.0228122
0.0248171
2.89939
0.0236247
0.720251
1.403
0.0705634
0.0360874
0.0245794
1.82243
1.07697
0.0248115
6.70912
0.0263056
0.330063
0.0238003
0.519696
0.0422078
0.024012
0.150449
0.0256177
0.168581
0.0243593
0.0243496
0.0239092
0.0544451
0.0248763
0.0240684
0.0531659
0.0285901
0.0232322
0.0245203
0.319931
0.0243715
2.49255
0.0263967
0.0447311
0.0733957
2.3633
1.31407
0.024926
0.0246362
0.024639
0.0249214
2.57275
3.39764
0.0267441
0.0236528
1.0069
0.0257337
0.0251928
0.0228143
0.337955
0.0247095
0.109106
2.70776
0.0254147
0.167165
1.65154
0.0519982
0.0699872
0.0821598
1.76283
0.280075
0.0266646
0.570054
0.0256548
0.0396434
1.15397
0.02785
0.0246427
0.0249184
1.17175
0.769309
0.62796
0.0264516
0.024273
0.167824
0.0259883
5.80537
0.022933
2.8459
0.101144
0.0239961
0.0239418
1.94942
0.0281891
0.291203
0.0263723
0.0279202
0.0262944
0.145619
0.0244107
0.0285851
2.69317
4.93683
1.7428
2.13329
0.0239768
0.30831
0.0240899
0.0270898
0.0254943
0.298565
0.0228815
0.0403417
0.0244555
0.0248007
0.0560621
3.27507
2.48924
0.0266663
0.062362
6.74517
0.0238595
0.0245411
0.0243325
0.0251395
0.154717
0.0249202
0.0244911
1.94137
0.0246161
2.70566
3.05652
0.0527694
0.0230493
0.0231011
0.0341834
0.17711
0.0284755
0.0235997
0.0236061
0.0230249
0.046771
6.63353
0.151837
0.0243412
0.329558
0.023927
0.132497
2.38775
0.0549283
0.0246324
0.0456897
0.392831
0.0237947
0.0261385
0.0745236
0.0247434
3.15956
0.103049
0.0232764
0.512013
0.0495742
0.0248011
0.0241527
0.0233944
0.0245459
0.0251897
0.0224317
0.0246163
0.0239855
0.0277671
0.0244445
0.0249947
0.024333
1.57039
0.0259305
0.0232948
0.282943
0.151014
2.63912
0.0232816
0.0240717
0.0249643
0.0203063
0.0230553
0.0246831
0.0778103
0.0919839
0.0252646
0.0243234
0.0244382
0.026312
0.0428254
0.0250945
0.0232606
0.112233
0.0247725
0.024248
0.154874
3.13726
2.9559
0.0306744
0.0243618
0.0306109
2.81169
0.0238665
0.024673
0.0276159
0.0244651
3.4813
0.0254314
0.0245455
0.0232628
0.0242078
0.524379
0.0239969
0.0231509
0.848904
0.062768
2.61591
0.0229981
3.86161
0.0232643
0.0278148
0.0242489
2.69241
0.0234042
0.0294553
0.0293068
0.0298421
0.0280522
0.0446668
0.0248975
3.15435
0.0284586
0.152324
0.02479
0.0281243
2.31137
0.0287674
0.048956
0.0239054
0.0239063
0.0254971
0.031909
0.0351541
2.95891
2.90163
0.0239953
0.0229835
0.595334
0.0244009
0.139668
2.61981
1.88209
0.291887
0.981327
2.12559
0.0229939
0.946398
0.0330325
0.583359
0.0316237
0.0752997
1.05658
0.0249359
0.0231213
0.0238463
0.024391
0.280448
1.73072
0.0326209
0.168461
0.0221482
0.0236774
0.0600196
0.153079
0.0241688
0.0273521
0.0238824
0.0243287
0.0315636
3.95274
8.91424
0.02427
0.0706971
0.0238771
0.0246155
0.0491738
0.026969
0.028226
1.16048
0.0224136
1.57577
0.0237776
0.0233243
0.0258368
0.0254063
2.78138
2.45279
0.032812
0.0250047
0.0227469
0.025211
0.0226131
0.0249501
0.0271689
0.0294365
0.131689
0.162467
0.04407
0.0448504
0.0333482
2.04189
0.122955
0.029682
0.0248796
0.0300966
0.0395413
1.01597
0.0277127
0.342742
0.023274
0.0259622
0.0771427
0.0240211
0.1069
0.0246657
0.0227465
0.039283
2.37154
0.0246869
0.0252459
3.54445
0.089899
0.156132
0.0303098
0.0897506
0.296539
0.0267532
0.024342
2.66522
0.0511332
0.0212562
0.302971
0.0222747
2.70205
0.0295471
0.0284908
0.0252307
0.02297
0.446022
0.0261061
0.0546268
2.6517
0.045827
1.56122
0.0565237
1.36563
13.7329
0.0244743
0.0244183
0.0243841
3.07626
2.84848
3.1623
3.01582
2.55225
3.32708
0.0243782
0.0248386
0.0238279
4.01177
5.5356
0.0270761
2.08236
0.0237011
3.67239
0.0246087
0.0251075
2.90984
0.30875
0.0247395
0.158265
0.0278015
0.0262345
0.0251526
0.0263627
0.0598364
1.69766
0.0244113
0.0237826
0.0993103
0.866487
1.17678
0.0242696
0.025104
0.0496235
0.0234082
0.037458
1.9276
0.0313396
0.0280755
0.386822
0.0231181
2.90156
0.0305666
0.045883
0.0246117
0.0260265
1.9456
0.0970435
0.0245041
0.0238887
0.0243917
0.0272634
0.0449614
0.0221007
0.0242529
0.163019
0.0322768
0.0283567
0.0248907
0.0255562
0.166133
0.023132
2.43513
0.0731958
0.0265139
0.0206963
0.348751
0.156626
0.0318021
12.821
0.845809
0.0857014
3.07238
0.0246303
1.59763
0.0245604
0.320965
0.023748
0.314357
0.023604
2.75423
0.494053
0.0579228
0.0242376
3.38385
1.55163
5.2291
0.0246461
0.0636075
0.0348442
2.38254
0.0436476
3.36829
0.0244841
0.0245386
0.0331625
0.115048
2.06963
0.0311088
0.0264121
0.59423
0.0435742
0.0264433
0.0265517
0.0240094
2.42437
0.0248445
0.0237981
0.0247709
0.322906
0.128602
0.0229847
1.22369
2.7856
0.0236399
0.0236739
0.0263919
0.0242109
1.74448
0.0242741
0.150239
2.16682
0.0240254
0.0287241
1.91185
0.0484598
0.0245076
0.0242261
6.57913
0.0233558
0.0237511
0.0572972
3.17128
0.0253543
1.5367
0.0248248
3.29316
0.0267726
0.165289
0.0237228
0.0243789
3.11408
0.0343027
0.0244119
3.71251
0.174058
2.44263
0.5861
1.58577
0.214578
0.0262792
0.026634
0.0237523
0.0241717
0.0219079
1.55329
1.75347
0.555044
0.0243198
0.14781
0.0921302
0.0248555
0.0243529
0.0241572
0.0413466
2.45398
0.0251567
2.07338
0.0308803
0.0246891
0.0236269
0.0445056
1.85191
0.0300339
0.0257942
5.20277
0.374136
0.0821352
0.0308499
0.0263286
0.0242833
6.7062
0.0328971
1.8338
0.0234061
0.0241518
2.67589
0.0230645
0.0404981
0.0690182
0.353442
0.0238285
0.0234188
2.26402
0.0248578
0.0242459
0.0245562
0.0340219
0.275278
1.29807
0.0245646
0.0237051
0.0389966
0.631133
0.0245985
2.06999
0.0245559
0.0261909
0.0338244
1.58268
0.0243114
0.0238745
0.0259302
0.0242514
0.0401253
0.0355873
0.0236558
0.0244587
2.73278
1.90126
0.023874
0.0237619
0.216059
3.32168
0.0259667
0.0260194
2.13361
0.0948035
0.0242989
0.603056
0.0283326
0.0249296
0.027039
0.0247157
0.0235361
0.0241988
0.0239228
0.0231603
0.024516
0.0241863
0.025945
0.0235309
0.0246314
0.268483
0.0580113
0.0501159
0.0244577
2.0031
0.0246199
0.0286938
0.024869
0.0244886
0.0445445
0.0664815
0.0242896
0.0243741
0.0257425
0.0384164
0.0246292
0.790774
2.17515
3.16837
0.540789
0.0230619
3.54803
2.09805
0.131653
0.0439751
1.88825
0.026247
0.0249367
0.13268
0.0248691
0.0250549
0.0243344
0.0307967
0.0243211
0.023578
2.13104
0.0436223
0.0418281
0.0236735
0.0493553
0.0252458
0.0244021
0.0243059
0.0234111
0.0248089
0.0245885
0.0246764
0.0479097
3.12443
0.0233446
2.23944
3.92811
0.0245059
0.0241416
0.142228
1.19838
0.0242715
0.0244712
2.4097
0.0244091
0.0244016
0.0734404
0.0229824
0.0245299
0.0244295
0.0247427
1.0896
3.03239
0.0249369
0.0241889
0.0244036
0.0238881
0.0199773
0.0240076
0.0243694
0.0248927
2.39252
1.64182
0.0247181
0.0427925
0.371717
0.025494
0.158856
0.0286858
0.0247025
0.0239255
0.0237439
0.0242568
0.0254707
0.179085
0.0244734
0.0666865
5.60873
1.7512
2.98003
0.0243472
0.0285993
0.0275587
0.0832895
0.0286373
0.025738
0.0265643
0.164488
0.024703
0.0261237
0.0928816
0.549359
0.0452963
0.0269362
0.0241382
2.46482
2.905
3.52689
0.0245036
0.023988
0.0234095
21.9306
1.59694
0.0224407
0.0355541
0.105448
0.647725
0.0338847
0.0254965
0.0854967
0.0236605
0.0232377
0.0348871
0.0267068
1.65658
0.0234047
0.0285414
0.0239875
0.125595
5.22583
0.0663835
2.35388
0.356203
1.80996
1.886
0.0253556
0.0342668
0.024476
3.01091
0.0243348
0.38402
0.0288173
0.607074
0.0528484
0.491766
0.563515
0.0298568
0.0239703
2.08973
2.16115
0.0242365
2.21298
0.0268245
0.0243938
0.0283432
2.7405
0.0239515
0.201573
0.0262816
0.0245087
3.07846
0.0395386
0.0783925
0.0260447
0.0319069
0.171679
0.0315031
0.0719119
0.785967
0.072865
0.0433718
0.166086
2.0619
0.033147
1.24972
0.263295
1.71955
0.0870175
0.251042
0.0238933
0.046373
0.0465261
2.5804
2.65318
0.0245987
0.0267429
0.0494775
2.72524
0.0454834
1.82093
0.05281
0.0227822
0.075989
2.98556
0.0262321
0.0433325
2.40204
0.0229956
0.0230917
0.0258482
3.64929
2.61598
0.0845952
0.0235904
0.0239846
2.10029
0.0235343
4.72901
1.93753
0.0230653
0.0256817
0.027998
0.0230356
0.0466873
0.0245395
0.355603
0.10617
0.0996157
0.0234999
0.0227419
2.25301
0.0258082
0.0523314
3.12483
1.90916
0.0258656
2.88931
0.769327
1.48764
0.106897
0.0263992
0.0244495
2.09509
0.0409388
0.0245008
0.262193
2.39899
0.0429721
0.0245378
0.0553775
0.0227605
0.0244469
0.0250735
0.0230795
2.61841
0.166851
0.0436558
0.0550019
0.085482
0.0271196
0.0254405
0.970035
2.70805
7.73046
4.02387
0.0250717
0.0248105
1.31922
0.0228409
9.13552
0.024686
0.0233177
0.0432507
0.0592682
0.0424897
0.0631006
5.38644
0.0227465
0.0430969
0.0422138
0.369975
5.25688
2.05484
1.51909
0.0240146
1.24012
0.0294089
0.0248688
0.179883
0.0230069
0.0264928
1.75569
0.0280171
0.0318379
0.2634
3.82308
0.584838
0.0584269
2.14748
0.164047
0.0572033
0.0239001
2.4119
0.0256432
1.83506
2.12206
4.36701
0.0242492
0.0244747
0.0811889
0.0682179
0.0221557
0.0243958
0.0249927
2.25572
0.0255334
0.0244707
1.39488
0.0237578
13.0064
0.0397575
0.0281115
1.29404
4.26732
0.070571
0.151379
0.0287687
0.0917227
1.29568
0.0242199
2.16201
0.0571239
0.0243701
3.01057
0.0287898
2.79193
0.0239351
0.0245824
0.0231464
0.089982
0.660382
0.0243497
0.0242276
0.164999
0.0242351
0.0428177
0.410342
1.44836
3.83572
0.0247745
0.0242116
2.84453
0.0229534
0.0797594
0.0242123
1.68659
0.0714629
2.43832
0.109299
0.0460643
0.023974
0.174889
0.161229
0.0532659
0.866867
0.282983
0.078689
0.175093
0.0240512
2.07474
0.161663
2.46677
0.319473
0.0334476
2.72414
0.106527
0.707061
0.0511105
0.0247943
0.930476
4.23363
0.0497496
0.0259074
1.24088
0.023626
2.6298
0.0239126
2.29098
0.0231683
0.812707
0.0282992
0.0234923
0.0263239
2.5791
7.00267
1.89189
0.0242164
0.0242159
0.048562
0.0243308
0.0245988
0.0269973
2.68947
0.0483151
0.0231059
0.0244066
2.29527
0.0256917
0.106486
0.0244299
0.0247873
2.74259
1.55791
2.47374
0.0235804
2.29553
0.0239799
0.0475547
0.0243091
0.0268911
0.128727
0.0241843
2.85659
0.0256259
0.446951
0.166277
0.0245299
0.0243233
0.0284432
0.0275927
2.29483
1.35825
0.0286263
0.252368
0.0231165
2.86205
1.19033
0.0245376
0.12696
0.022732
0.369033
0.109014
2.817
0.0248091
2.44581
0.0273822
0.0242237
0.0247272
0.0759072
0.0244866
0.0244192
2.58766
0.0292638
3.75234
2.59523
0.0283651
0.0235852
0.0275736
2.65215
2.48968
0.024691
0.0508154
0.158275
0.0247682
0.157478
0.0245488
0.216204
0.0265387
0.0254982
0.0411271
0.350368
0.0333378
0.0246894
0.606613
0.090524
0.0252096
0.02464
0.0251032
0.0239084
2.76412
0.0245591
0.0267351
3.26813
0.0264473
1.38448
0.0234845
0.236028
0.0249495
1.06099
0.0409811
0.0279671
0.101274
0.0221228
0.0221066
1.61106
0.0253075
0.865965
0.0231349
0.0629923
0.0450135
0.0243971
0.095092
0.032437
5.93903
0.027775
2.33327
0.127075
0.0235736
0.0245244
1.95192
0.0853802
0.0221591
0.0245195
0.0318488
0.0251986
2.91516
0.0243187
0.332019
0.0244122
1.62657
0.174188
0.0586642
0.0463585
0.0248358
2.75849
0.0237315
0.522155
0.223097
1.84725
0.0616086
2.74018
0.024367
0.0245171
0.103965
0.383618
0.0242571
2.75761
0.0235171
0.160047
0.0502924
2.74705
0.0247506
0.0329276
0.0578836
0.0291241
0.0469934
0.0256001
0.0247422
0.0590405
0.0708136
0.0835308
0.0247779
3.29966
2.2518
3.29308
0.0251566
2.7992
0.186991
0.166163
0.0236168
0.0247097
0.0248125
0.0280556
2.60594
0.0512557
2.77505
0.0246299
2.44076
0.107221
0.0247475
0.0984537
0.0248526
2.68661
0.743715
12.1938
0.0334028
0.0250738
0.0282058
0.167555
0.0455988
0.0227784
1.46374
3.46481
0.0249073
3.1756
0.178294
0.180142
0.835159
0.0246748
0.715691
3.05092
0.0253008
0.0441037
0.034127
2.9285
5.26627
3.90276
2.55949
0.0278205
0.0380268
3.03239
0.0245002
0.0252556
0.0325185
3.44829
0.0251612
3.72408
0.0248767
1.85615
0.0239611
0.0934341
0.025752
0.0237232
0.0246586
0.0257589
2.84329
0.0291032
2.72204
0.165245
0.0247842
0.0247958
0.0982014
0.163296
0.024619
2.74579
0.0403731
0.200115
0.0882907
0.0287902
2.60015
0.0256235
0.0309267
0.0246016
0.0544777
0.0460364
0.0246642
0.0542484
0.0260157
0.162339
0.0251204
0.105957
0.114737
0.0285066
0.171499
0.245165
0.0255904
0.0254176
0.025415
3.18931
0.0252062
2.06131
0.0246682
0.032138
0.0251165
3.77382
0.0233972
0.0416011
0.0237505
0.0225992
2.24962
0.0254542
0.196657
2.59206
0.134855
2.65848
0.0246172
0.0231169
0.0253339
2.06025
0.0242589
0.0249164
0.0253402
0.0260187
0.0238393
2.85898
0.0668791
0.0240248
2.69541
0.0253846
0.0274911
2.65952
0.037569
1.1421
0.0245249
0.0286894
0.0473796
0.0256084
1.9356
2.99064
4.89829
0.0243829
1.79895
0.0523126
2.5667
0.0252753
0.0676002
0.0531805
0.0247202
0.0230883
0.0247136
0.405414
0.0322365
0.0672962
2.65773
2.86426
0.0491796
0.0496583
0.048231
0.0802664
0.0234714
1.75021
0.176213
0.0571597
0.842103
0.0242146
0.0276347
0.024056
0.14817
0.0289896
0.0276562
0.0395784
0.0252309
0.0676658
0.0272941
0.168753
0.0244757
0.0292348
0.0247632
2.97189
0.0275087
0.0239564
2.25306
0.0714834
0.0260307
0.0239861
0.0247848
0.0243172
0.0247328
0.263137
3.15959
0.0247284
0.0361309
0.0444039
0.024749
0.0248475
3.46537
0.0569705
0.0472343
3.02078
2.66362
0.102981
0.0243799
2.71018
0.0331015
0.0582819
0.155468
0.031992
0.170809
2.59499
0.0255106
4.62645
0.0714297
0.0675165
0.0707302
0.0505419
0.228045
0.0728028
0.323516
8.36664
1.18427
0.281636
0.463076
0.0275978
0.934246
1.34931
0.0262185
0.0514601
0.0273837
0.0244425
0.0241186
0.024796
2.75191
3.08363
0.0251715
2.6083
4.04777
0.0277397
2.98687
0.50288
2.81066
3.01795
0.0340138
0.0249986
0.0238682
2.90906
0.151726
0.0240265
2.88009
3.11608
0.0427579
3.31287
0.0662956
0.0242415
3.10057
0.0248319
3.58433
0.0248734
2.66129
2.00213
0.0337021
2.36824
0.0235786
0.0733459
0.0256022
0.0343038
0.161566
0.0247646
0.0247899
0.188234
2.59567
0.202496
0.0235069
0.0277175
0.0351612
0.0478832
0.0250812
0.184683
1.98576
0.026749
0.0254455
0.0446641
1.45163
0.0245111
0.0251742
0.0245216
0.0274796
3.03531
0.0316332
0.0571719
0.167054
0.0253364
0.0245025
2.6387
2.11192
0.0247856
4.03961
0.293187
0.0359244
0.187364
0.681434
1.27853
1.71843
0.0314722
2.84161
6.24619
0.168715
0.0265652
2.63539
0.0243925
0.0244331
0.173511
0.0323805
0.0440595
0.0952021
0.0257178
0.0238219
0.0247101
0.0247432
0.0245836
0.0408712
0.170683
0.0238218
0.0231025
0.036679
0.158849
0.0237189
0.0247621
0.0276519
2.73685
0.0424859
0.0238162
2.33282
1.65029
0.0320426
1.65903
0.0230134
0.142303
0.0223876
0.300531
0.0959683
0.0318115
1.22224
0.0244185
0.0274426
0.0373945
0.257243
0.03192
0.0315874
0.0502593
0.0278932
0.0230393
0.0255004
0.0245174
0.0246396
0.0243575
0.0431666