/*--------------------------------*- C++ -*----------------------------------*\
| =========                 |                                                 |
| \\      /  F ield         | OpenFOAM: The Open Source CFD Toolbox           |
|  \\    /   O peration     | Version:  v2012                                 |
|   \\  /    A nd           | Website:  www.openfoam.com                      |
|    \\/     M anipulation  |                                                 |
\*---------------------------------------------------------------------------*/
FoamFile
{
    version     2.0;
    format      ascii;
    class       volScalarField;
    location    "100";
    object      p;
}
// * * * * * * * * * * * * * * * * * * * * * * * * * * * * * * * * * * * * * //

dimensions      [0 2 -2 0 0 0 0];


internalField   nonuniform List<scalar> 
15335
(
-0.0287103
-0.0243907
-0.00502274
0.00392662
-0.013369
0.00448818
-0.0329927
0.00456305
0.00318853
0.00229561
-0.00729737
0.0039494
0.0133431
-0.011835
-0.0212237
0.000326674
-0.0260399
-0.038576
0.00337194
-0.0179255
0.00321658
-0.0303895
-0.0185307
0.00320835
-0.00375541
-0.0229006
-0.0338688
0.00458495
-0.0222247
0.00304507
0.00394067
-0.0316086
0.00263166
0.00755791
-0.03089
-0.028533
0.002484
0.00840763
-0.0124326
-0.0372536
0.00461409
-0.0292385
0.00303687
0.0111758
-0.00214767
0.00450703
-0.0154872
0.00108206
-0.0235349
0.00450526
0.00325445
0.00389008
-0.000468699
0.00741024
-0.0829151
-0.00581016
-0.00767872
0.00571207
0.00862287
-0.0427152
-0.0247559
0.000847467
-0.000328075
0.00640769
-0.0130129
-0.0356094
-0.00106158
0.000767572
-0.00907285
0.00270101
0.00519549
-0.0182704
-0.00124883
-0.00298014
0.00372515
0.00495379
-0.0257792
0.00240937
0.00403761
-0.0281729
-0.0244645
-0.0195208
-0.0197585
-0.0227586
-0.00414666
-0.0778965
0.00636409
-0.0332588
0.00425085
0.00731689
-0.0236492
0.014328
-0.00167268
-0.0303778
-0.0175467
-0.0230499
0.00293976
-0.0362983
0.00391668
-0.0353132
0.0029803
0.00697836
-0.0247756
0.000301467
0.00310512
0.00289588
-0.0819874
0.00650102
0.00624882
-0.0142972
0.00291966
0.00970349
0.00257905
0.00423725
0.00448825
0.00442027
-0.0288445
0.0039565
-0.0256315
-0.0307245
0.00679742
-0.0333333
-0.0853088
0.00332445
-0.0304129
0.00442607
0.00278579
-0.031983
-0.0306527
0.00611337
0.00436488
-0.0338664
0.00366142
-0.0279957
0.00374052
0.00106968
0.00576859
0.00274815
-0.0145142
0.00732164
-0.00623858
-0.00335086
0.00401356
-0.0221605
-0.0871192
-0.00694293
-0.000560037
0.00461655
-0.00481194
0.0126266
0.00308398
-0.0322496
0.00030657
-0.0165597
-0.0669226
0.00558813
-0.0223186
0.00640282
0.00414748
-0.00349609
0.00478328
0.0072306
-0.00100438
0.00867061
0.00478854
0.00397957
0.00409752
-0.0367159
0.00353592
0.00391646
-0.0118631
0.00458271
-0.00702703
0.00560103
0.00613782
-0.00408968
-0.023126
0.00355757
-0.023529
-0.0387719
-0.0065425
0.00194825
0.0043328
-0.0134958
-0.0133473
-0.0411926
-0.0225985
0.00119915
0.00430843
-0.0817815
0.00170094
-0.040139
-0.0236116
0.00459757
-0.00422101
-0.0255502
-0.00672079
0.000856115
-0.0148747
-0.0416018
0.00246989
0.00630288
0.00430271
0.0136504
-0.0359561
0.00598754
0.00110727
0.00301616
-0.032145
-0.031184
-0.0264377
0.00722773
0.00463319
0.0076335
-0.0266897
0.00519086
0.00468095
-0.0230939
0.00427211
0.000564043
-0.00408596
0.0105432
-0.0593221
-0.0232445
0.00463627
-0.0738212
-0.0233004
0.00313071
-0.0323171
-0.0245191
0.00534965
-0.0413152
-0.0679766
-0.019802
-0.00237731
-0.00637607
0.00583684
0.00469018
-0.029962
0.00322791
0.0120301
-0.000353782
0.00745655
-0.0121857
-0.0295182
-0.0139874
-0.000308449
0.00552195
-0.059033
-0.0297993
-0.0163315
0.00332439
-0.036099
0.00553647
0.00344846
-0.0325923
0.00353018
0.00371563
-0.060551
0.00344246
-0.022603
-0.0343538
-0.030131
-0.0416297
-0.0859586
-0.0527157
-0.0678384
0.0036745
-0.0270824
-0.00712825
-0.0331127
0.000380813
-0.0254478
0.00373368
-0.00247124
-0.0698261
-0.0897803
0.00724867
-0.00397019
-0.0344832
0.00459849
0.00238201
-0.000756543
-0.0046472
-0.033839
-0.004536
-0.00414912
0.00394694
-0.0409094
-0.0168997
-0.0357094
-0.0108301
0.00406237
0.00460025
-0.0382928
-0.0172421
-0.0117849
0.00412037
-0.00686026
-0.000512677
0.000289941
-0.0209621
0.0210286
-0.000813767
-0.0416052
0.0046227
0.00460928
-0.00189546
-0.0540689
-0.0226717
-0.0838328
-0.0131697
0.00657604
-0.0249408
0.00447511
0.00556835
0.00335016
0.00345578
-0.00697342
0.00422136
0.000192089
0.00464124
0.00479048
-0.0639332
-0.0173778
-0.0842101
-0.0364092
0.00347265
0.00320837
0.00315528
0.00454963
0.00628624
-0.034224
0.00742254
-0.0213186
0.00286277
0.00506126
-0.0159559
-0.0119652
-0.0309161
-0.00786427
-0.0274851
-0.0322211
-0.00837241
0.00262664
-0.0293389
-0.0152176
-0.0590907
-0.0122378
-0.0139438
0.0105582
0.0033732
0.00453519
-0.000878941
0.0154786
-0.0129503
0.00525758
0.00318886
0.00391211
-0.00689494
0.00372663
0.00454607
-0.0163585
0.00391444
0.00353315
0.00557119
-0.0071032
-0.00732388
-0.0238931
0.0028087
0.005277
0.00340669
-0.0193364
0.00393324
0.00382179
0.00444929
0.000160338
0.000222287
0.00159373
0.0101646
-0.0616869
-0.0302568
0.00556199
0.00733251
-0.0757585
-0.00852403
0.00464889
-0.0499315
0.00567602
0.00450307
-0.00895943
0.0079086
0.0039163
-0.0137299
0.00265634
0.00483306
-0.0028385
0.000298618
0.00386831
-0.0487007
-0.0215138
0.00376678
-0.00150693
0.00340021
0.0022851
-0.0283372
0.00355353
-0.00660756
-0.00624785
-0.00260316
0.00335957
-0.00183754
0.00393986
-0.011739
-0.0213376
0.00439187
0.00290487
-0.0141786
0.00543767
0.00538349
-0.024047
0.0046942
-0.029611
0.00174637
-0.00361006
0.0137362
0.0033722
0.00543206
0.00439545
-0.0296793
-0.0227487
0.00571386
0.00106149
0.000341127
0.000392693
0.00352031
-0.0280277
-0.0237281
0.00473623
-0.0223392
0.00299966
0.00310655
0.00422261
-0.0687773
-0.0132873
-0.0660541
-0.0197046
0.000777517
-0.0169812
0.000772011
0.00608115
-0.0267623
0.00357727
-0.0275235
0.00421197
0.0064947
-0.0206015
-0.0297145
0.00563336
-0.00485621
0.00650451
-0.0153516
0.00567865
-0.0104549
-0.0249926
-0.00725354
0.00460907
-0.0253836
-0.013225
-0.0113451
0.00477611
-0.0279048
-0.0134831
-0.0516129
0.00228247
0.0051665
0.00229361
-0.00589007
-0.0274193
-0.00235558
0.00588818
0.0011619
0.00290087
0.00399163
0.00388917
-0.0601984
0.0039436
0.00291882
0.00427109
0.00640904
-0.000307094
-0.000674937
0.00269809
0.000204461
-0.0278764
-0.0344075
-0.0229077
-0.0202049
-0.0219826
-0.0313417
0.0056528
-0.0331611
0.00083861
-0.0285223
0.00278665
-0.0158646
-0.0200956
-0.0254504
0.00434264
0.0035046
0.00429891
0.00833293
-0.0518957
-0.0334989
0.00156959
0.00308999
-0.00226322
0.00232829
-0.0287244
-0.0585145
-0.0407861
-0.0792559
-0.0130494
0.0037944
0.000361441
0.00523542
-0.0511318
0.00376228
0.00403729
0.00622082
-0.00709344
-0.0296764
-0.0220045
0.00520178
-0.0321737
-0.00741737
0.00266812
0.00329755
0.00322804
-0.00563716
0.00720033
-0.0245537
0.0031263
-0.0442719
0.00178658
-0.0606994
-0.0315495
-0.0069062
-0.0264176
-0.0203772
-0.0218666
0.0042934
0.00282486
0.0038593
-0.0350338
-0.0457731
0.00432354
0.00448988
0.00023446
-0.0560015
-0.0187731
0.00225044
-0.021437
0.00121501
0.0180751
-0.006144
-0.0193236
-0.014993
-0.0262817
-0.045939
-0.0678118
0.00307302
0.00411348
-0.0287021
-0.00188595
0.00408847
0.00424626
0.00390825
-0.000672038
-0.0461728
-0.0601905
-0.0637398
-0.0228747
0.00824148
-0.0219961
-0.0852906
-0.0282843
-0.0393005
-0.0191223
0.00411925
0.00439532
0.00504817
-0.0220981
0.00459756
0.0043336
-0.0665268
0.00595158
-0.056588
0.00512848
-0.0367714
-0.0137352
-0.0199832
-0.0327617
-0.0554906
0.00656388
0.0045758
-0.0135798
0.00591609
0.0143756
-0.0221374
0.013144
-0.00578513
-0.0383783
0.00454894
-0.00619125
-0.000177228
-0.0284317
-0.0247482
-0.0117016
0.00364841
0.00336331
0.00337656
0.000906698
-0.00817127
-0.0335331
0.00433895
0.00341959
0.000396396
0.00438963
-0.00669742
0.00545511
-0.0341863
0.00454442
-0.0139184
-0.0267866
-0.0387505
-0.0407835
-0.000445107
0.00390309
-0.0202603
-0.0263825
0.00249004
0.00391758
-0.00789344
0.000588034
-0.0013854
-0.0212091
0.00314601
0.00434771
-0.0228401
0.0247864
0.000403248
0.00418057
0.00510476
-0.0347808
0.00122708
-0.0375554
-0.00179802
-0.00836253
-0.00177495
0.00559015
-0.0203434
-0.0323727
0.0175906
0.00388747
-0.0259495
-0.00835737
-0.00451097
0.00578354
0.005752
0.00546742
-0.0131327
-0.0173613
0.00435598
-0.0282371
0.00373341
0.00431963
0.00293173
0.00437351
0.0047717
0.00515234
-0.00491564
0.00251612
0.00332832
0.00455969
-0.0200222
-0.0156062
0.00514188
-0.0047992
0.00289514
0.00968444
-0.0111099
0.00358407
-0.00419465
0.00358097
-0.0323718
0.00549136
-0.00260727
0.00455136
-0.0810262
0.00320497
-0.0285943
-0.0370875
0.00461108
0.00300962
-0.043358
0.00712393
-0.00671226
-0.0190674
-0.00228115
0.00387887
0.00451194
0.00141408
0.00582191
0.00440565
-0.02339
0.0120945
-0.0277534
-0.0162117
0.00529942
0.00328888
0.00495479
-0.00219205
0.00640771
0.000891721
-0.019627
-0.00756118
-0.0418236
-0.00965984
-0.0329991
-0.0218561
-0.0245008
0.0060076
0.00424497
0.00450902
-0.00867156
0.00332262
0.00342871
0.00304615
0.0055619
0.00556443
0.00350524
-0.0439672
-0.0218727
0.00311516
-0.0244257
0.00172817
-0.0402029
-0.0186772
-0.0324543
0.00402632
-0.0236508
-0.00325447
0.00521746
-0.00308331
0.000625062
-0.0559008
0.00380083
-0.0229978
-0.032708
0.0026224
-0.0261683
0.00484165
-0.037579
0.00333013
-0.0349701
0.00204085
0.00348207
-0.0173122
0.0125821
-0.0245676
0.00217918
0.0072718
-0.0290422
0.00705216
-0.0160806
0.00569582
-0.0251552
0.00373547
-0.00258701
-0.0349377
0.000188989
0.00421667
-0.00571624
-0.0209068
0.00746454
0.00171047
-0.0278237
-0.0214511
0.0016336
0.00548435
-0.0092394
0.00613823
0.00915865
-0.00426428
-0.0398898
0.00724544
0.00210901
-0.0401891
-0.00542856
-0.0282545
-0.0198629
0.00529635
0.0042042
0.00668043
-0.00467891
-0.00720795
-0.00935216
0.00533097
-0.00761128
-0.021463
0.00588409
-0.000643681
-0.00417816
0.000763328
-0.0234432
0.00448306
0.00441508
-0.00197306
-0.0254432
-0.00219913
0.0048115
0.00577867
-0.0207199
0.00412771
0.00431791
0.0044539
-0.0170004
-0.0571394
-0.0134533
-0.0272654
0.00245783
0.00332671
0.00318622
0.00515868
0.00397691
0.00395208
0.00448055
0.003448
-0.00218837
-0.0284407
0.00589089
-0.0199915
0.00394013
0.00115254
0.00396109
0.000224393
-0.0294176
0.00665212
0.000828514
0.00352622
0.0038892
0.00361522
-0.0174162
-0.0103071
0.00185291
0.00434565
0.026487
0.00517567
-0.0354849
0.00459923
0.0059515
0.00123468
0.00359563
0.000487125
0.000435046
-0.029238
-0.0312246
0.00419892
-0.0159914
-0.0134285
-0.0261797
-0.00615805
0.00596352
-0.0338616
0.00446189
0.00529927
0.00580256
0.00440517
0.00602546
0.00666897
0.005767
-0.0125801
0.00265846
-0.00385193
0.0003784
0.00716352
0.00354682
-0.0353786
0.0135653
0.00560263
-0.026181
0.00164077
0.00254018
0.000647173
-0.0129823
-0.0334303
0.00433605
-0.0462713
0.00511756
0.00400523
-0.00877401
0.00460457
0.00209827
-0.0109054
-0.00920226
-0.0248139
0.00575514
-0.0414759
0.00591091
-0.0195173
0.00256895
-0.0530482
-0.0012251
0.0036691
0.0042711
-0.0264976
0.00465313
-0.0118938
0.00433226
0.00494486
0.00442752
0.00278166
-0.00274016
-0.0603621
0.00577297
-0.0527219
-0.039961
-0.0198038
0.00292938
0.00209605
-0.025699
-0.0292701
-0.0222987
-0.00638096
0.00376205
0.00439789
-0.0213679
0.00250375
0.00382006
-0.0281985
-0.0164459
-0.0345752
0.003703
-0.058013
0.00575883
-0.0283373
-0.0340936
-0.0203555
0.00418273
-0.0274385
-0.0136797
0.00248675
-0.0564793
-0.0103285
-0.0067357
0.00425358
-0.0520661
0.00259142
-0.0408376
0.00105738
-0.0288229
0.00859024
0.00906198
-0.0271781
0.00589875
-0.025236
-0.0215698
0.00262336
-0.0278802
0.00326374
-0.00705645
0.00256119
-0.0170802
-0.0321861
-0.0452096
0.00249878
-0.0236806
-0.0260867
0.00259093
0.00531675
0.00339979
0.000580954
-0.0296591
-0.0810775
0.0042472
0.00302508
-0.0265889
-0.0231373
0.00183827
0.00370021
-0.0158464
0.00516257
0.0199963
0.00426947
0.00547216
0.00252289
0.00571553
-0.0052166
0.00395728
0.00503521
0.00315175
-0.00324335
-0.0272993
0.00537265
-0.0612558
0.0033455
-0.00632824
-0.0348914
0.00399579
0.00498363
-0.000755791
0.000312637
0.00386528
0.00765195
0.00190565
0.00243497
0.00365852
0.00530472
-0.0201355
0.00317828
0.00345632
0.00517867
-0.00862977
-0.042376
0.00342996
0.00416503
-0.0305086
-0.0329371
0.00340052
-0.0350504
-0.00147091
0.0182315
-0.0274554
-0.0633094
0.00358604
-0.00211378
0.0232548
0.00431205
-0.0387572
0.00129267
-0.0152311
0.00562778
-0.0215329
-0.000196916
0.00448719
-0.0161647
0.00316125
-0.0833621
0.0101962
0.00350811
-0.00325976
0.00335334
0.00344443
-0.00277628
-0.0220471
-0.0246554
0.000305952
0.00546484
-0.0086874
0.00387359
0.00369151
-0.00551441
0.00436898
0.00969713
0.0246817
0.00569523
0.00478367
0.00455962
0.00243729
-0.00800017
0.00434365
-0.0212607
0.00576503
-0.02721
-0.0399231
-0.0260342
0.00433384
0.00350025
-0.0518464
0.00100482
0.00108944
-0.0603018
-0.0811909
-0.00911854
-0.00472545
0.00422736
2.04843e-05
0.00258467
-0.0239479
0.00481147
-0.0276502
-0.0315567
-0.0256181
0.00373165
-0.0573201
-0.0808226
0.00463523
-0.0139375
0.00373661
0.0057224
0.00247186
0.00436676
0.0033433
-0.0243901
-0.00517456
-0.00223339
0.00766856
0.00410334
-0.0618541
0.00350117
0.00464864
0.00249211
-0.00704518
0.00809999
-0.00694189
0.00562957
0.00097612
-0.0270031
0.00326207
-0.0027924
0.00564334
-2.09709e-05
0.0211041
0.00655453
0.00517672
0.00638402
-0.0568135
-0.02646
0.00464064
0.000380457
0.00262358
0.00352587
-0.00607439
0.00428439
0.00464541
0.00228557
0.000590455
-0.0123376
-0.0224203
0.00220263
0.00927519
0.00538357
-0.0004725
-0.00855337
-0.0271529
0.00515273
5.43565e-05
-0.0300245
0.00231094
-0.0309844
0.0188332
0.0110611
-0.0353109
-0.0236129
-0.00620988
-0.0303699
-0.00942577
-0.0310213
-0.0231001
-0.0560699
0.00545341
0.00251658
9.11908e-05
-0.00360896
0.00286235
-0.02256
-0.0289801
0.00778176
0.00907845
-0.000168668
0.00278494
-0.00976007
0.00403627
0.000756862
0.00244866
-0.00765261
0.00303981
-0.0179838
0.00223616
0.00431432
-0.00540754
0.004476
-0.0220654
-0.00436601
0.00570604
0.00246659
-0.00500641
0.000728811
-0.000710849
0.00563316
0.00248547
-0.0100819
0.0038377
-0.0231151
-0.0110987
-0.0526215
0.00575671
-0.0345582
0.00428892
-0.0255599
0.00453755
0.00794595
0.00401382
0.0025471
0.00249709
0.00656458
0.00468856
-0.00445027
-0.0824345
-0.0345585
-0.0559124
-0.021305
-0.0246642
-0.0461876
0.00119562
-0.00506693
-0.00632449
-0.0545968
0.00241385
0.00125334
0.00498427
-0.00133388
0.000829438
-0.0291526
-0.0299981
-0.0210041
-0.042209
0.00700099
-0.0170234
-0.0253337
-0.0394912
-0.00853507
0.00394902
-0.0376834
0.00110359
-0.00816786
0.00251211
0.00173606
0.00124076
0.00322678
-0.0257071
0.00504611
0.0124554
-0.0126533
0.0219793
0.00193662
-0.0165525
-0.0215475
-0.0601681
-0.0684071
-0.0196906
0.00104889
-0.025496
0.00265685
0.00246292
0.00732732
0.00479153
-0.0275493
-0.0221232
-0.00315243
-0.0266549
-0.0478591
0.00400348
0.00500554
-0.0131303
-0.0784355
-0.0189692
0.00287941
0.00201487
-0.0608606
0.00605865
0.00982033
0.00329208
-0.0278395
0.00221523
-0.0315321
0.00603314
-0.000307595
0.0045738
0.00305172
-0.0150967
-0.0124956
-0.0220647
0.00324715
0.00407865
-0.0235678
-0.0128925
-0.0256348
0.0054621
-0.00639456
0.00247829
-0.0534498
0.00913762
-0.0247083
-0.00123617
-0.0283748
-0.0469654
-0.00966
-0.00894745
-0.0919032
0.00248491
0.00362683
0.0119872
-0.0295757
0.00417814
0.00508572
-0.0178433
-0.0230591
0.00393893
0.00125904
0.00102739
0.00318271
-0.0329292
0.0024454
-0.0629937
0.0104478
0.00437594
-0.00299631
0.00508631
0.00377042
0.00423174
0.00465152
-0.0225197
0.00425742
-0.00756795
-0.0249602
-0.0493837
0.000213383
0.00205806
0.00432891
0.00378305
0.00517668
0.00419493
0.00524739
0.00424219
-0.00352732
-0.0735789
-0.0800385
-0.0269332
-0.0644835
0.019763
0.00771482
0.00592039
-0.0149291
0.00246719
0.00427409
-0.0154034
-0.000515009
-0.0470117
0.0035091
0.0171139
-0.0215989
0.00587312
-0.0520751
-0.0141541
-0.0499745
-0.0255614
0.00308585
0.00340363
-0.0165981
0.00511389
-0.00476522
0.00197243
-0.0262018
0.00527846
-0.019387
0.0033613
-0.045889
0.00390017
-0.031915
0.00289356
-0.000137652
-0.0338996
-0.0233628
0.00413584
-0.000247902
0.00223747
-0.0396419
-0.0353119
0.00422138
0.00317792
0.00093607
-0.0259561
0.012971
-0.024956
-0.0658564
-0.00998969
-0.0157951
0.000784892
0.00546393
-0.00676018
0.00112021
0.00508495
0.0027266
4.97443e-05
0.00376822
0.00467036
-0.0472406
-0.00383372
0.00421322
-0.0382173
0.00754353
-0.00454997
-0.00500635
-0.00934078
0.00398919
0.00549884
-0.0298057
-0.00883062
-0.0529829
-0.00460376
0.00210466
-0.015942
-0.0460054
0.00422315
0.00427444
-0.0370305
-0.0246368
0.00435238
-0.0583691
-0.0303737
0.00783
-0.00742068
-0.00490657
0.00711558
0.000296926
0.0042889
0.00106292
-0.0118516
-0.0246036
0.0128655
0.00566756
-0.0640777
-0.0641368
0.00410268
0.00430885
-0.0174684
0.000545993
-0.0141579
-0.0258579
-0.017576
0.00335316
-0.0252726
0.00295938
0.00550924
-0.0524796
-0.013979
0.0107504
0.000632963
-0.00114467
-0.0123626
-0.0238228
-0.0187695
-0.00490832
-0.0688664
-0.00110019
-0.000222971
-0.0650103
-0.0246174
0.00280003
-0.00592498
-0.018065
-0.0359358
0.00415515
-0.0228698
-0.0166844
-0.0110738
-0.00197575
-0.00612412
0.00486071
0.00409534
0.00383873
-0.0529143
-0.0279757
-0.00457253
-0.0249019
-0.0033101
-0.0277296
0.00282411
0.00409894
-0.00781543
0.0162672
-0.00203572
0.00442422
-0.00503425
-0.00795072
0.00421847
-0.0107549
-0.0282104
0.00596978
0.00619791
-0.0544286
0.0030375
-0.00082571
-0.0226519
-0.00493052
-0.00199741
0.000792076
-0.0107883
-0.0249301
-0.00303706
-0.0174265
-0.0164376
0.00268127
0.00382571
0.00143121
0.00545541
-0.0461372
-0.00760639
-0.0277306
-0.0112852
0.00527774
-0.020957
-0.00288562
-0.0128912
-0.00581849
0.00426646
0.00222725
0.000229023
-0.0340453
0.00309256
-0.0145879
0.00423731
0.00709002
-0.0155315
0.00513561
-0.00253301
-0.0223127
0.00563567
-0.0185237
0.00503489
0.00310541
-0.00247262
-0.0246244
0.00407931
-0.0226406
-0.0205742
0.00799446
-0.0549535
0.00689162
-0.0385569
0.00436071
-0.00225067
0.00364569
-0.000461843
0.00986582
0.0047659
0.00498234
0.00511717
-0.00618365
-0.0083221
-0.0387214
-0.00844018
0.00529212
-0.0524124
-0.034649
0.0234495
0.0214213
0.0169282
0.00358563
-0.0535082
0.00531774
0.00644436
-0.0334076
0.003686
-0.00247289
0.00689064
-0.013575
-0.00805612
-0.0250236
0.00406352
0.00622972
0.00448854
0.0123698
-0.0340667
-0.00307011
-0.000743175
0.00559592
0.0077967
-0.0126828
0.004202
-0.0300085
-0.0831988
0.00671577
-0.0125636
-0.0121967
-0.0328285
-0.0393505
-0.00771397
0.00560027
0.00517472
0.00566487
0.00365574
-0.0470417
-0.0220653
0.00497615
-0.0137305
0.00229849
0.00485131
0.00227518
0.0035102
0.00427503
-0.0222181
-0.00511252
-0.0058772
0.00499332
-0.00903766
0.00366238
0.00445698
0.00515648
0.00497131
0.00329053
0.00498361
-0.0486644
0.00501629
-0.00941042
0.00648011
-0.0267668
0.00692372
0.0045888
-0.0167168
-0.0013264
-0.00233819
-0.061701
0.000429353
-0.00963542
0.00478047
-0.00115828
-0.0244921
0.00411146
0.00299245
-0.00108352
-0.0239424
0.00323122
0.00342986
0.00459474
-0.0284077
0.00240001
0.00570985
0.0103002
-0.0165334
0.00424463
-0.000387767
-0.00861453
0.00213037
-0.0508873
-0.0105504
0.00925112
-0.0254162
-0.0670061
-0.0475276
-0.00541193
0.00028135
-0.00202142
0.00251281
-0.0449476
-0.0546118
-0.00442105
0.00504861
-0.0014113
-0.0109315
-0.00794208
0.00325736
-0.00203342
0.00462273
-0.0208349
-0.035791
-0.00942037
-0.0392657
-0.000894569
-0.0267762
-0.021215
-0.031006
0.00263925
-0.00545497
0.00696371
-0.0154346
-0.0105897
-0.0240154
0.00533734
-0.0157175
-0.00134898
-0.00525336
-0.0225307
-0.000848964
0.0143226
0.0067014
0.0043487
-0.0458954
-0.0099332
-0.025925
0.0036344
-0.0295659
-0.0271825
0.00547924
0.00490184
-0.0535267
-0.0153482
-0.00741801
0.00717015
-0.0149211
0.00459284
-0.0398442
0.000997254
-0.0164404
-0.0693478
-0.0716162
-0.0344017
-0.0611478
0.00443691
-0.00910464
0.00375556
-0.00819704
-0.00151573
-0.0127816
0.00246496
-0.0221606
0.00239617
-0.00371093
-0.0244799
-0.0201687
-0.0502924
0.0068368
0.0131607
-0.0444188
0.00500005
0.00401732
0.00317253
0.00532405
-0.0455771
-0.00293956
0.00224691
-0.0575334
-0.00160485
-0.058613
-0.0479514
0.00408309
0.00385813
0.000400006
-0.019474
-0.0413026
0.00762768
0.00499609
0.0050418
0.00376711
-0.0264388
-0.0214453
-0.0399211
0.00418326
0.00691665
0.00421731
-0.0424029
-0.066508
-0.024127
-0.000103926
-0.0215992
0.000885776
0.00524122
0.00692079
-0.0271286
-0.00294821
-0.0210226
-0.0191904
0.00441847
-0.0502593
0.00680913
-0.00414645
0.00348823
0.00466385
0.00452632
0.00536947
0.00250201
-0.000430204
0.00407986
-0.0155032
0.00532622
0.000988626
0.00261566
-0.0326442
-0.0110054
0.00444253
-0.00717145
-0.0271427
-0.0402956
0.00441485
0.0039605
0.00506079
0.00229653
0.00367309
-0.00205786
-0.0207229
-0.0317579
0.00417486
0.00251676
0.00289038
-0.012742
0.00561234
-0.00666582
0.0043316
-0.0358732
0.00122357
0.00548615
-0.0466831
-0.0784104
-0.0255361
0.00031872
0.00349455
-0.00753767
-0.0545443
0.00520771
-0.00211781
-0.0153987
0.00629604
-0.0602385
0.00542171
0.00481987
0.00436077
0.00603865
-0.000728079
0.00411818
0.00403704
-0.0103358
0.0136149
-0.0414213
0.00383657
-0.0200584
0.00439887
0.00692616
0.00325592
-0.0376044
0.00468211
-0.014359
-0.0167511
-0.00165047
-0.0157569
-0.0254065
-0.00514482
-0.0661679
-0.00265104
-0.0293251
-0.00408494
-0.0159301
-0.0293174
-0.0122301
-0.0273958
0.00455835
0.00434146
0.00568513
-0.0190416
-0.0142413
-0.0260566
0.0054693
0.00495039
0.00349984
0.00425488
0.00229266
-0.0285094
-0.0416811
-0.0289546
-0.00456998
-0.0301488
-0.0587333
0.00380936
0.0129844
-0.0190058
-0.0510366
-0.00946662
-0.025349
-0.0301901
-0.00542387
0.00397578
0.00553632
0.00421909
-0.00517439
-0.083962
-0.0195272
-0.0399042
0.000199582
0.00512369
0.00371337
0.0152078
0.00329525
-0.01252
0.00464909
0.00196903
-0.0192748
-0.0510546
-0.0499345
0.00327402
-0.0307506
0.00559941
0.00498804
-0.0219374
-0.0125688
-0.0160882
-0.0245927
0.00187582
-0.0161354
0.00451826
0.00419789
-0.0108956
0.00239385
-0.0318023
-0.0543747
-0.0197773
0.00421235
0.00315857
0.00137869
0.00194612
-0.00565688
0.00419534
0.00716379
-0.026198
-0.0415908
0.00533364
-0.0141641
-0.0192051
-0.0584867
-0.0196003
-0.0173794
0.00425163
-0.00137029
0.00958184
-0.0461855
-0.0153255
0.00420451
0.00294113
-0.00948454
-0.0248677
0.00551571
-0.0259921
-0.00161022
0.00203921
-0.0217111
-0.0664655
-0.00239831
-0.000892124
-0.0370674
-0.0361088
-0.0311805
-0.0184832
-0.0224841
-0.00455158
0.00661807
0.00309343
-0.0413553
-0.0277164
0.00239423
-0.00501016
0.000227905
-0.0370519
-0.017404
0.00115661
0.00551204
0.00370345
-0.0296231
0.00495789
-0.0262571
-0.0485819
-0.0261957
-0.0481292
0.0082265
0.000567078
-0.0810925
0.00426477
0.000965696
0.00198627
-0.0227121
-0.0413838
-0.0284339
-0.0295593
-0.0456383
-0.0234267
0.00362279
-0.004669
0.00533131
-0.0263052
-0.0606588
-0.00403049
-0.0592921
0.00285754
-0.0226088
0.000119463
-0.00710252
-0.0509218
0.00498178
-0.000941564
-0.0414515
-0.0155747
-0.0101968
-0.00258975
-0.0129255
-0.0226483
-0.0141895
0.00233059
0.0053357
-0.0257673
-0.00757653
-0.0348231
0.00382735
-0.00725273
-0.0262009
0.00463019
-0.00536556
-0.0832025
0.00779255
0.00417877
0.000456863
0.00409131
-0.0713237
0.00236131
0.0107665
0.00252542
-0.00989425
-0.0101245
-0.0377056
0.0028999
0.00536083
0.00212701
0.0019628
-0.0215862
6.33532e-05
0.00335878
0.00135375
-0.0187283
-0.00218035
-0.00491086
-0.00566454
-0.045579
0.00412018
0.0098059
-0.0291709
0.00701554
0.00292469
0.00746571
0.00128981
-0.0191442
-0.08301
-0.0484923
-0.0286993
-0.039596
0.000615076
-0.0842122
0.00497109
-0.0120384
0.0048115
-0.0343557
0.00506638
-0.034251
0.00626892
-0.0291025
0.00291756
-0.026705
0.024444
-0.0428038
-0.00160397
-0.0257091
0.00845203
-0.0553783
-0.0225003
-0.0217316
0.000126298
0.00435112
-0.0145239
-0.0347614
-0.0581039
-5.74623e-06
-0.0122459
-0.0147669
-0.020783
0.00595318
-0.0118094
0.00408464
-0.0583603
-0.00446586
0.00449849
-0.00329971
-0.0165594
-0.0195909
0.00342028
-0.0469476
-0.0447315
0.00505114
0.00486688
0.0070805
0.00604402
-0.0277316
0.00383674
-0.0288057
0.00747869
0.00405246
-0.0134186
-0.0338561
-0.0260615
0.000106558
0.00300751
-0.0252863
0.00455592
0.00456271
-0.0282467
-0.0589443
0.00285622
-0.0289201
0.00249606
-0.0569817
-0.00821908
-0.039257
0.00493575
0.00240492
-0.0450868
-0.0212419
0.0060067
-0.0304812
-0.0373752
-0.0533282
-0.00675513
-0.0839859
-0.0321205
0.00695175
-0.00402044
0.00533167
0.00328153
0.00276606
-0.0839779
-0.0508533
-0.0152694
0.00160544
-0.0405286
-0.0214838
-0.00080172
0.00371403
0.00532943
-0.0230998
0.00607626
-0.00755168
-0.0435162
-0.00816114
0.00137987
0.00477799
-0.0207576
-0.0234447
-0.0178813
-0.011161
-0.0689955
0.0193405
-0.00932684
0.00531655
-0.0127112
0.00248321
-0.0795184
0.00263044
-0.0845044
0.00460578
0.00351577
-0.0379486
0.00400333
-0.00454516
-0.0310381
-0.006761
0.00536585
0.0046314
-0.0607674
-0.00225848
0.00297949
0.00488237
0.00818256
-0.000654057
0.00117361
0.00511167
0.00262519
-0.023686
-0.0514817
-0.00131538
-0.0420797
0.00475154
0.00273093
-0.0074114
0.0193652
0.00395592
0.00501778
-0.0048073
0.00538981
-0.0239905
-0.0182966
0.00494955
0.00381586
-0.0353949
-0.0494452
0.0046898
0.00510687
0.00161821
-0.0271315
0.00744933
0.00197666
-0.0580909
-0.0372496
0.00611586
-0.0107069
0.00533846
-0.00485393
0.00422473
0.00477055
0.00460342
0.00403552
0.00423641
0.00313754
-4.88863e-05
0.00296762
-0.0025341
0.00460828
0.00517299
0.00187165
0.0101072
-0.0277217
0.00606481
-0.0276713
-0.00123192
0.00322949
-0.00481943
8.43329e-05
-0.0049198
-0.0300683
0.00246409
0.00219109
0.00445277
0.00840399
-0.00183388
0.0102268
-0.0586582
-0.0307433
-0.0452104
0.00397527
-0.0254156
-0.0569209
-0.0249392
-0.0255452
-0.0334
0.00709033
-0.00538354
-0.0326847
-0.00444644
-0.00677702
0.0025083
0.00506435
0.00272422
0.00499686
-0.0585685
-0.0232561
-0.00653101
0.00483964
-0.0260012
0.00452079
0.00213533
0.00437257
0.00470177
-0.00417343
-0.00037226
-0.000665219
-0.0221735
-0.0316724
0.00453954
-0.0675158
-0.0289768
0.00541276
0.00498347
-0.0307563
-0.0295221
0.00260083
0.00396027
-0.0580879
0.00111713
0.00111862
-0.0295599
0.000110748
0.00568768
0.00419633
-0.00217458
0.00613846
-0.0612054
-0.00276019
0.00426715
0.00157938
0.00559932
0.000948201
0.00563145
0.00225721
0.00393572
-0.0569245
-0.0359984
-0.000954696
0.00804757
-0.0333707
-0.00979408
-0.0385871
-0.0167916
0.00427536
0.00458232
0.00472168
0.00312343
-0.00306614
0.0179058
0.000258797
-0.031843
-0.0833953
0.00565743
-0.026064
0.00331756
-0.0158082
-0.0153265
-0.008169
-0.00363844
0.00679861
-0.00108219
-0.0310077
-0.0029146
-0.0111093
-0.0353997
-0.0504207
-0.0251567
-0.0036344
0.0049779
-0.0509594
-0.0279416
-0.0294103
0.00130733
0.0055187
0.00464186
-0.0775589
0.0239019
0.0019451
-0.0217859
-0.0219312
-0.0519196
0.00214481
0.0039854
0.0132594
0.00497403
0.00433799
0.00301707
-0.012181
-0.0242313
0.0045969
-0.010735
0.00512983
-0.0165968
-0.0630405
-0.0260058
-0.0568205
-0.00650348
-0.0412169
-0.0850109
0.0040516
0.00717896
0.000204704
-0.0118588
0.00327842
-0.0148924
0.00642601
-0.0151225
-0.0251988
-0.0131725
0.00785485
0.00738953
0.00511005
-0.05482
-0.0505355
0.00320265
-0.0576215
-0.0140706
0.00198221
0.00571027
-0.0348132
0.00451181
0.00203928
0.00347449
0.00375709
-0.0820956
0.00995595
0.00205857
-0.0107403
0.00569327
-0.0339586
-0.0172855
-0.0226132
-0.0279031
-0.0241868
-0.0254362
-0.0281429
-0.053943
-0.0205554
-0.0264115
-0.0312272
-0.0482067
0.00198594
-0.0216508
0.0048706
-0.0258031
0.00240737
-0.0437805
-0.060823
-0.000976558
0.00647691
0.00600114
-0.0351854
-0.00415789
-0.0833995
0.00284955
0.00213441
0.00329475
-0.0270627
0.00470276
-0.0248982
-0.061283
0.00357779
0.00403471
-0.00957729
-0.026112
-0.0406093
0.00236055
0.00500341
0.00416735
-0.0123865
0.00437537
-0.0623527
-0.0360906
0.00397621
0.00422187
0.00398547
0.00379682
-0.0150743
0.00182002
0.00396527
-0.0341854
0.00316349
0.0048803
0.00288966
-0.0634692
-0.0106302
0.00468228
-0.0253336
-0.0561158
0.00678872
-0.0308726
-0.0494978
-0.0502215
-0.0179461
0.00027009
0.000683853
-0.0559449
0.0100287
0.00151695
-0.000280385
-0.0603233
-0.0213474
-0.000569759
0.0107685
0.00227765
0.00257943
-0.00676272
0.0040045
-0.059599
0.00130542
-0.0255282
-0.0244644
0.000239092
0.00213889
-0.00686826
-0.00950716
-0.0363387
-0.0778355
-0.0826936
-0.00699328
-0.00433399
-0.00417013
0.00335371
-0.0738691
-0.00265882
0.00417243
0.00840875
0.0016632
-0.0243036
-0.0310879
-0.0765847
0.00315377
-0.024416
-0.0222638
0.0213071
-0.0522725
-0.0548433
-6.80628e-05
0.00559538
-0.0252913
0.00738117
-0.00477568
-0.0451211
0.00373805
-0.0131012
-0.0479636
0.00417432
-0.00828515
-0.0485297
-0.0300367
-0.0120668
-0.0120191
0.0089336
-0.0221688
0.00310272
0.00449224
-0.0536934
-0.010552
-0.0312291
-0.0263627
-0.0256604
0.00332141
0.00412521
0.00385235
-0.0293447
0.000161141
0.0033165
0.0032331
-0.0565389
-0.00243786
0.00572881
-0.00248278
0.00472649
-0.0827572
-0.00143738
0.00414988
0.00131358
-0.0787255
-0.00881508
-0.0319046
-0.0113039
-0.0275377
-0.0292728
0.00441354
-0.0505771
0.0125883
0.00450035
-0.0237116
0.00671109
-0.0427888
0.0045286
0.00517495
0.00416825
0.00334708
-0.0500588
0.00481626
0.00355744
-0.0372105
0.00463308
0.0020472
-0.00930432
0.00281014
-0.0619492
0.00441391
0.00329989
-0.0318791
0.00314205
-0.0197891
0.0046585
-0.03079
-0.0330836
-0.0526161
-0.034038
-0.0252572
0.00424731
0.00124887
-0.0336308
-0.0268831
-0.00598124
0.000871628
-0.0278946
-0.0449384
0.00389239
-0.0584382
-0.0439877
-0.0521502
-0.0480069
-0.0207911
-0.0347127
-0.0318387
-0.0082308
-0.0242089
-0.00379937
-0.0333993
-0.021711
-0.0267814
-0.0103726
0.00365239
0.00474302
-0.0419635
0.0044769
-0.0690775
0.00302373
-0.0455083
-0.0161192
0.00460799
0.00320379
-0.0618036
-0.0601438
-0.0273493
0.00545664
0.00410178
-0.0265313
0.00363739
0.00155051
-0.0121689
-0.0553725
-0.0260054
0.00406304
0.00247121
-0.0696425
-0.00558297
-0.0384672
0.0043165
-0.0040294
-0.0717821
-0.0131291
-0.0527359
0.0046887
-0.0556393
0.0055867
-0.0268279
0.00371356
0.00121484
-0.0210723
0.00535206
0.00798026
0.00393183
-0.0453412
-0.0278062
0.00274675
0.00334917
0.00109081
-0.0147847