/*--------------------------------*- C++ -*----------------------------------*\
| =========                 |                                                 |
| \\      /  F ield         | OpenFOAM: The Open Source CFD Toolbox           |
|  \\    /   O peration     | Version:  v2012                                 |
|   \\  /    A nd           | Website:  www.openfoam.com                      |
|    \\/     M anipulation  |                                                 |
\*---------------------------------------------------------------------------*/
FoamFile
{
    version     2.0;
    format      ascii;
    class       surfaceScalarField;
    location    "100";
    object      phi;
}
// * * * * * * * * * * * * * * * * * * * * * * * * * * * * * * * * * * * * * //

dimensions      [0 3 -1 0 0 0 0];
oriented        oriented;


internalField   nonuniform List<scalar> 
22766
(
0.0431191
-0.00495891
-0.0381601
0.0791812
0.00452439
-0.0837056
0.214316
-0.0673969
-0.146919
0.691854
-0.341873
-0.349981
0.0426702
0.101778
-0.144448
0.506445
-0.441635
-0.064809
-0.0443726
-0.0648615
0.109234
-0.645
0.544164
0.100836
-0.526391
0.638006
-0.111615
0.412229
-0.24339
-0.168839
-0.0285843
0.206823
-0.178238
-0.0777466
0.576471
-0.498724
0.0526899
-0.281513
0.228823
-0.203435
0.0363482
0.167087
0.150008
-0.137493
-0.0125141
0.116638
0.467948
-0.584586
-0.0635411
0.0995844
-0.0360433
0.128603
-0.0194299
-0.109173
0.0426802
0.399325
-0.442005
-0.00512334
-0.130474
0.135597
0.122961
-0.649353
-0.0380604
0.0667888
-0.0287284
-0.0878441
-0.0534487
0.141293
-0.494104
0.617065
0.0989318
0.115384
0.0304117
-0.0427381
0.0123264
-0.0606087
-0.0298359
0.0904446
-0.58979
0.445591
0.144199
0.134316
-0.148115
0.0137987
-0.144663
-0.352085
0.496748
0.605964
-0.460098
-0.145866
-0.0253676
0.110288
-0.0849205
0.466236
0.150821
-0.617056
-0.149619
0.387815
-0.238196
-0.116867
0.0914992
-0.0471464
-0.0500545
0.0972009
0.185223
0.227006
0.0105876
0.306321
-0.316909
-0.19059
-0.0128458
0.0246281
0.103975
0.585353
-0.492715
-0.0926383
-0.0423529
-0.0285481
0.070901
0.714022
-0.600988
-0.113034
-0.289237
0.0681902
0.221047
0.0718945
-0.493877
0.421983
0.61659
-0.494154
-0.122437
0.178332
-0.0354519
-0.142881
-0.118722
-0.458437
0.577159
-0.133792
0.143348
-0.00955609
0.477676
-0.641867
0.16419
-0.556939
0.0628357
-0.650971
0.517454
0.133516
0.284277
-0.287715
0.00343852
-0.175072
-0.27169
0.446762
0.00673572
0.0073251
-0.0140608
-0.404435
0.47633
0.217347
-0.10168
-0.115667
-0.394976
-0.105557
0.500533
0.331826
-0.321238
-0.0253331
0.0253331
-0.0159741
0.0951553
0.102096
0.477558
-0.579654
0.284622
-0.000344871
-0.366879
0.409662
-0.0427835
-0.128946
0.171616
-0.0500267
0.0495558
0.000470879
-0.0925119
-0.401365
0.404541
-0.151105
-0.253436
0.203793
-0.222851
0.0190574
-0.516898
0.699175
-0.182277
0.422316
0.0358107
-0.458127
0.0609067
-0.148751
0.304691
-0.120716
-0.183975
-0.50034
0.407828
-0.100091
-0.226919
0.32701
-0.221095
0.00834096
0.212754
-0.0925331
0.0289921
0.561539
-0.0953035
0.473558
0.131795
-0.605353
0.0561393
-0.103286
-0.0538547
0.0415459
0.0123088
0.0235838
-0.135166
0.111582
-0.0936495
0.117233
0.11627
-0.089436
-0.026834
0.204798
-0.00216366
-0.202634
-0.0324222
0.0391579
-0.0603245
-0.306554
0.0337055
-0.0943142
0.429607
0.0768377
-0.476404
0.301333
0.035221
-0.0302888
-0.00493212
0.270719
-0.218029
-0.140325
-0.360014
0.0742694
-0.0530289
-0.0212405
-0.137019
0.131895
0.0886777
0.0275923
-0.530657
0.652
-0.121343
-0.0432744
-0.00675233
0.146486
0.459478
0.0454749
-0.0398386
-0.00563625
-0.658585
0.127927
-0.215616
0.342137
-0.126521
-0.0735209
0.0966674
-0.0231464
0.626123
-0.509485
0.593341
0.00372531
-0.597066
0.51891
0.13309
0.0108234
-0.00705964
-0.00376379
0.320413
0.0990355
-0.419448
0.593355
-0.300159
-0.293196
-0.1062
-0.0857025
0.191903
0.589511
-0.589511
0.0630902
-0.294554
0.231464
-0.490117
0.345454
-0.562248
0.0105853
0.551663
-0.132834
-0.429414
-0.424958
0.584057
-0.159099
-0.0116414
0.121307
-0.109666
0.618728
-0.145171
0.0663155
-0.0764569
0.0101415
0.0360007
-0.0305591
-0.00544156
-0.376342
0.160726
0.105248
0.00436413
-0.109612
0.00477018
-0.00204951
-0.00272068
0.358507
-0.315827
-0.087238
-0.0296288
0.596724
-0.186961
-0.409762
0.0963568
0.350707
-0.447063
0.0269037
-0.0649641
-0.127014
0.0397759
0.216238
0.377117
-0.621034
0.491895
0.12914
0.102634
0.00261424
0.0193559
0.383076
-0.402432
0.0420164
0.00110265
0.0768858
-0.509748
0.432862
0.373952
-0.514277
0.0451666
0.334489
-0.379656
-0.633702
0.116804
0.0650358
-0.171236
0.131333
-0.280952
-0.195158
0.247154
-0.0519952
0.000402751
0.117926
-0.118329
-0.728385
0.547506
0.180879
0.0395805
-0.00916877
0.00137548
0.0033947
0.0916715
-0.250841
0.15917
-0.0539155
-0.167179
0.179047
0.303764
-0.482811
0.326291
-0.113016
-0.213276
0.0541354
-0.283418
0.229283
0.0988573
0.494483
-0.103802
0.0940223
0.00977966
0.541814
-0.105221
-0.436593
0.129949
0.036062
-0.166011
0.00115999
-0.0634735
0.0623135
-0.383096
-0.0297212
0.412817
0.123187
-0.100627
-0.0225606
0.449107
-0.128694
0.616987
-0.494286
-0.122701
-0.0309678
0.235765
-0.435654
0.54885
-0.113196
0.12876
-0.497704
0.368944
0.124551
0.18014
-0.127407
0.331059
-0.203652
-0.29755
0.476597
0.267762
0.424093
0.448016
-0.596039
0.148023
-0.0768982
-0.666829
0.281724
0.385104
0.447874
-0.525621
0.0280207
-0.187879
0.159858
-0.269272
-0.142725
0.411997
0.131525
-0.200661
0.0691354
0.0254114
-0.408507
-0.251075
0.330934
-0.079859
0.0474406
-0.207449
0.160008
-0.0233591
-0.0304956
-0.405567
-0.261261
-0.104606
0.100096
0.00450995
-0.0361607
0.0474838
-0.0113231
-0.230943
0.0357844
0.768265
-0.432456
-0.335809
-0.298879
0.62335
-0.324471
0.248931
-0.147152
0.088843
0.160088
0.126841
-0.0714856
-0.0553556
0.0337515
0.423765
0.3445
0.0501618
-0.551685
0.501523
-0.000320988
0.0111444
0.65171
-0.220691
-0.431019
0.0133951
-0.116488
-0.0173041
0.17004
0.415313
0.116165
-0.255357
0.139192
0.06663
-0.000314544
-0.0994175
0.559098
-0.457002
-0.0709141
-0.0803315
0.151246
-0.0593031
-0.0272119
0.086515
-0.106346
0.567499
-0.461153
-0.357875
0.106799
0.622886
-0.484632
-0.138254
-0.220774
0.27491
0.00220051
-0.542187
0.181911
0.360276
-0.198096
0.165028
0.0330682
-0.129474
-0.337451
0.466925
0.0905412
0.0197469
0.0283394
0.013677
0.0284189
0.0711655
-0.460411
0.273734
0.186677
0.244337
0.426471
-0.670808
0.497786
-0.369026
0.0908341
-0.0624152
0.401895
-0.231538
-0.170357
-0.390532
-0.254468
-0.136803
0.100259
0.0365436
0.567494
-0.0233302
0.380023
-0.666599
0.286576
0.224577
-0.177136
-0.226147
0.00810141
0.0547443
-0.0628457
-0.0159284
-0.4902
0.191321
-0.0374561
0.0243714
0.0130847
0.147923
-0.0990524
-0.0488705
-0.315991
0.270837
0.0451549
0.0788082
-0.123181
-0.089495
0.414218
0.0979074
-0.512125
0.0626658
0.0641754
-0.00195345
0.047153
-0.0451996
0.0166727
-0.126809
0.110136
0.294825
-0.0687502
-0.226074
-0.0188977
0.204858
-0.18596
-0.398884
-0.0653808
0.464264
-0.166094
0.281883
-0.0341038
0.000122245
0.0339816
0.0678282
0.226753
-0.294581
-0.215228
0.357862
-0.215494
-0.0575724
0.273066
-0.0212839
-0.179497
0.200781
0.047373
-0.0190336
-0.186015
0.0426765
0.143339
0.110191
-0.455981
0.34579
0.1586
0.243295
-0.117615
0.0445215
0.0730937
0.0363354
0.037934
-0.0245945
0.154544
0.451176
-0.585144
0.133968
-0.00440687
0.0646734
-0.0602665
0.656536
-0.310574
-0.345962
0.171956
0.366875
-0.538831
0.0131529
0.0536359
0.230685
-0.330776
0.531733
-0.512377
-0.0485768
0.0566782
0.514777
-0.342822
0.0714047
-0.0187649
-0.0526398
0.00323336
-0.0552536
0.0520203
-0.0317467
-0.00235709
-0.0859017
0.0265986
0.00378514
-0.00240966
0.0300585
-0.0324265
0.00236797
-0.047131
0.048291
0.576503
-0.486169
-0.090334
0.0299636
0.0608705
-0.0807872
0.230801
-0.150014
-0.148318
0.112985
0.0353329
-0.126292
0.5973
-0.471008
-0.0403052
-0.00492824
0.0452334
0.501067
-0.424181
0.238451
0.0149158
-0.253367
-0.0419485
0.039995
0.0299181
-0.00635154
-0.0235665
0.475971
-0.0490724
-0.426898
0.26849
-0.152324
-0.0072741
-0.0378583
0.0451324
-0.63304
0.19706
0.43598
0.105384
-0.409639
0.304256
0.264064
-0.267557
0.00349373
-0.298859
0.272714
0.0261452
-0.0820299
-0.066288
-0.235357
-0.0635022
0.182667
-0.18483
0.400907
0.164068
-0.564975
0.0692275
-0.0964393
-0.106652
0.142714
-0.0825279
0.078121
-0.0203507
0.190928
-0.170577
0.615876
-0.16786
-0.43886
0.169588
-0.0295028
0.0346633
-0.0051605
0.15364
-0.019765
-0.133875
-0.195811
0.174527
-0.145094
-0.450945
-0.241963
0.161175
0.00303199
0.261032
-0.00110314
-0.454279
0.455382
-0.177676
0.038448
0.139227
-0.394007
0.287875
0.106132
0.422662
-0.125448
0.106002
0.0194453
-0.384698
-0.248342
-0.39273
0.423645
-0.514719
0.0910737
-0.000476161
0.0305347
0.12925
0.0186733
0.0118473
0.0180708
0.040865
0.154049
-0.194914
-0.434548
0.278552
0.155996
-0.0470587
0.0067535
0.158706
0.457884
0.358986
-0.66737
0.287083
0.380288
-0.663108
0.279655
0.383453
0.202217
0.590085
-0.112409
0.252888
-0.389972
0.137083
0.489109
-0.609421
0.120312
0.203932
-0.324214
0.120281
-0.0622507
-0.0122171
0.0744677
0.138732
0.0149083
-0.00337409
0.00132458
0.0817858
-0.0571577
-0.4031
-0.260008
0.66794
-0.293391
-0.37455
-0.637919
0.193354
0.444565
-0.114627
-0.461157
0.575784
-0.0895671
0.2935
-0.0583668
0.0616002
-0.210497
-0.249915
-0.122574
0.136466
-0.0138915
-0.111726
0.630635
-0.347737
0.636459
-0.288722
-0.170877
0.146283
0.188638
-0.15229
0.0531663
-0.0168309
-0.215121
0.00206438
0.213057
0.00455533
0.117141
-0.121696
-0.0183249
-0.113193
0.131518
-0.0236868
-0.191434
0.0411959
0.548315
-0.0649348
0.0225818
-0.156617
-0.0646636
-0.0529516
-0.153191
0.181211
-0.171623
0.191926
-0.0203037
0.403963
-0.214864
-0.189099
-0.405931
-0.261439
0.282217
-0.41505
-0.0878002
0.088203
-0.351469
0.437113
-0.0856442
-0.181858
0.166829
0.0150293
0.17323
-0.483804
0.243956
0.423985
0.00502208
0.438287
-0.443309
0.338867
-0.048356
-0.472745
0.439276
0.0334687
0.455897
-0.570524
0.0342504
0.120274
-0.154525
-0.444571
-0.0281734
-0.25826
0.368451
0.512408
-0.0900918
0.223441
-0.13177
0.00616185
0.116753
0.0265956
0.222458
0.1932
-0.415658
-0.30171
0.47494
-0.660183
0.526754
0.133429
-0.122844
0.139517
0.525198
-0.124291
0.589715
-0.487007
-0.102708
-0.63645
0.211491
-0.149075
-0.483526
0.632601
0.0315066
0.510308
0.171212
-0.349855
0.178643
0.300977
0.102986
-0.101265
0.0854168
0.0158485
-0.0565274
-0.0704865
-0.500395
0.32829
0.172105
0.0639581
-0.279452
-0.0256088
0.180106
-0.284377
0.528714
0.0391769
-0.0544576
0.0152807
0.0865389
0.399685
-0.486224
-0.158202
-0.280658
0.0662879
0.175368
-0.241655
0.115673
-0.24308
-0.504484
-0.187881
0.016258
-0.255661
-0.269236
0.0265755
0.24266
0.167112
-0.299248
0.132136
-0.555343
0.450122
0.0869431
-0.36939
0.282447
-0.0176074
0.0567843
0.0148826
0.135125
0.674201
-0.309304
-0.364896
0.168615
0.0482226
-0.216837
0.767387
-0.400512
0.11492
0.307134
-0.422054
-0.111111
0.124763
-0.0136512
0.594821
-0.0572066
-0.537614
0.0689497
-0.245145
0.176195
0.14995
0.320901
-0.153788
0.500326
0.267061
0.309829
-0.244223
-0.0656054
-0.470847
0.475869
-0.0272367
-0.168575
-0.160202
-0.0174735
0.435437
0.14862
-0.1995
0.421958
-0.0603805
-0.125635
0.374539
-0.40426
0.522957
-0.10874
-0.116317
0.0925716
0.0237457
0.521007
-0.351996
-0.169011
-0.0485645
0.079143
-0.0305785
0.377151
-0.20594
-0.213772
0.182804
-0.0538148
0.25955
-0.205735
-0.123036
0.481543
-0.0323623
0.406901
0.189392
0.407332
0.0327288
-0.0812933
0.0115162
0.0598885
-0.562082
0.167107
-0.561117
0.442395
0.31748
0.356721
0.487236
0.0946261
-0.581862
0.522687
0.0721339
-0.0566408
0.00912571
0.047515
-0.0359944
-0.0803228
0.421068
0.0999395
-0.145959
0.131308
0.0146511
0.249889
0.464134
-0.402471
0.180514
0.221957
-0.624199
0.484514
0.139685
-0.0439874
0.00203894
-0.19902
0.0171615
-0.00696449
-0.0552862
-0.124273
0.166397
-0.0421231
-0.277714
0.412268
-0.134555
0.00976806
0.134243
-0.144011
-0.515565
0.0595841
-0.325948
-0.0424612
-0.0141796
-0.135755
-0.324652
0.460407
0.0245164
-0.0245164
-0.329766
-0.294434
0.331642
-0.415493
0.0838511
-0.0148696
0.113738
-0.0988684
-0.0669819
0.0563966
0.0105853
-0.418261
-0.0881582
0.506419
0.0909347
0.333102
0.116005
0.0102921
0.16804
-0.512407
0.40685
0.172993
-0.193343
0.0624886
-0.135942
0.0734536
0.316946
-0.494877
0.177931
-0.111523
0.577533
-0.466009
-0.0255691
-0.0669641
-0.0456494
-0.153371
-0.199551
0.172314
-0.448976
0.0133219
0.049128
-0.0400022
-0.14124
0.182105
-0.0694269
-0.0157565
0.0851834
0.0227522
-0.331166
0.308413
0.468046
-0.618434
0.150388
0.395232
-0.289848
0.0837723
0.102947
-0.186719
0.0146052
0.0213955
-0.2109
-0.124128
0.335028
-0.23151
-0.112236
0.343746
-0.0750859
-0.20612
0.281206
-0.31409
-0.00190123
-0.460624
0.52523
-0.0567438
0.276396
-0.0553156
-0.22108
-0.23765
-0.164821
0.135694
0.487192
-0.0785953
0.410237
0.580444
-0.171074
-0.40937
0.401823
0.178621
-0.327158
0.423515
0.442212
-0.591287
0.00964896
0.039479
0.0371833
-0.00284583
-0.0343374
0.025891
0.00933001
0.0929325
-0.11792
0.0249874
-0.00962809
0.143944
0.00740753
0.110265
-0.117672
0.0346514
-0.0214985
0.328441
0.0760996
-0.110613
-0.00704143
0.117655
-0.144449
-0.489253
0.0438118
-0.182196
0.138384
0.119516
-0.0265839
0.127571
-0.0650822
-0.424043
-0.123976
0.548019
-0.344616
0.101577
0.243038
0.0495481
0.226848
0.482257
-0.187497
-0.29476
-0.0706656
0.0818717
-0.0112062
-0.100355
-0.243595
0.623618
-0.571788
-0.0292003
0.315003
-0.0996759
-0.215327
-0.55504
0.420105
0.134935
-0.0245723
-0.0668618
0.0914341
-0.0506607
0.0479418
0.00271888
-0.000742247
-0.0245908
0.0118573
-0.0189169
0.0198995
0.158802
-0.178701
0.497477
0.0922377
-0.0948432
-0.103253
0.410083
0.0871324
-0.497216
-0.0897272
0.0190616
-0.277942
0.222627
0.471404
0.144472
-0.163645
-0.271676
0.435321
-0.0546444
-0.196197
-0.101445
0.0898039
0.0311085
0.00778426
-0.0388928
-0.100901
0.510984
0.130655
0.000947818
-0.131603
0.199027
-0.0240218
-0.175005
0.0967056
-0.102067
0.00536095
0.387063
0.0891354
-0.476199
-0.465304
-0.0879216
0.553226
-0.118654
0.202426
-0.148709
-0.285839
-0.055442
-0.0866704
0.142112
-0.261328
-0.217148
0.478475
-0.0376892
0.000115567
0.0375736
-0.245522
-0.148878
0.3944
0.0674936
-0.0797107
-0.00900118
-0.0397205
0.0487217
-0.173013
0.0723194
0.0248585
-0.0971779
0.0468128
-0.171086
0.113496
-0.0970773
-0.0164192
-0.300126
-0.0961928
0.396318
-0.513758
0.636533
-0.122776
-0.0926914
0.610146
-0.0276408
0.0337022
-0.00606147
-0.00211507
-0.0175969
0.0197119
0.142959
-0.567002
-0.219687
0.367108
0.00213953
-0.0344136
0.0322741
-0.146149
-0.00591268
0.152062
0.256338
-0.233586
-0.147122
-0.427687
0.163271
0.264416
-0.314549
0.397357
-0.0828084
-0.220959
0.202061
-0.0179404
-0.117226
0.149445
-0.184897
-0.0545633
0.0121021
0.0337989
-0.035914
0.0513452
-0.00419216
-0.468028
0.338554
0.535912
-0.394881
-0.141031
0.0165519
-0.127663
0.265065
-0.225176
-0.0398893
0.429256
0.106656
0.0867712
-0.386897
-0.00438069
0.485869
-0.481488
0.231096
0.10734
-0.338435
0.0499165
-0.00139288
-0.0485236
0.0784457
-0.0109521
-0.0347514
0.000813934
0.0339374
-0.0740856
-0.0627174
0.204042
0.278215
-0.0398306
-0.108284
0.0025125
-0.000578915
-0.00193358
-0.0020083
-0.0285508
-0.0409439
0.0469719
-0.00602805
0.002401
-0.125245
0.471893
-0.431643
-0.244487
0.271063
-0.0823184
0.0258947
0.0564237
0.332951
-0.444474
0.625187
-0.519779
-0.105408
-0.00113089
-0.199275
0.055943
-0.0697998
0.0138568
0.564384
-0.096338
0.0904402
-0.0257668
-0.225795
0.165414
-0.000333577
-0.115669
0.116003
-0.0266651
0.0260168
0.000648313
0.054537
-0.0121086
-0.0424283
0.0986794
0.232255
-0.596511
0.135355
-0.125554
0.354383
-0.309217
-0.0731145
0.105492
0.0975254
0.015971
-0.109922
0.0368078
0.312521
-0.502782
0.190261
-0.0686299
-0.00969939
0.0783293
-0.151016
0.596607
-0.277348
0.081641
0.195708
-0.0543867
0.21818
-0.163793
-0.0033846
0.124692
-0.0401931
0.0392433
0.201204
0.0190806
0.48178
0.0947229
-0.418807
-0.241376
-0.424293
0.161894
0.262399
0.256166
-0.40727
-0.204629
0.0320927
0.172537
0.0377722
-0.0964173
0.588312
-0.652826
0.408829
0.243997
0.471963
-0.598255
-0.421056
0.554968
-0.133912
-0.207656
0.0269222
0.180734
-0.521358
0.173621
0.0622013
-0.0920372
-0.64517
-0.136952
0.109003
0.0103335
-0.119337
0.00653993
-0.0180979
0.0873253
0.345931
-0.114835
0.202989
-0.46365
0.260661
-0.0149351
-0.113724
0.128659
-0.0271569
0.0994764
0.327878
0.0651623
-0.39304
-0.0361135
0.612584
-0.0435673
0.178934
-0.135367
-0.382131
0.104417
-0.0412097
0.209825
-0.105973
-0.0166012
0.334026
0.303981
-0.107201
0.596311
-0.0313305
0.00104162
-0.153221
0.223831
-0.0706099
0.360191
-0.107302
0.0626885
-0.556974
-0.439829
0.600123
-0.160294
-0.00369568
0.0408789
0.136757
-0.595194
-0.113082
0.140146
-0.0270643
0.301993
0.00783608
-0.162947
-0.0416821
0.249044
0.0160204
-0.393569
0.508064
-0.114496
-0.112473
0.0976029
-0.105785
-0.136174
-0.257833
0.480566
-0.277577
-0.0540866
-0.0223704
-0.192192
-0.0759017
0.268093
-0.266202
-0.0205006
0.286703
0.563208
-0.18472
-0.378488
-0.0248014
-0.391102
0.415904
0.515063
-0.417156
0.18872
-0.021891
-0.127251
0.501211
-0.096142
0.100697
-0.64965
0.512031
0.13762
0.527613
-0.477451
-0.476628
0.139177
-0.561864
0.561864
0.398091
-0.0110282
-0.259366
-0.359068
-0.177576
0.490097
0.429799
0.13174
-0.147119
-0.458521
0.605641
-0.0129441
0.10965
0.0186147
-0.0372841
0.0186694
0.0582217
-0.138553
0.124555
-0.183898
0.234781
-0.0508828
-0.125921
0.297692
0.0374094
-0.335102
0.0375545
0.151084
-0.475202
0.339447
0.0304929
-0.207826
0.177333
0.538464
-0.155388
-0.00130189
-0.0253632
-0.206416
-0.00993365
0.21635
0.11
0.524285
0.0319227
-0.556208
0.0362287
-0.243779
0.0551555
-0.0437645
-0.011391
0.0104029
-0.123485
0.476208
0.147142
-0.408696
0.011897
0.013436
-0.383002
-0.114702
0.17469
0.0243363
0.119536
0.447702
-0.569128
0.121427
0.127176
0.354336
-0.481512
0.0383616
-0.590047
0.523258
-0.0996133
0.294438
-0.319239
0.539318
-0.0150332
0.0472947
-0.0161862
-0.274846
0.0642919
0.210554
-0.0907133
0.0157642
0.0749492
-0.105996
0.149808
0.371916
-0.404279
0.573873
-0.122698
0.359715
-0.493737
0.134023
-0.0966984
0.312692
-0.215993
-0.082391
0.238959
-0.006904
-0.232055
-0.137686
0.137352
0.36182
-0.492302
0.00192559
0.0303905
-0.0323161
-0.149401
-0.07345
0.0757398
-0.0235031
-0.0522367
-0.0345335
0.0423178
-0.0666379
0.1006
-0.0339623
0.358031
0.113051
-0.471082
-0.609205
0.486608
0.122597
0.581086
-0.125189
0.249498
-0.486551
0.616313
-0.129762
-0.210114
-0.135116
-0.332912
-0.153787
-0.315241
0.469028
0.307109
-0.460896
0.27865
0.244037
-0.0333055
-0.00438374
0.046597
-0.0435949
-0.00300217
-0.476854
0.341738
0.0295349
-0.0961727
-0.110333
0.368681
-0.258349
-0.00797478
-0.038372
0.0463468
-0.128933
0.131334
0.016115
0.11454
0.543073
0.0044331
0.136841
-0.0200879
0.0556333
0.144165
-0.199799
0.183848
0.0394725
-0.22332
0.21693
-0.161296
0.673667
-0.196109
-0.031055
0.0331945
0.0768266
0.379775
-0.456601
-0.0262375
0.126497
0.0272188
0.048521
0.544791
-0.114992
-0.0100697
-0.0444936
0.159882
0.388968
0.015942
-0.0845719
0.451233
-0.598353
0.000376949
-0.0280177
-0.412188
0.301856
0.532034
-0.253383
-0.0213774
0.142134
-0.120756
0.205662
-0.259477
-0.11376
0.128918
-0.0151581
0.411123
-0.296203
0.147636
-0.394966
0.247331
-0.143219
0.122534
0.0206843
0.0929685
-0.165164
0.00656315
0.158601
-0.0378921
0.22174
0.0710983
-0.574642
0.0960269
0.478615
0.539643
-0.0919417
0.155041
-0.0767012
-0.0783398
0.154354
-0.296384
0.142031
0.531567
0.0583327
-0.5899
0.217401
-0.304213
0.0868122
0.0480866
-0.00148951
-0.482187
0.529693
0.122018
0.0962672
-0.0229206
-0.0733466
0.164231
-0.0349814
0.238202
-0.262108
0.0239062
-0.323659
0.259081
0.0645776
0.383614
-0.487231
-0.439683
0.276038
-0.0378501
0.335542
0.0351295
-0.301332
0.0412578
-0.0492325
0.306908
-0.175575
0.0856621
-0.343287
0.257625
0.070276
-0.0897059
0.0229559
0.176381
-0.199337
0.0885817
0.00768554
0.125793
-0.140729
-0.0677354
0.439652
0.53163
-0.521045
-0.588393
0.240644
0.347749
0.302963
-0.11516
-0.196568
-0.0110885
0.233156
-0.166868
-0.436746
-0.0798594
0.516605
0.478456
-0.0948421
-0.157858
0.118028
-0.156847
-0.343548
0.143665
-0.198052
-0.183279
0.236338
0.0570215
-0.29336
-0.0632388
0.0861514
-0.0229126
0.46977
0.111316
-0.338494
-0.303373
0.240807
-0.337505
0.0700202
-0.125462
0.069649
0.0931861
0.378927
-0.472113
0.382819
0.156997
0.0314477
0.132783
0.0496004
-0.321567
0.271967
0.625552
-0.2926
0.589869
-0.120098
0.0812506
0.072239
-0.15349
0.00387626
0.183343
-0.163444
-0.0607497
-0.563528
0.457183
-0.149942
-0.39865
0.548591
-0.393964
0.00265722
0.180268
-0.182925
-0.621745
0.161647
0.21715
-0.482072
0.264922
-0.477744
-0.22309
-0.429736
0.0404605
0.19799
-0.123886
0.129342
-0.00545597
-0.465719
0.0668355
-0.0422522
0.119046
-0.0767943
0.502045
-0.284896
-0.181632
-0.246055
0.521386
-0.184516
-0.33687
0.673749
-0.2058
0.0435226
0.0116329
0.315491
-0.371814
0.0563228
0.495559
0.0695547
-0.565113
-0.139457
-0.335745
-0.456464
0.452083
0.501796
0.109954
-0.61175
-0.0316859
0.147115
-0.115429
0.174447
-0.181321
0.00687464
-0.214446
-0.172092
0.386538
0.17745
0.448102
0.0661664
-0.219387
-0.339225
0.421708
-0.0824828
0.00419947
0.468565
-0.110533
0.452128
-0.575905
0.123777
-0.0379901
0.539786
0.600589
-0.148461
-0.0265644
0.191592
0.0184244
-0.0714533
-0.0387205
0.0483353
-0.00961479
-0.273284
0.322884
0.157342
-0.178112
0.0207696
0.163046
-0.182223
0.0191774
0.124402
0.00137827
-0.125781
0.21787
-0.0130126
0.358812
0.109753
0.0725775
0.0824636
-0.407855
0.546773
-0.138917
0.0980415
0.241205
-0.339246
0.194996
-0.351987
0.156991
-0.202766
0.622076
-0.41931
0.416587
0.146621
-0.0749963
0.390487
-0.385359
-0.203034
-0.0226954
-0.160289
0.182984
0.281287
0.417888
-0.308041
0.12835
0.179691
0.309281
-0.154928
-0.241231
0.388867
-0.483002
0.343545
0.0214996
0.048858
-0.0703576
-0.0163389
-0.33513
0.393461
0.209995
-0.603456
-0.0169034
-0.098383
0.115286
0.131629
-0.717803
0.258158
0.459645
0.603757
-0.416592
-0.187165
-0.151642
0.0293568
-0.0322027
-0.581049
-0.00454116
-0.13756
-0.000753539
0.138314
0.126344
0.395042
0.276439
0.445461
-0.310231
-0.13523
-0.245503
-0.171896
0.15724
0.0146565
-0.241858
0.209517
0.0323415
-0.127761
0.0140006
0.460658
-0.374119
0.0304488
-0.0285232
0.467018
-0.108206
0.0202477
-0.285527
-0.432276
-0.0738105
0.0869269
-0.0131164
0.146473
0.117045
-0.263518
-0.315199
0.0882799
-0.548801
0.148694
0.400107
-0.0128064
0.12181
-0.108959
-0.383755
-0.0232812
-0.148615
-0.3934
-0.155401
0.501612
-0.141897
0.478686
0.111182
0.0146806
-0.498286
0.483605
0.421701
0.117942
0.0360697
-0.00201248
-0.0340572
0.395278
-0.00796227
-0.040481
0.0484433
-0.0254014
-0.00372778
0.0291292
-0.135902
-0.536335
0.182084
0.354251
-0.141613
-0.0463523
0.0566454
-0.0102931
0.00397286
-0.127859
-0.0789188
0.0255237
0.0533951
-0.185836
-0.0771646
0.599097
-0.120411
-0.0880113
-0.0698471
-0.498326
0.180573
0.317753
0.514458
0.10427
-0.148613
0.052927
0.0956855
-0.0712037
0.152454
-0.0459143
0.0386402
-0.377121
-0.272529
0.0525272
-0.00458531
0.359901
-0.0887657
0.0641934
0.0044725
-0.0423308
0.00579199
0.594255
0.103584
-0.0792979
-0.0242866
-0.112946
-0.0749345
0.147457
-0.306714
0.159257
0.0988283
-0.052875
-0.0459533
0.201337
-0.0268903
0.0693469
-0.249531
0.180184
-0.51514
0.143119
0.372021
-0.0519883
0.044026
-0.720204
0.287634
0.43257
-0.0712992
-0.0541485
0.417472
-0.166472
-0.251
0.0141495
-0.278011
-0.0670056
0.345017
-0.248332
-0.0462224
-0.0344674
0.0324591
-0.3259
0.0943901
0.0431007
-0.0480289
0.105654
0.0308119
-0.274615
-0.445589
0.0392567
0.0643277
-0.0737792
-0.000163809
0.171453
-0.171289
-0.733363
0.447836
-0.138338
0.0238525
-0.0695399
0.0456874
-0.00480258
0.0475133
-0.0427107
-0.714313
0.257732
0.456581
-0.0150361
-0.0575555
0.0725916
0.0330357
-0.0283452
-0.00469048
-0.445729
-0.0720153
-0.251644
-0.209104
-0.380407
0.549493
0.000475869
-0.549969
-0.0521426
0.0471837
0.00178627
0.00126219
-0.538345
0.429918
0.108428
-0.375642
-0.160694
0.0935318
-0.0272457
-0.0662861
0.0211775
-0.0844163
-0.0182861
0.256488
-0.399975
0.129751
0.270224
-0.129459
0.163709
-0.568579
0.440131
0.128448
-0.363387
0.0880488
0.275338
-0.398328
-0.140017
0.0941475
-0.276282
-0.438032
-0.130904
0.0369082
-0.220806
0.00015321
0.489799
-0.489952
0.00132048
-0.207737
-0.407402
0.142301
0.265101
0.0825565
-0.306046
0.22349
-0.13283
0.0626013
0.0702282
0.0862116
-0.0794994
0.0126059
0.0668935
-0.0884463
-0.0931304
-0.184218
0.0837009
0.183325
-0.536846
0.131292
0.405554
-0.133726
-0.153989
0.547357
-0.529435
-0.0179222
0.0622118
0.291429
-0.353641
-0.286762
0.360305
-0.0735431
0.233688
-0.454379
-0.616656
0.442217
0.174438
0.332262
-0.0925159
0.480666
-0.38815
0.028072
-0.00945725
-0.429259
0.288121
0.141138
0.521336
-0.122011
-0.40696
0.252039
-0.0766711
-0.00437679
0.0347673
0.679935
-0.461104
-0.218831
-0.557122
0.197587
0.359535
-0.056825
0.0880164
-0.0311914
0.068621
-0.0447685
0.308955
0.37098
-0.019367
-0.063161
0.128329
0.300939
0.112748
-0.102415
-0.035846
0.00109463
0.446846
-0.37002
0.0684684
-0.077627
-0.129649
0.207276
-0.464466
0.1347
0.0157876
0.0767784
-0.092566
-0.429993
0.248361
-0.0138936
0.503484
-0.1038
-0.127846
0.166294
-0.107334
0.250999
-0.461171
0.318446
0.161474
-0.148534
-0.0129399
-0.594293
0.147625
0.446668
-0.0121995
0.0120149
0.000184546
0.0897524
-0.311904
0.222151
-0.556817
0.406875
-0.258785
0.188364
0.0704209
0.0980269
-0.584578
0.00597142
0.440875
0.0454048
-0.239026
0.193622
-0.0271543
-0.0551641
-0.0664492
0.0684522
-0.00200299
0.63495
-0.147714
0.426905
0.0598468
0.490607
-0.363431
0.301376
-0.428092
0.126716
-0.182156
0.205112
0.466043
0.133054
0.338387
0.175791
-0.253418
-0.140892
-0.326282
0.467174
0.520188
-0.445468
-0.0747198
-0.504694
0.543056
-0.60673
0.431653
0.175077
-0.248368
0.172467
0.598035
-0.131992
0.0514438
-0.0426954
-0.00874834
-0.0302462
-0.321741
0.017955
0.0561522
-0.0741073
0.033921
0.103955
-0.123675
0.0197208
-0.555466
0.13441
-0.238081
0.0124449
-0.243423
0.257824
-0.0144009
-0.315382
0.240296
-0.0646022
-0.0148972
-0.00116823
0.00368073
-0.182012
-0.0360125
-0.171814
-0.552876
0.122521
0.430355
-0.10179
-0.130441
0.232231
-0.426485
0.0225339
0.114307
0.429796
0.0903913
-0.0818244
0.0532763
0.0419425
-0.0509437
-0.125056
0.108152
0.530545
-0.016086
0.0072555
0.0734928
-0.0807483
-0.00487439
-0.0196848
0.47059
-0.450905
-0.180474
0.0675281
-0.146769
0.448145
0.317221
-0.458112
-0.705114
0.250432
0.454682
0.533225
-0.135974
-0.397251
-0.0363501
0.563105
0.0588158
-0.0542914
-0.125242
0.328405
-0.203163
0.253886
0.0611163
0.101053
-0.295028
-0.262094
-0.00936006
0.0506691
-0.041309
-0.132334
-0.350668
-0.561559
0.418314
0.143244
-0.267024
-0.43809
0.245742
-0.176395
-0.327755
0.236952
0.0908035
0.166799
-0.166963
-0.635831
0.309549
0.30916
-0.0728218
0.0728561
0.0206757
0.108569
0.113467
0.204115
-0.317583
0.109916
-0.230306
0.128516
-0.0728154
0.360691
0.306677
-0.0148395
-0.291838
0.119108
-0.510923
0.391816
-0.144335
-0.292362
0.436698
0.0755018
-0.0195588
-0.131342
0.0329587
-0.00677016
-0.377928
-0.460717
-0.724766
0.450151
-0.481384
0.34905
0.21434
-0.0396499
-0.151908
-0.400969
-0.405335
-0.156224
-0.426984
-0.128056
0.255988
-0.277133
0.0211451
-0.139386
-0.0177138
0.1571
-0.121352
-0.0388498
-0.162486
0.582591
0.0827271
-0.275926
0.349711
-0.0737856
0.204428
-0.264108
0.05968
0.0418778
-0.143558
-0.0747888
-0.0580407
-0.00682368
-0.16093
0.167754
-0.169974
0.182848
-0.0128735
0.0638206
0.0153224
0.491926
-0.654412
0.00865248
-0.387364
-0.185094
0.00529378
0.0655361
-0.0805722
0.041233
0.171889
-0.213122
0.0192528
-0.0760778
0.0247566
-0.202547
0.177791
0.00861485
0.0346822
0.00489827
0.101589
-0.0891347
-0.0124539
-0.150504
-0.71708
0.440798
0.340925
-0.0818432
0.267619
-0.185062
-0.625483
0.129967
-0.118147
-0.0118199
0.0311548
-0.00407834
-0.0270764
0.316327
0.0439783
-0.315861
-0.235646
-0.109338
0.344984
0.492085
0.198629
-0.173873
-0.371023
0.25568
0.115343
-0.248623
0.00520004
-0.699219
0.230945
0.468274
-0.125411
-0.0678183
0.214868
-0.147049
0.00673323
0.142819
-0.149552
0.534396
0.0331023
0.471679
0.126356
0.0332561
0.181084
0.24255
-0.445316
-0.131076
-0.113823
-0.175243
0.289066
-0.277936
-0.357895
-0.261398
-0.437821
0.057082
-0.313301
0.256219
0.267842
-0.0118538
0.0298956
0.274641
-0.304536
0.0722768
0.366034
-0.438311
-0.712024
0.445
0.188421
-0.0311816
0.493802
-0.192916
-0.300886
0.0299275
0.0816469
-0.111574
-0.137086
0.0206333
0.116452
0.0900684
-0.0738352
-0.0162332
0.571765
-0.383792
-0.187973
-0.0530919
0.125669
0.588598
-0.116919
-0.00679282
0.0498935
0.457994
-0.364807
0.266099
0.0405784
-0.613462
0.487728
0.125734
-0.458923
-0.247262
-0.251064
0.339194
0.232571
0.108445
0.337016
0.172426
-0.285441
-0.000405285
0.0029332
0.0657733
-0.0851402
0.0230787
0.0757495
-0.0437023
0.0779503
-0.0191345
0.0132433
0.0680513
-0.0812945
-0.289645
0.371535
-0.0818902
0.262269
-0.197139
-0.0651296
0.363607
-0.357542
0.0866034
-0.0952529
0.00864945
-0.12354
0.430675
-0.221122
-0.128221
0.349343
-0.537212
0.144593
0.39262
-0.139657
0.0448136
-0.25836
-0.0160585
-0.0509234
0.0190748
0.00784889
-0.0373125
0.0329357
0.335616
-0.236937
0.117344
-0.138721
-0.00448485
-0.0200315
0.111827
-0.00582464
0.386134
-0.264393
-0.121741
-0.259356
-0.0284796
0.00307825
0.133962
-0.355084
0.0740208
-0.454292
-0.310417
0.0959707
-0.209186
-0.220808
-0.545779
0.457857
-0.0531451
-0.414754
0.570063
-0.155309
-0.155543
-0.22424
0.379782
0.160027
0.00301865
0.112194
-0.165823
-0.0896434
-0.253644
-0.0107502
0.131025
-0.00524
-0.135307
0.140547
-0.0579369
0.0371377
0.0142075
-0.0155653
0.141359
-0.210314
0.1832
0.0271136
0.000180797
-0.443479
-0.706129
0.444731
0.0883984
0.247218
-0.504694
-0.0942003
0.0252048
0.0689955
-0.149797
0.1278
0.0219971
-0.192579
0.00651694
0.11582
-0.122337
-0.0718171
0.00510892
0.0667082
-0.150341
-0.386583
-0.150629
0.0220879
-0.0274296
0.0405143
0.080423
-0.133872
0.605757
-0.161478
-0.444279
0.569693
-0.077767
0.0138436
0.0339653
0.320418
-0.440728
0.309976
0.130752
0.105706
0.510607
0.105707
-0.360254
-0.294158
-0.0330729
0.0302833
0.00278959
-0.130747
0.123924
-0.193439
0.321493
-0.128054
0.0234694
0.451322
-0.474792
-0.433475
0.172147
0.0124213
-0.150999
0.138578
-0.164467
0.126068
-0.285621
-0.105489
0.590003
-0.00355431
0.0382365