/*--------------------------------*- C++ -*----------------------------------*\
| =========                 |                                                 |
| \\      /  F ield         | OpenFOAM: The Open Source CFD Toolbox           |
|  \\    /   O peration     | Version:  v2012                                 |
|   \\  /    A nd           | Website:  www.openfoam.com                      |
|    \\/     M anipulation  |                                                 |
\*---------------------------------------------------------------------------*/
FoamFile
{
    version     2.0;
    format      ascii;
    class       surfaceScalarField;
    location    "100";
    object      phi_0;
}
// * * * * * * * * * * * * * * * * * * * * * * * * * * * * * * * * * * * * * //

dimensions      [0 3 -1 0 0 0 0];
oriented        oriented;


internalField   nonuniform List<scalar> 
22766
(
0.0431195
-0.00495893
-0.0381605
0.0791812
0.00452438
-0.0837055
0.214323
-0.0673954
-0.146928
0.691854
-0.341873
-0.349981
0.0426699
0.101778
-0.144448
0.506444
-0.441635
-0.0648091
-0.0443726
-0.0648614
0.109234
-0.645
0.544164
0.100836
-0.526395
0.638009
-0.111614
0.412229
-0.243389
-0.168839
-0.0285845
0.206822
-0.178238
-0.0777465
0.57647
-0.498724
0.05268
-0.281539
0.228859
-0.203436
0.0363484
0.167088
0.150007
-0.137493
-0.0125142
0.116639
0.467949
-0.584588
-0.063541
0.0995843
-0.0360433
0.128602
-0.0194291
-0.109173
0.0426802
0.399324
-0.442004
-0.00512341
-0.130473
0.135597
0.122961
-0.649355
-0.0380681
0.0667896
-0.0287215
-0.0878441
-0.0534486
0.141293
-0.494107
0.617068
0.098932
0.115391
0.030412
-0.0427386
0.0123265
-0.0606086
-0.0298358
0.0904445
-0.589791
0.445593
0.144198
0.134316
-0.148115
0.0137988
-0.144562
-0.351834
0.496396
0.605966
-0.4601
-0.145866
-0.0253676
0.110288
-0.0849203
0.466237
0.150821
-0.617058
-0.14962
0.387806
-0.238186
-0.116867
0.0914991
-0.0471464
-0.0500544
0.0972008
0.185223
0.227006
0.0105722
0.306322
-0.316894
-0.19059
-0.012846
0.0246275
0.103975
0.585353
-0.492716
-0.0926375
-0.0423532
-0.0285482
0.0709015
0.714025
-0.600991
-0.113035
-0.289235
0.0681693
0.221066
0.0708811
-0.493499
0.422617
0.616591
-0.494155
-0.122436
0.178332
-0.035452
-0.14288
-0.118723
-0.458438
0.57716
-0.133792
0.143348
-0.00955613
0.477676
-0.641866
0.16419
-0.556941
0.0628347
-0.650973
0.517457
0.133516
0.284276
-0.287715
0.00343834
-0.175091
-0.271682
0.446774
0.00673637
0.0073253
-0.0140617
-0.405223
0.476104
0.217353
-0.101679
-0.115674
-0.394964
-0.10549
0.500454
0.331804
-0.321232
-0.0253334
0.0253334
-0.0159741
0.0951553
0.102098
0.477564
-0.579661
0.284621
-0.0003447
-0.366876
0.409659
-0.0427832
-0.128946
0.171616
-0.0500273
0.0495563
0.000470986
-0.0914419
-0.402057
0.40454
-0.151105
-0.253436
0.203793
-0.222851
0.019058
-0.5169
0.699178
-0.182278
0.422294
0.0357913
-0.458085
0.0609066
-0.148751
0.30469
-0.120715
-0.183975
-0.500081
0.408639
-0.100091
-0.226919
0.327009
-0.221095
0.00828589
0.212809
-0.0925331
0.028992
0.561541
-0.0953037
0.473559
0.131795
-0.605354
0.0561392
-0.103286
-0.0538553
0.0415464
0.0123089
0.0235839
-0.135166
0.111582
-0.0936493
0.117233
0.11627
-0.0894358
-0.026834
0.204796
-0.00216194
-0.202634
-0.0324227
0.039159
-0.0603234
-0.306552
0.0337054
-0.0943141
0.429606
0.0768377
-0.476418
0.301327
0.0352213
-0.0302892
-0.00493216
0.270757
-0.218077
-0.139418
-0.360664
0.0742697
-0.0530292
-0.0212406
-0.137019
0.131895
0.0886776
0.0275922
-0.530659
0.652003
-0.121344
-0.0432747
-0.00675254
0.146486
0.45948
0.0454754
-0.0398389
-0.00563642
-0.658587
0.127928
-0.215615
0.342132
-0.126517
-0.0735208
0.0966673
-0.0231464
0.626124
-0.509486
0.593343
0.00372538
-0.597068
0.518911
0.133091
0.0108235
-0.00705956
-0.00376392
0.320414
0.0990337
-0.419448
0.593394
-0.300179
-0.293214
-0.1062
-0.0857031
0.191903
0.589512
-0.589512
0.0630747
-0.294551
0.231476
-0.489877
0.345315
-0.562249
0.0105854
0.551663
-0.132834
-0.429415
-0.424959
0.584057
-0.159098
-0.0116413
0.121307
-0.109666
0.61873
-0.145171
0.0663159
-0.0764573
0.0101415
0.036001
-0.0305594
-0.0054416
-0.376338
0.160723
0.105248
0.00436408
-0.109612
0.00477035
-0.00204975
-0.0027206
0.358506
-0.315826
-0.0872379
-0.0296288
0.596724
-0.186961
-0.409763
0.0963568
0.350706
-0.447063
0.0268985
-0.0649666
-0.127014
0.0397758
0.21627
0.377124
-0.621034
0.491896
0.129139
0.102634
0.00261428
0.019356
0.383077
-0.402433
0.0420168
0.00110265
0.0768873
-0.50975
0.432862
0.374556
-0.513974
0.0451657
0.334489
-0.379654
-0.633705
0.116805
0.0650361
-0.171236
0.131327
-0.280947
-0.195158
0.247153
-0.0519953
0.000383916
0.117931
-0.118315
-0.728384
0.547505
0.180879
0.0395809
-0.00916886
0.0013757
0.00339465
0.0916716
-0.250841
0.15917
-0.0538631
-0.167232
0.179023
0.303708
-0.48273
0.326291
-0.113016
-0.213275
0.0541093
-0.283421
0.229312
0.0988575
0.494485
-0.103796
0.0940196
0.00977664
0.541815
-0.105221
-0.436594
0.129949
0.036062
-0.166011
0.00116001
-0.063474
0.062314
-0.383095
-0.0297206
0.412816
0.123187
-0.100627
-0.0225606
0.449107
-0.128693
0.616988
-0.494288
-0.1227
-0.030969
0.235765
-0.435654
0.548849
-0.113195
0.128708
-0.49767
0.368961
0.124551
0.18014
-0.127395
0.331052
-0.203657
-0.297523
0.476546
0.267761
0.424093
0.448018
-0.59604
0.148021
-0.0768978
-0.666829
0.281727
0.385103
0.447874
-0.525621
0.0280209
-0.187879
0.159858
-0.269271
-0.142725
0.411996
0.131525
-0.20066
0.0691355
0.0254107
-0.408506
-0.251078
0.330937
-0.0798583
0.0474411
-0.207449
0.160008
-0.0233593
-0.0304959
-0.405566
-0.261263
-0.104606
0.100096
0.00450996
-0.0361609
0.0474843
-0.0113234
-0.230942
0.0357845
0.768084
-0.432543
-0.335541
-0.298879
0.62335
-0.324471
0.24893
-0.147152
0.088843
0.160087
0.126841
-0.0714856
-0.0553556
0.0337514
0.423779
0.344305
0.0501618
-0.551685
0.501523
-0.000321147
0.0111446
0.651712
-0.220692
-0.43102
0.0133954
-0.116488
-0.017304
0.170039
0.415314
0.116165
-0.255357
0.139192
0.0666304
-0.000314518
-0.0994175
0.559109
-0.457012
-0.0709137
-0.0803324
0.151246
-0.0593029
-0.0272118
0.0865147
-0.106318
0.567604
-0.461286
-0.357876
0.106798
0.622886
-0.484633
-0.138253
-0.220809
0.274919
0.00220061
-0.542238
0.181966
0.360273
-0.198108
0.165041
0.0330667
-0.129474
-0.337451
0.466925
0.090541
0.0197469
0.0283397
0.0136771
0.0284189
0.0711654
-0.460437
0.273718
0.186719
0.244336
0.426473
-0.670809
0.497733
-0.369025
0.0908341
-0.0624151
0.401896
-0.23154
-0.170355
-0.390532
-0.254468
-0.136803
0.100259
0.0365436
0.567494
-0.0233303
0.380117
-0.666948
0.286831
0.224576
-0.177135
-0.22616
0.00810114
0.0547449
-0.0628461
-0.0159284
-0.4902
0.191321
-0.0374563
0.0243715
0.0130848
0.147922
-0.0990524
-0.0488701
-0.315991
0.270836
0.0451552
0.078808
-0.123181
-0.089495
0.414218
0.097887
-0.512105
0.0626657
0.0641754
-0.00195361
0.0471536
-0.0452
0.0166726
-0.126809
0.110136
0.294824
-0.0687503
-0.226074
-0.018898
0.204857
-0.185959
-0.398884
-0.0653786
0.464263
-0.166579
0.282119
-0.0341041
0.000122252
0.0339819
0.0678283
0.226752
-0.294581
-0.215252
0.357861
-0.215484
-0.0575651
0.273049
-0.0212841
-0.179496
0.20078
0.0473735
-0.0190338
-0.186015
0.0426766
0.143339
0.110958
-0.456692
0.345734
0.158598
0.243297
-0.117616
0.0445225
0.0730936
0.0363356
0.0379341
-0.0245946
0.154543
0.451179
-0.585146
0.133967
-0.00440694
0.0646733
-0.0602664
0.656473
-0.310567
-0.345906
0.171958
0.366875
-0.538833
0.0131621
0.0536275
0.230684
-0.330775
0.531735
-0.512378
-0.0485774
0.0566785
0.51478
-0.342822
0.0714053
-0.0187651
-0.0526402
0.00323315
-0.0552537
0.0520205
-0.031747
-0.00235712
-0.0859014
0.0265985
0.00378525
-0.00240954
0.030059
-0.032427
0.00236799
-0.0471314
0.0482914
0.576505
-0.486171
-0.090334
0.0299636
0.0608705
-0.0807873
0.230801
-0.150013
-0.148317
0.112984
0.0353329
-0.126292
0.597301
-0.471008
-0.0403056
-0.00492826
0.0452339
0.501069
-0.424182
0.23845
0.014916
-0.253366
-0.0419489
0.0399953
0.0299182
-0.00635156
-0.0235666
0.475926
-0.0490568
-0.426869
0.268489
-0.152324
-0.00727427
-0.0378586
0.0451329
-0.63304
0.19706
0.435981
0.105384
-0.409639
0.304255
0.264063
-0.267557
0.00349356
-0.298858
0.272713
0.0261453
-0.0820297
-0.0662876
-0.235356
-0.0635023
0.182667
-0.184829
0.400907
0.164068
-0.564974
0.0692273
-0.0964391
-0.106651
0.142713
-0.0825278
0.0781208
-0.0203509
0.190928
-0.170577
0.615877
-0.167859
-0.438859
0.169588
-0.0295031
0.0346637
-0.0051606
0.15364
-0.0197651
-0.133875
-0.195811
0.174527
-0.145093
-0.450947
-0.241962
0.161175
0.00303214
0.261031
-0.00135897
-0.453929
0.455288
-0.177675
0.0384477
0.139228
-0.393609
0.287791
0.105818
0.42242
-0.125447
0.105998
0.0194489
-0.384697
-0.248343
-0.392731
0.423262
-0.514682
0.0914208
-0.000476128
0.0305351
0.12925
0.0186728
0.0118474
0.0180708
0.0408651
0.154048
-0.194913
-0.434604
0.278511
0.156093
-0.0470591
0.00675354
0.158705
0.457886
0.35895
-0.667376
0.287089
0.380288
-0.66311
0.27966
0.38345
0.202216
0.590084
-0.112409
0.252888
-0.389971
0.137083
0.489109
-0.609421
0.120312
0.204243
-0.324411
0.120168
-0.0622513
-0.012217
0.0744683
0.138732
0.0149083
-0.00337431
0.00132456
0.0817852
-0.0571577
-0.403098
-0.260012
0.667949
-0.293395
-0.374554
-0.637929
0.193363
0.444566
-0.114626
-0.461158
0.575784
-0.0893632
0.293607
-0.0583669
0.0616001
-0.210523
-0.249913
-0.122574
0.136466
-0.0138915
-0.111727
0.630638
-0.347736
0.636458
-0.288722
-0.170877
0.146282
0.188639
-0.152291
0.0531666
-0.0168309
-0.215121
0.00206353
0.213057
0.0045554
0.117141
-0.121696
-0.0183247
-0.113192
0.131517
-0.0236861
-0.191434
0.041196
0.548316
-0.0649352
0.022582
-0.156617
-0.0646645
-0.0529516
-0.15319
0.181211
-0.171622
0.191926
-0.0203036
0.404022
-0.214889
-0.189133
-0.405931
-0.261446
0.282217
-0.415051
-0.0877944
0.0881783
-0.351406
0.436816
-0.0854104
-0.181858
0.166829
0.0150291
0.173199
-0.483766
0.243961
0.423988
0.00502206
0.438287
-0.443309
0.339363
-0.0491085
-0.472744
0.439276
0.0334688
0.455898
-0.570525
0.0342502
0.120274
-0.154524
-0.444571
-0.0281734
-0.257861
0.368818
0.51236
-0.0900665
0.223441
-0.131769
0.006162
0.116753
0.0265956
0.222458
0.1932
-0.415658
-0.30171
0.474909
-0.660185
0.526756
0.133429
-0.122844
0.139517
0.525197
-0.124291
0.589717
-0.487009
-0.102708
-0.63645
0.211491
-0.149075
-0.483527
0.632602
0.0315066
0.510308
0.171211
-0.349855
0.178643
0.300986
0.103036
-0.101266
0.0854169
0.0158495
-0.0565273
-0.0704864
-0.500517
0.328257
0.17226
0.0639515
-0.279435
-0.025609
0.180107
-0.284378
0.528714
0.0391774
-0.0544582
0.0152808
0.0865371
0.399685
-0.486222
-0.158201
-0.280658
0.066288
0.175367
-0.241655
0.11568
-0.243075
-0.504487
-0.18788
0.0162579
-0.255942
-0.269236
0.0265761
0.24266
0.167112
-0.299248
0.132136
-0.555344
0.450123
0.086943
-0.36939
0.282447
-0.0176075
0.0567849
0.0148827
0.135125
0.67459
-0.3099
-0.36469
0.168612
0.0482288
-0.21684
0.76739
-0.400514
0.11492
0.307134
-0.422054
-0.111111
0.124762
-0.0136512
0.594822
-0.0572063
-0.537616
0.0689497
-0.245145
0.176195
0.149957
0.3209
-0.153788
0.500329
0.267061
0.309828
-0.244223
-0.0656055
-0.470847
0.475869
-0.0272368
-0.168574
-0.160202
-0.0174733
0.435438
0.148619
-0.1995
0.421957
-0.0603806
-0.125635
0.374538
-0.404259
0.522942
-0.108724
-0.116317
0.0925714
0.0237457
0.521007
-0.351996
-0.169011
-0.0485644
0.0791429
-0.0305785
0.377151
-0.20594
-0.213772
0.182803
-0.0537766
0.259485
-0.205708
-0.123036
0.481542
-0.0323618
0.4069
0.189391
0.407333
0.0327288
-0.0812932
0.0115163
0.0598889
-0.561981
0.167016
-0.561118
0.442395
0.317396
0.357193
0.487236
0.0946264
-0.581863
0.522689
0.0721337
-0.0566413
0.00912576
0.0475155
-0.0359944
-0.0803227
0.421068
0.0999391
-0.145959
0.131307
0.0146511
0.24989
0.464135
-0.40247
0.180514
0.221956
-0.6242
0.484515
0.139685
-0.0439878
0.0020389
-0.19902
0.0171616
-0.00696473
-0.0552866
-0.124273
0.166396
-0.0421231
-0.277713
0.412268
-0.134555
0.00976813
0.134243
-0.144011
-0.515334
0.0586417
-0.325968
-0.0424617
-0.0141796
-0.135755
-0.324652
0.460407
0.0245166
-0.0245166
-0.329766
-0.294434
0.331642
-0.415493
0.0838507
-0.0148696
0.113738
-0.0988682
-0.0669824
0.056397
0.0105854
-0.418265
-0.0881195
0.506385
0.0909347
0.333103
0.116004
0.0102922
0.16804
-0.512337
0.406847
0.172992
-0.193343
0.0624883
-0.135942
0.0734536
0.316934
-0.495
0.178066
-0.111523
0.577532
-0.466009
-0.0255691
-0.066964
-0.0456495
-0.15337
-0.199551
0.172314
-0.448975
0.0133217
0.0491284
-0.0400027
-0.14124
0.182105
-0.0694273
-0.0157562
0.0851835
0.0227524
-0.331165
0.308413
0.468046
-0.618433
0.150387
0.395231
-0.289848
0.0837718
0.102947
-0.186719
0.0146053
0.0213957
-0.2109
-0.124128
0.335028
-0.231508
-0.112237
0.343744
-0.075086
-0.206119
0.281205
-0.31409
-0.00190144
-0.460623
0.52523
-0.0567439
0.276396
-0.0553158
-0.22108
-0.23765
-0.16482
0.135692
0.487194
-0.0785951
0.410237
0.580426
-0.171282
-0.409144
0.401565
0.178861
-0.327158
0.423514
0.442212
-0.591288
0.00964902
0.0394794
0.0371836
-0.00284581
-0.0343378
0.0258912
0.0093301
0.0929323
-0.11792
0.0249874
-0.00962814
0.143944
0.00740765
0.110264
-0.117672
0.0346532
-0.0214912
0.328441
0.0760996
-0.110613
-0.00704148
0.117654
-0.14445
-0.489255
0.0438119
-0.182196
0.138384
0.119516
-0.0265839
0.12757
-0.0650821
-0.424042
-0.123976
0.548018
-0.344615
0.101578
0.243038
0.0495485
0.226847
0.482276
-0.187515
-0.294761
-0.0706661
0.0818719
-0.0112059
-0.100354
-0.243766
0.623883
-0.57179
-0.0292007
0.315002
-0.0996759
-0.215326
-0.555042
0.420107
0.134935
-0.0245723
-0.0668616
0.0914339
-0.0506614
0.0479422
0.00271917
-0.000742268
-0.0245911
0.0118574
-0.018917
0.0198996
0.158802
-0.178701
0.497479
0.0922376
-0.0948456
-0.103262
0.410086
0.0871245
-0.49721
-0.0897275
0.0190614
-0.277942
0.222626
0.471407
0.144471
-0.163645
-0.271674
0.435319
-0.0546445
-0.196197
-0.101445
0.0898038
0.0311088
0.00778433
-0.0388932
-0.100894
0.51098
0.130655
0.000947709
-0.131603
0.199027
-0.0240227
-0.175004
0.0967095
-0.102046
0.00533624
0.386939
0.0891434
-0.476083
-0.465308
-0.087921
0.553229
-0.118654
0.202426
-0.148773
-0.285831
-0.055442
-0.0866702
0.142112
-0.261327
-0.217147
0.478475
-0.0376898
0.000115563
0.0375743
-0.245522
-0.148878
0.394399
0.0674942
-0.0797111
-0.00900129
-0.0397208
0.0487221
-0.173013
0.0723193
0.0248585
-0.0971778
0.0468128
-0.171086
0.113496
-0.0970771
-0.0164192
-0.300125
-0.0961925
0.396318
-0.513759
0.636536
-0.122777
-0.0926911
0.610148
-0.0276411
0.0337027
-0.00606156
-0.0021151
-0.0175972
0.0197123
0.142959
-0.567001
-0.219687
0.367108
0.00213952
-0.0344141
0.0322746
-0.146149
-0.00591275
0.152061
0.256338
-0.233585
-0.147121
-0.427686
0.163271
0.264416
-0.314658
0.397249
-0.082591
-0.220959
0.202061
-0.0179405
-0.117225
0.149445
-0.184897
-0.0545638
0.0121022
0.0337994
-0.0359145
0.0513456
-0.00419203
-0.468028
0.338554
0.535913
-0.394882
-0.14103
0.016552
-0.127663
0.265064
-0.225175
-0.0398894
0.429258
0.106655
0.0867709
-0.386896
-0.00438068
0.485868
-0.481488
0.231095
0.10734
-0.338435
0.049917
-0.0013929
-0.0485241
0.0784462
-0.010952
-0.0347517
0.000813924
0.0339378
-0.0740855
-0.0627173
0.204053
0.278223
-0.0398306
-0.108284
0.00251287
-0.000579064
-0.00193381
-0.00200832
-0.0285511
-0.0409442
0.0469725
-0.00602825
0.0024009
-0.125245
0.471895
-0.431643
-0.244487
0.271063
-0.0823183
0.0258947
0.0564236
0.332951
-0.444474
0.625187
-0.519779
-0.105408
-0.00113289
-0.199278
0.055945
-0.0698062
0.0138613
0.564383
-0.0963372
0.09044
-0.0257667
-0.225794
0.165414
-0.000333634
-0.115669
0.116002
-0.0266654
0.0260171
0.000648329
0.0545375
-0.0121086
-0.0424289
0.0986792
0.232257
-0.596512
0.135354
-0.125554
0.354382
-0.309216
-0.0731705
0.105534
0.0975253
0.015971
-0.109967
0.0367963
0.312763
-0.502772
0.190009
-0.0686298
-0.00969916
0.078329
-0.151015
0.596608
-0.277348
0.081641
0.195707
-0.0543934
0.218182
-0.163789
-0.00338466
0.124692
-0.0401909
0.0392353
0.201204
0.0190807
0.481782
0.0947229
-0.418809
-0.241376
-0.424292
0.161894
0.262399
0.256165
-0.40727
-0.204629
0.0320929
0.172536
0.0377722
-0.0964163
0.588312
-0.652828
0.408831
0.243997
0.471963
-0.598256
-0.421061
0.554946
-0.133885
-0.207656
0.0269232
0.180733
-0.521357
0.173621
0.0622012
-0.092037
-0.64517
-0.136951
0.109003
0.0103336
-0.119337
0.0065401
-0.0180978
0.0873251
0.34593
-0.114835
0.20299
-0.463653
0.260663
-0.0149351
-0.113724
0.128659
-0.0271569
0.0994763
0.327877
0.0651623
-0.39304
-0.0361135
0.612584
-0.0435619
0.178936
-0.135374
-0.382131
0.104417
-0.0412161
0.209828
-0.105973
-0.0166012
0.334027
0.303982
-0.107201
0.596311
-0.0313308
0.00104163
-0.153105
0.223707
-0.0706026
0.36019
-0.107302
0.062687
-0.556975
-0.439829
0.600123
-0.160294
-0.00369579
0.0408794
0.136757
-0.595195
-0.113081
0.140144
-0.0270632
0.301992
0.00783619
-0.162947
-0.0416823
0.249044
0.0160206
-0.393569
0.508063
-0.114494
-0.112472
0.0976028
-0.105785
-0.135794
-0.257815
0.480568
-0.277578
-0.0540868
-0.0223705
-0.192191
-0.0759018
0.268093
-0.266202
-0.0205004
0.286703
0.56298
-0.184459
-0.37852
-0.0248018
-0.391101
0.415903
0.515037
-0.41715
0.18872
-0.0218908
-0.127251
0.501211
-0.0961418
0.100697
-0.649652
0.512032
0.13762
0.527612
-0.477451
-0.476627
0.139177
-0.561864
0.561864
0.397985
-0.0110459
-0.259364
-0.359068
-0.177212
0.489975
0.4298
0.131741
-0.147118
-0.458525
0.605643
-0.0129193
0.109629
0.0186149
-0.0372845
0.0186696
0.0582214
-0.138554
0.124554
-0.183897
0.23478
-0.050883
-0.125921
0.29769
0.0374434
-0.335134
0.0375547
0.151084
-0.475201
0.339446
0.0304939
-0.207826
0.177332
0.538465
-0.155388
-0.00130193
-0.0253635
-0.206378
-0.00996135
0.21634
0.110001
0.524285
0.0319227
-0.556207
0.0362289
-0.243779
0.055156
-0.0437649
-0.0113911
0.0104023
-0.123483
0.476208
0.147142
-0.408697
0.0118972
0.0134362
-0.382996
-0.114674
0.17469
0.0243375
0.119536
0.447556
-0.569581
0.122026
0.127176
0.354335
-0.481511
0.0383616
-0.590046
0.522948
-0.0996863
0.294437
-0.319238
0.539318
-0.0150332
0.0472952
-0.0161864
-0.274814
0.0642566
0.210557
-0.0907132
0.0157641
0.0749491
-0.105996
0.149808
0.371916
-0.404278
0.573876
-0.122697
0.359714
-0.493736
0.134022
-0.0966984
0.312691
-0.215993
-0.0823901
0.238955
-0.00690217
-0.232053
-0.137686
0.137352
0.362561
-0.492222
0.00192563
0.030391
-0.0323166
-0.149401
-0.0734505
0.07574
-0.0235031
-0.0522369
-0.0345339
0.0423182
-0.0666378
0.1006
-0.0339623
0.35803
0.11305
-0.47108
-0.609205
0.48661
0.122595
0.581087
-0.125188
0.249498
-0.486554
0.616315
-0.129761
-0.210114
-0.135116
-0.332911
-0.15377
-0.315246
0.469016
0.307114
-0.460884
0.278652
0.244037
-0.033306
-0.00438381
0.0465975
-0.0435953
-0.00300222
-0.476854
0.341737
0.0295348
-0.0961726
-0.110333
0.368681
-0.258348
-0.007975
-0.0383724
0.0463474
-0.128933
0.131334
0.0161151
0.11454
0.543072
0.00443312
0.13684
-0.0200879
0.055633
0.144165
-0.199798
0.183843
0.0394754
-0.223319
0.216929
-0.161296
0.673675
-0.196112
-0.0310554
0.0331949
0.0769323
0.379718
-0.45665
-0.0262375
0.126497
0.0272188
0.0485212
0.544792
-0.114993
-0.0100697
-0.0444941
0.159882
0.388967
0.0159418
-0.0845716
0.451236
-0.598355
0.000376962
-0.0280181
-0.412188
0.301855
0.532035
-0.253384
-0.0213774
0.142133
-0.120756
0.205655
-0.259432
-0.11376
0.128918
-0.0151581
0.411122
-0.296202
0.147691
-0.394972
0.24728
-0.143218
0.122534
0.0206843
0.0929304
-0.165164
0.00656326
0.158601
-0.0378959
0.221739
0.0710982
-0.574644
0.0960269
0.478617
0.539905
-0.0923491
0.15504
-0.0767009
-0.0783389
0.154353
-0.296384
0.142031
0.531569
0.058331
-0.5899
0.2174
-0.304213
0.0868122
0.048087
-0.00148952
-0.482206
0.529694
0.122018
0.0962671
-0.0229206
-0.0733465
0.164231
-0.034981
0.2382
-0.262106
0.0239057
-0.323894
0.259134
0.0647603
0.384519
-0.487164
-0.439682
0.276036
-0.0378782
0.335568
0.0351293
-0.301332
0.0412581
-0.0492331
0.306901
-0.175574
0.0856621
-0.343286
0.257624
0.0702762
-0.0897053
0.0229564
0.17638
-0.199336
0.0885815
0.00768556
0.125793
-0.140728
-0.0677349
0.439651
0.531631
-0.521045
-0.588095
0.240662
0.347433
0.302962
-0.11516
-0.196567
-0.0110893
0.233155
-0.166867
-0.436758
-0.0798409
0.516598
0.478326
-0.0938066
-0.157858
0.118028
-0.156929
-0.343587
0.14366
-0.198054
-0.183278
0.236338
0.0570216
-0.293359
-0.0632388
0.0861513
-0.0229125
0.469771
0.111315
-0.338494
-0.303372
0.240806
-0.337505
0.07002
-0.125462
0.0696491
0.0932372
0.378935
-0.472172
0.382819
0.156997
0.031447
0.132784
0.0496004
-0.321567
0.271966
0.625551
-0.2926
0.589869
-0.120098
0.0812508
0.0722388
-0.15349
0.00387614
0.183343
-0.163443
-0.0607496
-0.563578
0.45726
-0.149947
-0.398705
0.548652
-0.393968
0.00268493
0.180272
-0.182957
-0.621746
0.161646
0.217151
-0.482073
0.264922
-0.477745
-0.22309
-0.429738
0.0404602
0.19799
-0.123886
0.129342
-0.00545601
-0.465717
0.0668332
-0.0422522
0.119046
-0.0767941
0.502047
-0.284896
-0.181632
-0.246055
0.521386
-0.184516
-0.33687
0.67375
-0.205801
0.043523
0.011633
0.31549
-0.371805
0.056315
0.495574
0.0695629
-0.565137
-0.139457
-0.335745
-0.456463
0.452083
0.501798
0.109954
-0.611752
-0.031686
0.147114
-0.115428
0.174447
-0.181321
0.0068744
-0.214446
-0.172091
0.386537
0.177449
0.448102
0.0661881
-0.219293
-0.339224
0.421707
-0.0824824
0.00419953
0.468563
-0.110532
0.452221
-0.576215
0.123994
-0.0379899
0.539788
0.600884
-0.148663
-0.0265666
0.191608
0.0184245
-0.0714536
-0.0387209
0.0483358
-0.00961489
-0.273283
0.322884
0.157343
-0.178112
0.0207692
0.163048
-0.182224
0.0191761
0.124402
0.00137834
-0.125781
0.21787
-0.0130123
0.358812
0.109751
0.0725771
0.0824628
-0.407896
0.546777
-0.138881
0.0980424
0.241203
-0.339245
0.194994
-0.351986
0.156992
-0.202766
0.622077
-0.41931
0.416659
0.14632
-0.0749837
0.390474
-0.385081
-0.203014
-0.0226952
-0.160289
0.182984
0.281288
0.41789
-0.30804
0.12835
0.179691
0.309281
-0.154928
-0.241197
0.388888
-0.483001
0.343545
0.0214996
0.0488579
-0.0703575
-0.0165283
-0.334878
0.393461
0.209995
-0.603455
-0.0169035
-0.0983829
0.115286
0.131629
-0.717806
0.258158
0.459648
0.603761
-0.416594
-0.187166
-0.151641
0.0293572
-0.032203
-0.581049
-0.00454122
-0.137573
-0.000735495
0.138309
0.126344
0.395042
0.276092
0.44546
-0.310231
-0.13523
-0.245503
-0.171898
0.157242
0.014656
-0.241858
0.209517
0.0323416
-0.12776
0.0140006
0.460657
-0.374119
0.0304492
-0.0285236
0.467016
-0.108204
0.0202477
-0.285528
-0.432278
-0.0738109
0.0869271
-0.0131162
0.146472
0.117045
-0.263517
-0.315199
0.0882801
-0.548792
0.14869
0.400102
-0.0128065
0.12181
-0.10896
-0.383755
-0.0232809
-0.148617
-0.393391
-0.1554
0.501611
-0.141897
0.478687
0.111182
0.0146806
-0.498287
0.483606
0.421374
0.118531
0.0360701
-0.00201245
-0.0340576
0.395278
-0.00796224
-0.0404816
0.0484438
-0.0254018
-0.00372785
0.0291296
-0.135901
-0.536682
0.182476
0.354206
-0.140777
-0.0463528
0.056646
-0.0102932
0.00397293
-0.127859
-0.078919
0.0255239
0.0533951
-0.185838
-0.0771645
0.599098
-0.120411
-0.0880112
-0.0698469
-0.498326
0.180573
0.317753
0.51446
0.10427
-0.148612
0.052927
0.0956853
-0.0712037
0.152454
-0.0459147
0.0386405
-0.377122
-0.27253
0.0525278
-0.00458555
0.359899
-0.0887656
0.0641933
0.00447262
-0.0423312
0.00579203
0.594256
0.103584
-0.0792978
-0.0242866
-0.112946
-0.0749344
0.147457
-0.306713
0.159256
0.0988316
-0.0528779
-0.0459536
0.201337
-0.0268901
0.069347
-0.249531
0.180184
-0.515139
0.143119
0.37202
-0.0519889
0.0440266
-0.720207
0.287635
0.432572
-0.0712961
-0.0541505
0.417472
-0.166472
-0.251
0.0141495
-0.278004
-0.0670272
0.345031
-0.248341
-0.0462102
-0.0344677
0.0324594
-0.325899
0.0943917
0.0431012
-0.0480294
0.105654
0.0308118
-0.274616
-0.445591
0.0392567
0.0643276
-0.0737794
-0.000162522
0.171453
-0.17129
-0.733366
0.447838
-0.138337
0.0238525
-0.0695399
0.0456873
-0.00480269
0.0475139
-0.0427112
-0.714318
0.257734
0.456584
-0.0150361
-0.0575554
0.0725915
0.033036
-0.0283455
-0.00469052
-0.445731
-0.0721468
-0.251747
-0.209104
-0.380408
0.549494
0.000475828
-0.54997
-0.0521431
0.0471842
0.00178601
0.00126307
-0.538346
0.429919
0.108427
-0.375761
-0.160921
0.0935317
-0.0272457
-0.066286
0.0211775
-0.0844163
-0.0182856
0.256486
-0.399974
0.129751
0.270223
-0.129459
0.163709
-0.568578
0.440131
0.128447
-0.363108
0.0877375
0.275371
-0.398329
-0.140017
0.0940953
-0.276283
-0.438035
-0.130905
0.0369086
-0.220806
0.000153216
0.489799
-0.489952
0.0013625
-0.207741
-0.407419
0.142261
0.265158
0.0825566
-0.306046
0.223489
-0.132829
0.0626012
0.0702281
0.0861843
-0.0794999
0.012606
0.0668939
-0.0884464
-0.0931304
-0.184218
0.0837008
0.183325
-0.536846
0.131292
0.405554
-0.133726
-0.153989
0.547358
-0.529437
-0.0179213
0.0622118
0.291429
-0.35364
-0.286752
0.360294
-0.073542
0.233688
-0.45438
-0.616668
0.442213
0.174455
0.332262
-0.0925036
0.480657
-0.388154
0.0280722
-0.00945735
-0.429258
0.288121
0.141138
0.521335
-0.122011
-0.406959
0.252038
-0.0766711
-0.00437688
0.0347678
0.679937
-0.461106
-0.218831
-0.557121
0.197586
0.359535
-0.0568249
0.0880164
-0.0311915
0.0686211
-0.0447686
0.308956
0.370981
-0.019367
-0.0631608
0.128328
0.301023
0.112748
-0.102414
-0.0358464
0.00109469
0.446899
-0.369967
0.0684684
-0.0774966
-0.129723
0.207219
-0.464467
0.1347
0.0157875
0.0767783
-0.0925658
-0.429993
0.248361
-0.0138935
0.503483
-0.103798
-0.127846
0.166293
-0.107338
0.250999
-0.46117
0.318445
0.161469
-0.148535
-0.0129335
-0.594451
0.147708
0.446743
-0.0122006
0.0120164
0.000184182
0.0897283
-0.311877
0.222149
-0.556852
0.406905
-0.258785
0.188364
0.070421
0.0980257
-0.58458
0.00613971
0.440759
0.0454049
-0.239026
0.193621
-0.0271543
-0.0551641
-0.0664496
0.0684527
-0.00200303
0.634951
-0.147715
0.426917
0.0598469
0.490607
-0.363431
0.301375
-0.428092
0.126716
-0.182155
0.205111
0.466044
0.133054
0.33843
0.175827
-0.253324
-0.140886
-0.326285
0.467171
0.520187
-0.445467
-0.0747193
-0.504694
0.543055
-0.60675
0.431638
0.175111
-0.248368
0.172466
0.598036
-0.131992
0.0514442
-0.0426958
-0.00874844
-0.0302445
-0.321741
0.0179549
0.0561523
-0.0741073
0.0339215
0.103954
-0.123675
0.0197204
-0.555431
0.13437
-0.238081
0.0124446
-0.243422
0.257823
-0.0144009
-0.315381
0.240295
-0.0646027
-0.0148973
-0.00116803
0.0036809
-0.182011
-0.0360132
-0.171813
-0.552852
0.1225
0.430352
-0.101789
-0.130441
0.23223
-0.426404
0.0225339
0.114307
0.429796
0.0903907
-0.0818248
0.0532765
0.0419429
-0.0509442
-0.125056
0.108152
0.530546
-0.0160863
0.0072577
0.0734921
-0.0807498
-0.00487531
-0.0196849
0.47059
-0.450905
-0.180474
0.0675281
-0.146769
0.448144
0.317226
-0.458112
-0.70512
0.250436
0.454685
0.533225
-0.135974
-0.397251
-0.0363502
0.563106
0.0588157
-0.0542913
-0.125242
0.328404
-0.203162
0.253886
0.0611164
0.101054
-0.295027
-0.262094
-0.00935989
0.0506695
-0.0413096
-0.132333
-0.350668
-0.561558
0.418314
0.143244
-0.267027
-0.438093
0.245742
-0.176395
-0.327762
0.236956
0.0908062
0.166801
-0.166964
-0.635833
0.309548
0.309159
-0.0728219
0.072856
0.0206757
0.108569
0.113467
0.204115
-0.317582
0.109914
-0.230305
0.128516
-0.0725428
0.360334
0.306558
-0.0147897
-0.291769
0.119104
-0.51092
0.391817
-0.144336
-0.29236
0.436696
0.0755083
-0.0195633
-0.131342
0.0329587
-0.00676925
-0.377928
-0.460718
-0.724769
0.450153
-0.481383
0.34905
0.214341
-0.0396512
-0.151897
-0.400955
-0.405335
-0.156223
-0.426985
-0.128057
0.255987
-0.277132
0.0211449
-0.139389
-0.0177064
0.157096
-0.121352
-0.0388499
-0.162487
0.582593
0.0827109
-0.276153
0.349352
-0.0731985
0.204427
-0.264107
0.0596799
0.0418808
-0.14356
-0.0747887
-0.0580406
-0.00679182
-0.160977
0.167769
-0.169983
0.182861
-0.0128776
0.0638206
0.0153224
0.491927
-0.654414
0.00865257
-0.387201
-0.185086
0.00529392
0.065536
-0.0805721
0.0412331
0.171889
-0.213122
0.0192528
-0.0760777
0.0247568
-0.202547
0.17779
0.00861496
0.0346826
0.00489831
0.10159
-0.0891346
-0.0124552
-0.150493
-0.717084
0.440801
0.341182
-0.0820488
0.267619
-0.185062
-0.625486
0.129967
-0.118147
-0.0118199
0.0311551
-0.00407839
-0.0270767
0.316318
0.0439761
-0.315882
-0.235645
-0.109338
0.344984
0.492086
0.198629
-0.173872
-0.371022
0.255679
0.115343
-0.248622
0.00520002
-0.699229
0.230954
0.468275
-0.124604
-0.0678124
0.21486
-0.147048
0.00673332
0.142818
-0.149552
0.534514
0.0330909
0.471681
0.126356
0.0332577
0.181083
0.24255
-0.445316
-0.131076
-0.113823
-0.175243
0.289065
-0.277936
-0.357897
-0.261404
-0.437825
0.0570821
-0.313301
0.256218
0.267841
-0.0118536
0.0298958
0.27464
-0.304536
0.0722762
0.366033
-0.438309
-0.71203
0.445003
0.188423
-0.0311818
0.493802
-0.192916
-0.300886
0.0299275
0.0816468
-0.111574
-0.137074
0.0206211
0.116453
0.0900685
-0.0738356
-0.0162329
0.571783
-0.383643
-0.18814
-0.053091
0.125668
0.588599
-0.116919
-0.00679286
0.049894
0.458076
-0.364839
0.266016
0.0405425
-0.613463
0.487731
0.125733
-0.458926
-0.247261
-0.251064
0.339029
0.232754
0.108445
0.337015
0.172425
-0.285441
-0.000404543
0.00293317
0.0657731
-0.0851401
0.0230824
0.0757491
-0.0437028
0.0779502
-0.0191345
0.013243
0.0680512
-0.0812942
-0.289644
0.371534
-0.0818902
0.262269
-0.197139
-0.0651297
0.363794
-0.357395
0.0866035
-0.0952534
0.00864992
-0.12354
0.430674
-0.221121
-0.128221
0.349342
-0.537212
0.144591
0.392621
-0.139664
0.0448188
-0.25836
-0.0160586
-0.0509238
0.019075
0.00784897
-0.037313
0.0329362
0.335621
-0.236941
0.117344
-0.138721
-0.0044849
-0.0200317
0.111825
-0.00582701
0.386541
-0.264116
-0.122425
-0.259355
-0.0284801
0.00307829
0.133962
-0.355083
0.0731023
-0.454296
-0.310417
0.0959707
-0.209185
-0.220807
-0.545781
0.45786
-0.0531456
-0.414754
0.570062
-0.155308
-0.15546
-0.224297
0.379757
0.160029
0.00301953
0.112293
-0.165728
-0.0896434
-0.253643
-0.0107501
0.131024
-0.00523993
-0.135307
0.140547
-0.0579373
0.0371381
0.0142075
-0.0155653
0.141359
-0.210322
0.183196
0.0271256
0.000180765
-0.443481
-0.706137
0.444733
0.0883991
0.247222
-0.504694
-0.0942002
0.0252048
0.0689954
-0.149796
0.1278
0.0219961
-0.192578
0.006517
0.11582
-0.122337
-0.071817
0.00510862
0.0667084
-0.15034
-0.386584
-0.150628
0.0220791
-0.0274298
0.0405146
0.080423
-0.133872
0.605759
-0.161478
-0.444281
0.569694
-0.0777672
0.0138436
0.033964
0.320418
-0.440677
0.310089
0.130589
0.105705
0.51061
0.105707
-0.360255
-0.294158
-0.0330732
0.0302835
0.00278964
-0.130774
0.123982
-0.193439
0.321493
-0.128054
0.0234693
0.451322
-0.474792
-0.433474
0.172147
0.012416
-0.150997
0.138581
-0.164467
0.126068
-0.28562
-0.105489
0.590004
-0.00355434
0.0382369
-0.164374
0.175803
-0.011429