/*--------------------------------*- C++ -*----------------------------------*\
| =========                 |                                                 |
| \\      /  F ield         | OpenFOAM: The Open Source CFD Toolbox           |
|  \\    /   O peration     | Version:  v2012                                 |
|   \\  /    A nd           | Website:  www.openfoam.com                      |
|    \\/     M anipulation  |                                                 |
\*---------------------------------------------------------------------------*/
FoamFile
{
    version     2.0;
    format      ascii;
    class       volVectorField;
    location    "100";
    object      U;
}
// * * * * * * * * * * * * * * * * * * * * * * * * * * * * * * * * * * * * * //

dimensions      [0 1 -1 0 0 0 0];


internalField   nonuniform List<vector> 
15335
(
(0.796238 0.0139652 2.41521e-21)
(1.05037 0.0143028 -9.55638e-21)
(1.0335 -0.033242 0)
(1.02063 -0.000405647 1.24529e-21)
(1.04362 -0.00564572 2.65648e-21)
(1.0218 0.00297827 -1.80912e-21)
(1.06072 -0.0053659 0)
(1.01552 -0.000168534 3.66149e-22)
(1.02498 0.00260324 2.29349e-21)
(1.02701 -0.00515436 0)
(1.03766 -0.00202238 1.33112e-21)
(1.02108 -9.29155e-05 0)
(1.01522 -0.000600939 -1.51343e-21)
(1.04076 -0.0216199 0)
(1.05075 0.000483858 0)
(1.03143 0.00237942 9.38925e-23)
(1.05336 0.0134227 5.07516e-21)
(1.06441 -0.0246917 0)
(1.0228 -0.00144108 -8.22143e-22)
(1.04796 0.00160467 -4.8544e-21)
(1.02497 0.00266433 -1.55127e-21)
(0.455455 -0.053366 1.18739e-20)
(1.04813 -0.00661619 6.33858e-21)
(1.02518 0.00284206 0)
(1.03279 -0.0326213 -7.06411e-22)
(0.697739 0.0142367 0)
(1.0612 0.00249029 0)
(1.02185 0.00132514 7.88204e-22)
(1.05157 0.00130771 -3.52844e-21)
(1.02969 -0.0451472 0)
(1.02301 0.00218645 -6.77408e-22)
(1.05933 0.0033657 0)
(1.02049 1.84089e-05 0)
(1.02208 -0.00837911 0)
(1.05875 0.00313123 0)
(1.05623 0.0089675 -7.90588e-21)
(1.02681 -0.00515471 0)
(1.01815 -0.00715796 2.89169e-21)
(1.04147 -0.0210808 -2.1557e-21)
(1.06341 -0.0253246 0)
(1.02089 0.000728005 2.74288e-21)
(1.02786 0.0161547 -2.03344e-21)
(1.02486 0.00216699 -4.03617e-22)
(1.01482 -0.0101762 -1.60285e-21)
(0.913835 0.0971516 8.38533e-22)
(1.02162 0.00120974 7.33648e-22)
(1.04533 -0.00891238 -5.99546e-21)
(1.02423 0.00026485 5.24229e-24)
(1.05263 0.00188518 7.73966e-21)
(1.01886 -0.000409542 0)
(1.02515 0.00290013 -7.67066e-22)
(1.02345 0.00247722 1.18543e-21)
(1.03033 -0.00592788 -4.50737e-24)
(1.02368 -0.00102825 1.51429e-21)
(0.232741 -0.00229691 -4.49366e-20)
(0.914425 0.108534 8.00061e-22)
(1.03408 -0.0327326 0)
(1.00978 -0.0103162 0)
(1.01736 -0.00778755 2.71647e-21)
(0.402665 0.0147579 1.13736e-20)
(1.05132 0.0140335 9.23857e-21)
(1.03323 0.00502405 0)
(1.03019 -0.00608727 -3.38581e-23)
(1.02288 -0.00612854 -2.67236e-22)
(1.04325 -0.00550754 2.16244e-21)
(0.787627 0.014522 3.59219e-21)
(0.911445 0.0534107 3.29263e-22)
(1.02733 -0.00121009 -3.86804e-22)
(1.0387 -0.0180468 1.49562e-21)
(1.02594 0.00210387 0)
(1.01934 -0.00571946 2.89653e-21)
(1.04792 -0.00628226 -4.70459e-21)
(1.03104 -0.00510443 4.41211e-23)
(0.914131 0.0430541 4.75655e-23)
(1.02618 -0.00755026 1.646e-21)
(0.936906 -0.0354105 0)
(1.0526 0.0137931 2.70272e-21)
(1.01744 0.000216904 -9.26191e-23)
(1.02028 7.92836e-05 -1.44947e-22)
(1.05588 0.00876531 7.4522e-21)
(0.77176 0.0127638 -8.35577e-21)
(1.04924 0.00639051 -6.03811e-21)
(1.04942 0.00646196 0)
(1.05109 0.0101493 6.44954e-23)
(1.03406 -0.0164877 1.69912e-21)
(0.437393 -0.0204831 1.58155e-20)
(1.02299 -0.00633527 -6.3809e-22)
(1.06065 0.00262237 0)
(1.02206 0.00287639 1.11e-21)
(1.02299 -0.00138007 -1.92696e-21)
(0.611878 0.0177257 -1.54043e-23)
(1.01211 0.00120618 -1.7672e-21)
(0.914645 -0.00213168 1.39262e-22)
(1.0445 0.0163992 6.07504e-21)
(1.04764 0.00159525 4.65941e-21)
(1.05134 0.0101759 -7.15309e-21)
(1.0254 0.00229205 0)
(0.795448 0.0145718 8.73422e-21)
(1.02314 0.00226099 0)
(0.790478 0.0144817 1.17043e-20)
(1.0254 0.00240059 4.20376e-22)
(1.02252 -0.00726694 2.85578e-21)
(1.05253 0.0133132 0)
(1.03172 0.00253715 2.21431e-23)
(1.02127 0.000255246 0)
(1.0256 0.00233516 4.19477e-22)
(0.174868 0.012395 -9.7989e-21)
(1.02218 -0.00385341 0)
(1.02183 0.00513782 -8.06321e-22)
(1.04283 -0.0226312 0)
(1.00663 7.47226e-05 0)
(1.017 -0.0117417 -1.46882e-21)
(1.02664 -0.0320606 0)
(1.01525 -6.9109e-06 0)
(1.01671 -0.000145504 -8.15582e-22)
(1.0219 0.00137807 -1.55057e-21)
(1.05712 -0.00568911 1.27614e-21)
(1.01941 0.000177505 -5.54743e-22)
(1.04038 0.0166176 9.73103e-21)
(0.617508 0.018656 -1.6586e-21)
(1.02279 -0.00710467 -1.81194e-21)
(1.06094 -0.00347011 1.35383e-20)
(-0.0195091 0.0737393 -1.82377e-20)
(1.02296 -0.00151331 0)
(1.05832 0.00363068 3.4484e-21)
(1.02232 0.00159144 -7.96923e-22)
(1.02352 -0.000751291 0)
(0.574569 -0.0498394 0)
(1.05846 0.00425189 -3.75241e-21)
(1.02318 0.00488517 6.3041e-22)
(1.0226 0.001748 1.4178e-21)
(1.06137 -0.00393193 -1.81685e-20)
(1.0197 6.52568e-05 -2.1184e-21)
(0.787763 0.0138649 0)
(1.02459 0.00290113 1.1818e-21)
(0.920024 -0.0111795 -4.73625e-22)
(1.02311 -0.00443499 -4.96586e-22)
(1.02596 0.00220825 -4.05777e-22)
(1.04314 -0.0218061 0)
(1.02228 -0.00803842 4.84182e-22)
(1.03651 -0.00306235 0)
(0.815449 -0.0441784 1.11308e-21)
(1.02061 -0.000467705 0)
(0.71632 0.012994 8.39272e-23)
(-0.0202045 0.0788409 -2.11544e-20)
(1.03728 -0.00494471 3.14155e-21)
(0.909288 -0.0314412 3.00811e-22)
(1.0189 -0.0115698 1.84862e-21)
(1.03469 0.00290054 -7.18605e-22)
(1.01281 -0.00764088 -3.3912e-21)
(1.02218 0.000261285 2.30263e-22)
(0.735786 -0.0546427 -5.23148e-21)
(1.0294 0.000962144 2.05108e-22)
(1.04683 0.00379273 0)
(0.890682 -0.0120781 1.25381e-20)
(1.0231 -0.00395792 -1.41144e-21)
(1.05061 0.0104234 -2.78621e-21)
(1.02227 -0.00370898 0)
(1.02241 0.00179077 0)
(1.03344 -0.0161862 -1.48393e-21)
(1.02169 -0.00173684 1.48146e-21)
(1.0144 -0.0033512 -1.56907e-21)
(1.03079 -0.00522085 -5.31309e-23)
(1.01798 -0.0152682 0)
(1.01914 -0.00980969 -9.21692e-22)
(1.02065 -0.000410436 1.32413e-21)
(1.02277 0.00208847 -6.92818e-22)
(0.706144 -0.055726 1.45823e-20)
(1.02498 0.00306978 0)
(1.02107 -7.66043e-05 0)
(1.04232 -0.0018325 -3.94357e-21)
(1.02383 -0.00373569 7.07849e-22)
(1.0374 -0.00264311 -1.9883e-21)
(1.02316 -0.0041356 1.66541e-21)
(1.02337 -0.010022 -5.77429e-23)
(1.03424 -0.0129229 -6.12132e-22)
(0.776592 0.0117323 0)
(1.02494 0.00299055 0)
(1.05181 0.00989395 -3.72017e-21)
(0.80861 0.0135982 1.30642e-20)
(1.03687 -0.00304581 0)
(1.0585 -0.00863329 -7.73324e-22)
(1.01745 -0.000307585 0)
(1.04374 -0.00596828 -2.65524e-21)
(1.04358 -0.00636166 2.23957e-21)
(1.06807 -0.00400827 0)
(1.05087 0.0104672 1.20501e-20)
(1.05556 -0.0163046 -5.62532e-22)
(1.02048 -5.6861e-06 0)
(0.101668 0.0201678 5.26374e-20)
(1.02446 0.000171552 -5.25871e-22)
(0.790487 0.0150826 -1.33848e-20)
(1.0527 0.00228243 -1.11946e-20)
(1.02097 0.000793837 -1.43612e-21)
(1.0341 -0.000933638 -4.60542e-23)
(1.027 0.015425 -8.03518e-21)
(1.03701 -0.00263635 1.52081e-21)
(1.03343 0.00554856 0)
(1.04321 -0.0241709 3.53045e-21)
(1.06607 0.0058371 -4.10732e-21)
(1.02986 0.0228086 -1.53421e-21)
(1.02306 -0.010494 -7.86609e-22)
(1.02239 0.00169141 1.36578e-21)
(1.01091 -0.00684764 0)
(0.780246 0.0144073 -1.58623e-20)
(1.02623 0.00584394 -1.34217e-21)
(1.02799 -0.0301528 3.88797e-22)
(1.02306 -0.000861299 -7.10901e-22)
(1.05977 0.00300329 2.53885e-21)
(0.791045 0.0140128 -1.17992e-20)
(1.05365 0.0134381 0)
(1.02566 -0.000314889 4.42442e-21)
(1.02116 0.00086975 1.29787e-21)
(1.01238 -0.00439765 1.63778e-21)
(1.05273 0.0137945 -5.7644e-21)
(1.02432 -0.0110437 2.52142e-21)
(1.01644 -8.60994e-05 0)
(1.05207 0.00556014 4.53774e-21)
(1.0176 -0.000190732 1.26297e-21)
(1.0562 0.0767216 -5.75247e-22)
(1.03424 -0.0134211 5.84833e-22)
(1.01532 -0.0118804 4.75023e-21)
(0.954922 -0.00111957 3.41297e-21)
(1.05156 0.00986672 0)
(1.01542 -0.000292328 0)
(0.689763 -0.00143376 -1.68747e-20)
(1.05121 -0.0221258 0)
(1.02673 -0.00707936 -7.29827e-22)
(1.06004 -0.00512708 0)
(1.05206 0.0136204 0)
(1.01964 -0.000999245 -2.60867e-21)
(1.06827 -0.00474153 0)
(0.791046 0.00726115 0)
(1.04955 -0.000475477 5.40513e-21)
(1.03233 -0.00482171 0)
(1.03676 -0.0077974 -1.62622e-21)
(1.02153 -0.00114655 1.76649e-21)
(0.693513 -0.0452869 0)
(0.620805 0.0182782 -3.79082e-21)
(1.02676 -0.00817166 3.70636e-23)
(1.01295 -0.00997594 1.65426e-21)
(1.02918 0.00558372 5.64268e-23)
(1.01923 -0.0218265 -1.82034e-21)
(1.04268 -0.000656124 3.31819e-21)
(0.812496 0.0129081 9.61215e-21)
(1.04401 -0.00817081 1.44302e-21)
(0.937635 0.081129 1.78233e-22)
(1.024 -0.0107132 0)
(0.976506 -0.0228285 0)
(1.04385 0.0164417 -2.54316e-21)
(1.04662 0.00343519 3.54172e-21)
(1.02539 0.00334688 -2.64856e-24)
(1.06135 0.00915623 4.68427e-21)
(1.02387 -0.00631299 0)
(1.02443 0.0025118 0)
(0.418639 -0.0531935 -1.21562e-20)
(1.02636 -0.00731859 7.66942e-22)
(1.01719 8.41264e-05 -7.06193e-23)
(0.929954 -0.000903765 -2.77393e-20)
(1.02436 0.00246167 0)
(1.00162 0.0151185 0)
(1.05881 0.0156107 6.25235e-22)
(0.641758 0.0179926 -1.72175e-21)
(1.06688 0.00664384 -4.70663e-21)
(-0.0196366 0.075977 0)
(0.680505 0.0226768 -1.089e-20)
(0.867676 -0.0112817 1.60892e-20)
(1.0234 0.00208141 -9.71708e-22)
(1.05291 0.0137934 5.90435e-21)
(1.03742 -0.00138383 1.65178e-21)
(1.06022 -0.0222344 1.49422e-20)
(1.03023 0.0016994 1.80308e-22)
(0.797851 0.0130318 9.16545e-21)
(1.02476 0.00298332 -1.21776e-21)
(1.03275 -0.00886621 -4.79581e-22)
(0.773131 0.00873368 -2.15851e-20)
(0.419771 0.0340189 0)
(1.01771 -0.00682913 0)
(1.03375 -0.000861805 -1.56977e-21)
(0.783352 0.0145837 8.98152e-21)
(1.02162 0.00117495 3.7338e-22)
(1.02439 -0.000882389 7.29624e-22)
(1.03094 -0.00859312 9.28155e-24)
(1.03446 0.00209713 -8.80086e-22)
(1.06083 -0.0210682 3.91264e-21)
(1.03437 0.00233194 1.56592e-21)
(1.03403 -0.0170756 0)
(1.02076 -0.000360187 -6.77389e-22)
(1.0651 0.00544516 0)
(1.04712 0.00374316 4.2183e-21)
(1.06204 0.00883544 0)
(1.04123 -0.00546317 0)
(1.02276 0.00207053 2.02016e-21)
(1.02394 -0.00391047 -1.68018e-21)
(0.668595 0.0222904 8.77333e-21)
(1.04734 0.000449314 -1.05665e-21)
(1.04227 -0.000491402 6.47215e-21)
(1.02265 0.00198617 -7.12438e-22)
(1.03712 -0.00116301 -1.44483e-21)
(1.03067 -0.00876805 6.39621e-23)
(1.06174 -0.0361147 -6.70716e-23)
(1.04921 -0.0199827 0)
(0.899867 -0.0325764 3.23156e-21)
(1.05267 -0.0298763 4.40843e-23)
(0.878833 -0.0470081 -6.80879e-21)
(1.02156 0.00111848 -4.95031e-22)
(1.02175 0.00126178 0)
(1.06737 -0.0468822 1.7972e-22)
(0.707782 0.0218612 0)
(1.0505 -0.0230814 0)
(0.477033 0.0212844 -1.73171e-20)
(1.04375 0.0043871 -1.71637e-23)
(1.0334 0.00195347 -3.14859e-21)
(0.780462 0.0131948 -9.37648e-21)
(1.02172 0.00126755 1.47056e-21)
(1.02243 -0.00700921 0)
(1.02574 0.00438391 -1.02323e-21)
(1.02521 0.00358978 -1.24892e-21)
(1.0373 -0.00181716 3.73746e-22)
(1.01699 -0.00013679 -5.85221e-22)
(1.02821 0.00402164 -8.32085e-24)
(1.01792 -0.000233184 0)
(0.899963 -0.0622099 0)
(0.930531 -0.00553178 6.76549e-21)
(1.04744 7.07377e-05 0)
(-0.0149849 0.075699 5.58109e-20)
(1.0628 -0.0246637 0)
(1.02511 0.00343996 -1.29836e-21)
(1.02684 0.00492753 -2.04152e-21)
(1.02789 0.0051992 -5.1092e-22)
(1.02115 0.000932592 0)
(0.843452 -0.0643425 -6.06578e-22)
(1.06561 0.0151427 -9.56014e-21)
(1.0248 0.00077666 4.3e-21)
(1.05042 0.00752437 3.85504e-21)
(1.02559 0.0022262 -4.21437e-22)
(1.01974 5.45607e-05 -1.63416e-21)
(1.04629 0.00346456 0)
(1.04077 -0.0226577 0)
(1.02776 0.0147237 0)
(1.03768 -0.0167798 1.4103e-22)
(1.05586 -0.00741541 0)
(1.05935 -0.0197404 -1.1503e-20)
(1.03818 -0.0169943 -2.87536e-21)
(1.01135 5.3679e-05 8.95404e-23)
(1.00793 0.016457 0)
(1.04363 -0.0233928 -3.4329e-21)
(0.979121 -0.0218056 0)
(1.04269 -0.00204671 2.21923e-21)
(1.04446 0.00491392 -9.39023e-21)
(1.02303 0.000391885 1.84321e-21)
(1.02551 0.00420903 0)
(1.01877 -0.000177781 5.1231e-22)
(0.739691 -0.045679 -6.62433e-22)
(0.985395 -0.0401054 1.03096e-20)
(1.04344 -0.000399485 -4.8149e-22)
(1.02438 -0.00367282 0)
(1.02718 0.00490999 0)
(1.02074 -0.000191603 -1.35011e-21)
(0.750686 0.0576549 4.76884e-22)
(1.02257 0.0023558 -5.22435e-22)
(1.02101 0.000859245 0)
(1.0464 -0.00455936 0)
(1.02235 0.00242335 0)
(0.947474 0.0763198 2.40344e-21)
(1.0183 -0.00428854 -9.87998e-22)
(1.03747 -0.00534153 -1.67925e-21)
(1.03765 -0.00228828 -2.33176e-21)
(1.05293 0.00149563 5.66649e-21)
(1.02353 0.000671623 -7.93586e-22)
(1.02326 -0.00315831 0)
(1.02157 0.00016258 0)
(1.04913 -0.000490232 0)
(1.02044 -0.00028002 -4.577e-23)
(1.02329 0.00223751 0)
(1.02196 0.00139958 7.15114e-22)
(1.02926 0.000584102 -5.45721e-23)
(1.02955 0.00102455 -7.08947e-23)
(1.02621 0.00358117 -3.10538e-22)
(1.02523 0.000356472 -7.35679e-21)
(0.932882 -0.0255887 4.66285e-21)
(1.05808 0.0046158 9.28083e-21)
(1.03495 0.0116132 1.25203e-21)
(1.01961 -0.0231661 -6.24294e-22)
(0.652892 0.00217663 -1.77562e-20)
(1.03817 -0.0178356 1.52098e-21)
(1.02127 0.000942691 -2.71572e-21)
(0.888396 0.010762 1.91911e-20)
(1.02162 -0.00124907 2.83815e-21)
(1.02408 -0.00397054 -9.16373e-22)
(1.03946 0.00459943 -9.28167e-22)
(1.01925 -0.0148571 0)
(1.0233 0.00239717 0)
(1.04428 0.00510621 8.88365e-21)
(0.747139 -0.045036 0)
(1.02519 -0.00847987 2.54769e-21)
(1.03233 0.00340596 0)
(1.02934 0.000854814 0)
(1.02101 -0.000250978 -1.49918e-24)
(0.908123 0.00932817 -2.28377e-20)
(1.05099 0.000101267 6.67013e-21)
(0.961051 0.0490933 -1.12162e-22)
(1.03145 -0.0248432 0)
(1.02462 0.00266872 0)
(1.02445 -0.000456189 7.3486e-22)
(1.05674 -0.00121665 -1.08302e-20)
(1.02322 0.0017439 9.89262e-22)
(1.03685 -0.000596317 -2.91409e-21)
(1.03264 -0.0322513 0)
(1.03195 0.00330333 -6.11161e-22)
(1.02475 0.00275228 4.26908e-24)
(1.03117 -0.00168917 -7.37598e-22)
(1.02007 -0.000163119 3.49203e-23)
(1.04224 -1.96907e-05 -3.55002e-21)
(1.04971 -0.0191024 3.70268e-21)
(1.02199 0.0014322 8.00944e-22)
(1.02333 0.000634435 1.65394e-21)
(1.04422 -0.0077119 0)
(1.02318 -0.00384811 1.39681e-21)
(1.01963 -0.000225768 3.6183e-21)
(1.05272 0.00716798 0)
(1.02088 -0.00118499 1.993e-21)
(1.05417 0.0134982 0)
(1.02589 0.00344717 -1.38511e-22)
(1.03357 -0.0154357 7.40395e-22)
(1.00886 -0.0301669 -5.225e-21)
(1.02298 -0.00159897 -2.74544e-22)
(1.02311 -0.00368437 -2.35684e-21)
(1.0224 0.00163746 -7.80999e-22)
(1.0536 0.0138733 0)
(0.993205 0.0151232 0)
(1.00991 -0.0140324 -1.05229e-21)
(1.02119 0.000140011 1.43783e-22)
(0.970876 0.0652666 6.9524e-22)
(1.02913 0.000708639 0)
(1.02335 0.00179636 0)
(0.856589 0.0129686 -4.36416e-21)
(1.05243 0.00728273 5.69702e-21)
(1.02086 -0.00116132 -1.01265e-21)
(1.05167 -0.000280912 2.10944e-24)
(1.02503 0.00221664 -4.12216e-22)
(1.0262 -0.00528917 -6.47716e-24)
(1.02008 3.51265e-05 -6.46005e-22)
(0.761093 0.0122017 2.72323e-20)
(1.04376 3.68716e-05 5.95705e-22)
(0.915818 -0.00308807 0)
(1.04891 -0.0116193 2.28099e-21)
(1.0275 0.00460587 2.59066e-22)
(1.04715 0.00195071 0)
(0.928284 0.0559624 0)
(1.02436 0.00679073 1.44665e-21)
(0.866931 0.0130025 1.29022e-20)
(1.02235 -0.00139355 0)
(0.371193 0.0115229 -7.68179e-21)
(1.01977 1.86221e-05 7.77705e-22)
(1.02218 -0.00318686 0)
(1.05014 0.00537942 0)
(0.984204 0.0152079 -2.2602e-21)
(1.01589 -0.00151629 0)
(1.03473 0.00261692 -1.7351e-21)
(1.02217 -0.00349367 2.6702e-21)
(1.04517 -0.009423 6.85256e-21)
(1.01372 -0.0081331 0)
(1.04087 -0.00519124 0)
(1.05288 -0.0205768 0)
(0.910284 -0.13929 7.21593e-22)
(1.01345 -0.000252396 6.53847e-22)
(1.05235 0.0137732 -2.55492e-21)
(1.0437 0.000364547 -2.07416e-21)
(1.04185 0.000119538 -3.28975e-21)
(1.02182 -0.00182368 -3.36018e-21)
(0.825097 0.0133672 -4.89945e-21)
(1.04409 0.00425999 -4.44622e-21)
(1.07014 0.000945489 -5.6106e-21)
(1.02653 -0.00408026 -1.1354e-22)
(1.02102 -0.000759464 0)
(1.02461 -0.000980473 7.30866e-22)
(1.03626 -0.00902432 0)
(0.628802 0.0173862 1.52865e-20)
(1.03161 0.00280623 0)
(1.02395 -0.00693097 2.63068e-21)
(1.02869 -0.00674247 -4.86009e-22)
(1.02697 -0.00703661 5.05992e-22)
(1.02064 -0.000450076 -1.31329e-21)
(1.02093 -0.000236256 6.01327e-24)
(0.941831 -0.0241683 0)
(1.02605 -0.00853828 -1.54808e-21)
(1.02642 -0.00531783 0)
(1.02248 0.00176867 -7.06195e-22)
(1.02224 -0.0030784 -9.04014e-22)
(1.06112 -0.0118938 -2.05336e-22)
(1.05874 -0.0241165 4.99216e-23)
(1.02373 -0.000837958 0)
(1.02891 0.000472788 -4.58133e-23)
(0.815418 0.0135135 9.85127e-21)
(0.70284 0.0180329 8.92656e-22)
(0.60393 0.0152938 6.21998e-21)
(1.04991 0.00399029 -1.18309e-21)
(1.05138 0.000899674 0)
(1.05871 -0.0177722 0)
(1.01736 -0.00863772 0)
(0.277687 -0.0429083 -3.58261e-21)
(1.02728 -0.00135127 0)
(1.05688 -0.00238168 0)
(1.02576 0.00215556 -2.71927e-24)
(1.04607 -0.000716857 0)
(1.04982 0.00370463 0)
(1.05319 -0.0213881 0)
(1.02003 -0.000585934 1.53141e-21)
(1.0263 -0.0068311 1.64406e-21)
(1.02571 -0.00841014 1.07383e-21)
(1.01876 -0.00119595 1.54364e-21)
(1.06632 0.00275554 2.88557e-21)
(1.06047 -0.020215 -7.91946e-21)
(1.06158 0.0651061 3.1788e-22)
(1.02483 0.00224621 8.91455e-22)
(1.03154 9.18631e-05 -3.94605e-22)
(1.02469 0.000359867 -3.65146e-24)
(1.05655 0.00764769 4.74073e-21)
(0.874533 0.00668492 1.81875e-20)
(0.601059 0.0226507 -8.72015e-21)
(0.364601 0.0150706 -9.73064e-21)
(1.04356 0.00117718 -6.16008e-22)
(1.02344 0.00230246 0)
(1.03084 -0.0310356 -1.2672e-22)
(1.0213 0.000547763 -9.8957e-22)
(1.05477 0.00329367 -6.05521e-21)
(1.02623 -0.00830026 4.85408e-22)
(1.02288 0.00216792 -1.3521e-21)
(1.02213 -0.00241444 1.69905e-21)
(1.03746 -0.00462359 9.09519e-22)
(1.05785 -0.00573793 -7.69459e-21)
(0.785592 0.0122562 8.94944e-21)
(1.02132 0.000807546 0)
(1.05965 -0.0149351 -6.45446e-21)
(1.03709 -0.018078 -1.72452e-21)
(0.595787 -0.04221 0)
(1.02761 -0.019166 0)
(1.02568 0.00336153 -4.92196e-22)
(1.03599 -0.00882436 -9.09596e-22)
(1.03105 0.00488521 0)
(1.0526 -0.0186669 7.101e-21)
(1.02279 0.00033747 0)
(0.665585 0.0194842 -4.30573e-21)
(1.02573 0.00302859 -1.90251e-23)
(0.96191 -0.00644438 6.33163e-21)
(0.833093 0.013506 -2.71473e-21)
(1.0372 -0.000784014 0)
(1.05485 0.00553218 -7.92146e-21)
(1.04957 -0.0115168 -2.52161e-21)
(1.05098 0.00668834 4.84108e-21)
(1.02379 -0.00334974 0)
(1.02539 0.00197046 0)
(1.02345 0.00241901 -2.10827e-21)
(0.655785 0.0208518 -4.70146e-21)
(0.697446 0.0171435 -4.43923e-21)
(1.02005 -0.000564918 -1.55238e-21)
(1.02551 -0.00861458 -1.24492e-21)
(1.02838 0.00538194 8.37279e-23)
(0.732033 0.0187861 0)
(1.048 -0.0126003 0)
(1.02664 -0.00422568 7.72099e-22)
(1.05094 0.000873252 0)
(1.02649 -0.000834495 -7.52787e-22)
(0.978149 0.00644468 6.1366e-21)
(1.03652 -0.00746323 1.39862e-21)
(1.04908 0.00658911 2.56396e-23)
(1.04491 -0.00855552 0)
(0.843518 0.0130356 -8.85689e-21)
(0.715582 0.0178539 1.24294e-20)
(0.802236 0.00470019 0)
(1.02289 -0.000761287 -3.78537e-22)
(1.02083 0.000665533 -1.53919e-21)
(1.05704 -0.000717899 1.25734e-20)
(1.03178 -0.00499575 6.58802e-22)
(1.02092 0.000713352 1.50736e-21)
(1.02395 -0.00348546 0)
(1.01993 -0.000207509 -2.10405e-23)
(1.02939 -0.000610468 2.32861e-22)
(0.897243 0.010908 0)
(0.980813 -0.00780675 9.47791e-21)
(0.705788 0.018455 0)
(1.05186 0.00577985 -5.49147e-21)
(1.01927 -0.000771636 -1.38836e-21)
(1.05137 0.0016455 4.04907e-21)
(0.0119731 0.0214885 9.10325e-21)
(0.637269 0.0197533 -8.34066e-21)
(0.815757 0.0136669 3.40751e-21)
(1.04894 4.11208e-05 1.63288e-22)
(1.02253 0.00188567 0)
(1.02253 0.00169541 -1.49934e-21)
(1.02495 -0.00864904 5.03264e-23)
(1.05842 0.0165349 -7.45675e-21)
(1.01744 -0.000465522 -1.70307e-21)
(1.02014 -0.000682678 0)
(0.0205613 -0.00137364 -1.82449e-20)
(1.02335 -0.0109106 8.71814e-22)
(0.611554 -0.0466416 -3.94318e-21)
(1.02094 -0.000686519 -9.07006e-22)
(1.06128 0.00914934 0)
(1.04385 -0.00730755 -2.36212e-21)
(1.04969 0.00443754 -9.88245e-23)
(0.621802 0.0191732 1.26305e-21)
(0.869679 0.0075792 -8.59483e-21)
(1.02308 -0.00963357 2.63632e-21)
(1.02119 0.000941229 0)
(1.04244 -0.021273 2.83826e-21)
(1.02299 -0.0045512 5.37477e-22)
(0.471872 -0.00976508 -1.07032e-21)
(1.05121 0.00656079 6.54668e-21)
(0.53266 -0.00673852 0)
(0.915618 -0.13555 -1.11772e-21)
(1.07059 0.0123603 -2.52305e-21)
(1.0218 0.00130649 -7.57338e-22)
(1.0365 -0.00398887 -6.21695e-23)
(1.03018 -0.0238699 -5.5787e-23)
(1.05674 -0.00624252 -3.29223e-22)
(0.260075 -0.0431266 6.43757e-21)
(1.04235 0.00635914 3.48508e-21)
(1.02354 0.00213876 6.28735e-22)
(1.0211 0.000123609 1.08416e-21)
(1.026 -0.0055124 -2.0426e-21)
(1.02706 -0.00104306 1.40524e-22)
(1.03855 -0.00787003 1.39911e-21)
(1.06124 -0.00482275 0)
(1.02256 0.00175089 -1.10385e-21)
(1.02396 0.00211989 2.50656e-24)
(1.03002 0.00158142 4.55718e-23)
(1.01921 0.000941654 -6.13511e-24)
(1.03655 -0.0162372 2.49513e-21)
(1.01876 -1.43049e-05 0)
(1.06152 0.00309525 0)
(1.02166 0.00122525 -1.39476e-21)
(1.04402 -0.00684428 -2.62407e-21)
(1.05537 -0.00180474 0)
(0.80032 0.0139541 -2.21288e-22)
(1.06554 0.00455536 0)
(1.02906 -0.000636849 9.35186e-23)
(1.02419 0.00311229 -7.5875e-22)
(1.04994 0.0030523 -4.92539e-21)
(1.05484 0.00513876 7.74672e-21)
(1.02434 -0.00122475 0)
(1.02094 -9.8839e-05 0)
(1.0362 -0.0353324 5.06555e-21)
(1.0278 0.00484408 -3.41915e-22)
(1.03128 -0.0242231 0)
(1.0503 0.00776303 -5.4109e-21)
(1.02514 0.00265056 9.07734e-22)
(1.0157 6.20621e-06 -6.09435e-22)
(0.589146 0.0185167 -2.65607e-21)
(0.7343 -0.0477175 -6.40212e-21)
(1.0279 0.00380691 0)
(1.02243 0.0017954 1.06723e-21)
(1.02087 -0.000553154 9.12299e-22)
(0.715092 0.0174144 1.67586e-21)
(1.02576 0.000212451 -2.36574e-23)
(1.06655 -0.0366469 -1.56763e-20)
(1.03114 -0.00188127 3.5195e-22)
(1.03875 -0.00750664 -1.43646e-21)
(1.03166 -0.00517275 -9.36156e-22)
(1.02151 -0.000918762 -1.78972e-21)
(1.04994 0.00526973 0)
(1.05953 -0.0182873 0)
(0.929645 -0.0399821 2.1803e-21)
(1.02416 0.00303028 7.29117e-22)
(1.03318 0.0163907 -1.98378e-22)
(1.03881 0.00366422 -3.27819e-21)
(1.03428 0.00437744 0)
(0.977848 -0.0131101 0)
(1.02196 -0.00193844 0)
(1.01855 -0.00181453 2.60357e-21)
(1.04356 -0.000705826 0)
(1.04749 0.00195891 0)
(1.02008 -0.000660562 0)
(1.05654 -0.00757858 0)
(1.02076 0.000132118 5.2983e-22)
(1.02081 0.000106115 0)
(1.02326 -0.000864537 0)
(1.00659 -0.000133083 1.2985e-21)
(1.02201 -0.0176608 -5.87175e-22)
(1.02102 -0.000831391 -1.82756e-21)
(0.916906 -0.126504 -4.67577e-22)
(1.01903 8.9009e-05 9.53866e-23)
(1.02507 0.00298725 -5.12251e-22)
(0.662726 -0.0409047 0)
(0.637616 0.016338 0)
(1.04383 -0.0248148 0)
(1.02096 -0.000616395 -1.90969e-21)
(1.03511 -0.0103856 -6.17007e-22)
(1.02329 -0.000766004 0)
(1.02441 -0.00372708 4.27985e-21)
(1.03992 -0.0230885 -4.04003e-21)
(1.02223 -0.00129157 8.12108e-22)
(1.03423 -0.0145851 7.43845e-22)
(1.02046 0.000123135 1.674e-21)
(0.641092 0.0193018 0)
(1.03168 -0.0325628 1.26518e-21)
(1.03196 0.00294208 3.61921e-22)
(1.01615 -0.000288148 -1.77758e-22)
(0.554037 0.000667679 1.58036e-20)
(1.02619 -0.00552724 1.39627e-21)
(0.887885 0.0135707 -2.36512e-21)
(1.06785 -0.0350217 1.71431e-20)
(1.01798 -0.000272308 0)
(1.02522 0.00235732 -8.73062e-22)
(0.55767 0.0209776 0)
(1.01577 -0.00476069 -1.73068e-21)
(1.03641 -0.0184576 1.13837e-21)
(1.04889 0.00651434 5.6891e-21)
(1.05376 0.0255741 -5.14746e-22)
(1.02122 -0.000938808 9.03916e-22)
(1.01946 2.29112e-05 1.34168e-21)
(1.0563 -0.0472025 0)
(1.02197 -0.00198 0)
(1.01718 -0.00023374 0)
(0.804479 0.0124517 -9.06162e-21)
(1.00977 -0.022495 0)
(1.05237 0.014235 -6.42077e-21)
(1.04642 -0.000928379 -1.89061e-21)
(1.02316 -0.00358253 0)
(1.02542 0.00329544 0)
(1.02167 -0.00170269 -5.85491e-22)
(1.03158 -0.00136947 -3.39095e-22)
(1.02225 -0.00335892 -2.77944e-21)
(1.02862 -0.0177386 4.42386e-22)
(1.0494 0.00436141 -5.1709e-21)
(0.922994 -0.0603269 3.9827e-23)
(0.696735 0.0194786 1.33736e-20)
(1.03927 -0.0176171 1.20483e-22)
(1.04756 0.016153 -1.91113e-23)
(0.760186 0.0126029 0)
(1.05271 0.00956141 -9.92489e-22)
(1.02189 -0.0020077 0)
(1.02268 0.00193307 6.96674e-22)
(1.02097 0.000853764 -1.67972e-24)
(1.03921 0.00629538 1.87684e-21)
(1.02457 0.00250707 0)
(1.02657 -0.00838953 -1.47184e-21)
(1.02292 -0.000661136 3.59566e-22)
(1.02321 -0.000356102 1.10695e-21)
(1.02373 -0.000347846 0)
(1.02342 0.00179983 -1.99972e-21)
(0.686502 0.0192744 1.02338e-20)
(0.841764 0.0126566 -1.14258e-20)
(1.02273 -0.00057888 0)
(1.05257 0.00988053 4.10885e-21)
(1.02606 0.00405282 -5.7008e-22)
(0.824093 0.0135967 0)
(1.04857 1.34673e-05 -1.55656e-22)
(1.05975 -0.016087 1.1636e-20)
(1.02055 -0.0004355 0)
(1.05275 0.00103996 -1.05366e-20)
(1.03341 -0.00594112 -1.63377e-21)
(1.02364 -0.0139209 7.71365e-22)
(1.03317 -0.0058055 1.37753e-21)
(1.03348 0.00473596 -9.17754e-23)
(0.711014 0.0196121 0)
(1.03388 0.00426361 1.1784e-21)
(1.05204 0.00517792 4.22377e-21)
(1.05053 0.0161005 5.24082e-21)
(1.01625 0.000212105 -2.19504e-22)
(0.85381 0.0129683 8.40857e-21)
(1.02165 -0.00170074 9.50688e-22)
(1.07009 0.0124108 2.36541e-21)
(1.02492 0.0028153 1.53787e-21)
(0.631371 0.0211622 0)
(1.02561 0.00405741 -6.11265e-22)
(1.02338 0.00174326 4.29085e-24)
(1.0475 0.00596827 1.12223e-21)
(1.00653 -0.027715 0)
(1.05352 -0.000270845 4.44993e-21)
(1.02469 -0.000558572 7.03605e-22)
(1.01169 0.000140826 0)
(1.0571 -0.0116569 0)
(1.0159 -0.00648042 1.55962e-21)
(1.04631 7.12129e-05 0)
(1.02297 -0.01382 0)
(1.05286 0.0133721 0)
(1.02358 0.00230621 0)
(1.06805 0.00598321 0)
(1.06139 -0.0269132 7.75051e-21)
(1.02801 6.92354e-05 2.81252e-23)
(1.02256 0.00187142 2.03332e-21)
(1.03582 0.00485747 5.01764e-22)
(0.829354 0.011988 8.53614e-21)
(1.02372 -8.10922e-05 -2.82836e-21)
(1.02515 0.000204674 6.90203e-22)
(1.05548 0.00981996 9.18928e-21)
(1.04941 -0.0228936 -2.68084e-21)
(1.028 -0.0140341 0)
(0.937277 0.0189163 -7.03659e-22)
(0.92181 0.00510766 -4.92276e-21)
(1.02214 -0.00238343 -1.72814e-21)
(1.02495 -0.00504959 -4.23005e-21)
(1.03402 0.00456203 0)
(0.848246 0.0129757 -1.35836e-20)
(1.02221 -0.00784662 2.22197e-21)
(1.02658 -0.00376683 1.34015e-21)
(1.0642 -0.025388 -5.87465e-21)
(1.03564 -0.0120371 1.25125e-21)
(1.05588 0.00978186 -1.08555e-20)
(1.0496 0.00302289 1.31169e-20)
(1.02308 -0.00342886 0)
(1.01015 9.14319e-05 0)
(0.998993 -0.0391048 0)
(1.03464 0.0061713 0)
(1.03709 -0.0158079 -2.11154e-21)
(1.03987 0.0044496 2.08666e-21)
(1.01926 0.00130297 -9.55457e-22)
(0.917384 0.0320177 3.86446e-21)
(1.05096 0.00165109 1.76637e-21)
(1.03037 0.0150376 9.26296e-23)
(1.03052 -0.0232879 6.11184e-23)
(1.03419 -0.0151802 4.13976e-22)
(1.02896 -0.00602238 2.57731e-22)
(1.051 0.0137077 0)
(1.02107 0.000916937 -7.10394e-22)
(1.01839 -0.000440478 -8.89802e-22)
(1.03127 -0.00114719 5.8733e-22)
(1.05344 -0.0189466 -5.12984e-21)
(1.03214 -0.00501436 0)
(1.02719 0.0102435 1.47784e-21)
(1.0196 0.00144121 2.47266e-21)
(1.04862 -0.023746 0)
(1.02477 -0.00455694 0)
(1.01864 -0.000437209 9.62378e-22)
(1.02103 0.000902524 0)
(1.04566 -0.0200815 -4.28343e-21)
(0.861996 0.00720179 0)
(1.04394 0.00110881 -4.32533e-21)
(1.05211 0.0141553 0)
(1.02954 0.0185023 0)
(1.02567 0.0131957 0)
(1.02749 0.00530125 5.28824e-22)
(0.997849 -0.0253572 1.42146e-21)
(1.02301 0.00222671 -1.32273e-21)
(1.02121 0.000755489 -2.79202e-21)
(1.02187 0.00134868 -1.42896e-21)
(1.02384 0.00206786 6.20148e-22)
(1.03243 -0.0087943 3.00236e-22)
(1.05636 -0.0148203 0)
(1.02154 -0.00128241 -2.69067e-21)
(1.04958 0.00680907 0)
(1.0212 0.000720511 1.99032e-21)
(1.02656 -0.000684833 4.40349e-22)
(1.02114 -0.000983369 -8.34327e-22)
(1.03138 0.00227643 0)
(0.878334 0.0132422 0)
(1.02236 -0.00391215 4.16817e-21)
(1.03537 0.00885471 3.2597e-22)
(1.02229 -0.00124529 -7.95838e-22)
(1.02066 -0.00026516 -6.942e-22)
(1.02336 0.00196291 1.23369e-21)
(1.04756 0.0040062 0)
(1.04071 -0.00610005 -1.90333e-21)
(1.02553 -0.00121816 -6.48494e-22)
(1.01905 -0.000439674 6.74938e-22)
(0.816031 -0.0392201 0)
(1.02301 -0.00318264 2.30735e-21)
(0.641809 0.0228065 -5.24605e-21)
(1.0211 0.000868027 0)
(1.02185 -0.00190746 8.80876e-22)
(1.03321 0.0537408 9.24216e-23)
(1.02335 0.00191556 -6.98517e-22)
(1.04232 0.0423235 -5.09942e-22)
(1.0334 -0.0290157 -5.60858e-22)
(1.03156 0.0162989 0)
(0.824026 0.0131811 0)
(1.02478 -0.00472762 -9.09815e-22)
(1.04461 -0.0216347 8.81824e-22)
(1.04127 -0.0278488 -2.38756e-21)
(1.05472 -0.00774334 9.05986e-21)
(1.03654 -0.00815578 1.55905e-21)
(1.02176 -0.00178409 -1.71344e-22)
(1.06043 -0.0276474 0)
(1.01701 0.00552843 -8.83806e-22)
(1.02448 -0.0066943 2.45534e-21)
(1.02421 -0.00743033 5.50315e-23)
(1.01962 -8.88603e-06 -2.1159e-21)
(0.971597 -0.00559193 -1.32622e-21)
(1.02218 -0.00435927 -4.1822e-21)
(1.00633 -0.0459383 0)
(1.04291 -0.00463225 4.03198e-21)
(1.02609 0.0021293 -8.57719e-22)
(1.03349 0.0029543 0)
(1.02773 4.63368e-05 0)
(1.01336 0.000874901 -9.94706e-22)
(1.02215 -0.00115571 -1.35285e-23)
(1.06261 0.00289305 1.26788e-20)
(0.986181 -0.0541534 -5.27618e-21)
(1.01952 0.000205065 0)
(1.05483 0.000711016 -5.69142e-21)
(1.026 0.00319012 1.7671e-22)
(1.02758 0.00302841 -7.70659e-22)
(1.0325 0.00359727 0)
(1.04329 -0.00481002 -5.01808e-21)
(0.681339 0.0189045 6.78162e-21)
(1.02243 0.00169147 -1.10626e-21)
(0.886659 0.0103866 0)
(0.831824 -0.0336516 -8.76493e-23)
(1.0211 -0.00100134 9.43962e-22)
(0.747876 0.0290814 1.04904e-21)
(1.02433 -0.00460546 -2.26922e-21)
(1.02668 -0.0039525 -9.0917e-22)
(1.03933 -0.0260832 -4.78383e-21)
(1.03968 0.00339365 -2.30736e-21)
(1.05372 0.000183945 -1.05073e-20)
(1.02161 -0.00128085 -1.86648e-21)
(0.677155 0.0202334 8.28994e-21)
(1.02172 -0.00167464 -1.69864e-22)
(1.04868 -0.012379 -2.33955e-21)
(1.02742 0.00296844 0)
(1.07696 -0.00298961 1.15261e-20)
(1.03142 -0.00826668 -5.12051e-22)
(1.0263 -0.00785178 -1.85714e-21)
(1.02318 0.00100881 -8.81725e-22)
(1.05511 -0.00232739 3.91377e-21)
(1.0209 0.000707406 -3.07995e-21)
(1.0403 -0.0256749 0)
(1.02352 0.00110956 1.76409e-21)
(1.02155 -0.00161441 5.56064e-22)
(1.02113 0.000965107 -2.04423e-21)
(1.01048 -6.04032e-06 9.36855e-22)
(1.07216 -0.0151171 -8.60056e-22)
(0.722459 0.018078 -2.79491e-20)
(1.02157 -0.00114346 1.7828e-21)
(0.852869 0.0101025 -9.69797e-21)
(0.671859 0.022442 -1.09842e-20)
(1.04942 0.00676297 6.27654e-21)
(1.0564 0.0296645 0)
(0.925642 0.0161719 4.82723e-22)
(0.898813 0.013202 8.2629e-21)
(1.05715 -0.0144663 0)
(1.05791 0.0171208 3.06815e-21)
(0.916951 -0.142968 0)
(1.02343 0.00224926 -3.32391e-22)
(1.0211 0.000947328 1.70967e-21)
(1.05085 0.00198917 1.03555e-20)
(1.02405 0.00070591 4.30511e-23)
(1.01942 6.21222e-05 2.82505e-22)
(1.05647 -0.0102698 -6.76383e-22)
(1.04509 -0.0198315 8.33402e-21)