/*--------------------------------*- C++ -*----------------------------------*\
| =========                 |                                                 |
| \\      /  F ield         | OpenFOAM: The Open Source CFD Toolbox           |
|  \\    /   O peration     | Version:  v2012                                 |
|   \\  /    A nd           | Website:  www.openfoam.com                      |
|    \\/     M anipulation  |                                                 |
\*---------------------------------------------------------------------------*/
FoamFile
{
    version     2.0;
    format      ascii;
    class       volVectorField;
    location    "100";
    object      U_0;
}
// * * * * * * * * * * * * * * * * * * * * * * * * * * * * * * * * * * * * * //

dimensions      [0 1 -1 0 0 0 0];


internalField   nonuniform List<vector> 
15335
(
(0.796246 0.0139657 2.41473e-21)
(1.05037 0.0143028 -9.55368e-21)
(1.03354 -0.0332145 0)
(1.02063 -0.000405621 1.24802e-21)
(1.04362 -0.00564662 2.65512e-21)
(1.0218 0.00297803 -1.81274e-21)
(1.06072 -0.0053664 0)
(1.01552 -0.000168428 3.66917e-22)
(1.02498 0.00260458 2.30053e-21)
(1.02701 -0.00515502 0)
(1.03766 -0.00202317 1.32975e-21)
(1.02108 -9.29492e-05 0)
(1.01535 -0.000558989 -1.51188e-21)
(1.04076 -0.0216206 0)
(1.05075 0.000483391 0)
(1.03143 0.00237855 9.42484e-23)
(1.05336 0.0134226 5.07385e-21)
(1.0644 -0.0246965 0)
(1.0228 -0.00144114 -8.2423e-22)
(1.04796 0.00160418 -4.85239e-21)
(1.02497 0.00266596 -1.55605e-21)
(0.455446 -0.053428 1.18665e-20)
(1.04812 -0.00661682 6.33645e-21)
(1.02519 0.00284375 0)
(1.03284 -0.0325972 -7.08977e-22)
(0.697747 0.0142371 0)
(1.0612 0.00249001 0)
(1.02185 0.00132656 7.9e-22)
(1.05157 0.00130727 -3.52734e-21)
(1.02901 -0.0450619 0)
(1.02301 0.00218837 -6.79188e-22)
(1.05932 0.00336532 0)
(1.0205 1.83374e-05 0)
(1.02206 -0.00839232 0)
(1.05875 0.00313085 0)
(1.05623 0.008967 -7.9041e-21)
(1.02681 -0.00515539 0)
(1.01812 -0.0071281 2.89681e-21)
(1.04147 -0.021081 -2.15512e-21)
(1.0634 -0.0253287 0)
(1.02089 0.000729706 2.74883e-21)
(1.02787 0.0161554 -2.03303e-21)
(1.02486 0.00216711 -4.04852e-22)
(1.01485 -0.0101159 -1.60563e-21)
(0.91393 0.0987615 8.46067e-22)
(1.02162 0.00121101 7.35308e-22)
(1.04533 -0.00891321 -5.9931e-21)
(1.02423 0.000264736 5.22119e-24)
(1.05263 0.00188476 7.73744e-21)
(1.01886 -0.000409433 0)
(1.02515 0.00290225 -7.69417e-22)
(1.02346 0.0024785 1.18859e-21)
(1.03033 -0.00592854 -4.42621e-24)
(1.02371 -0.00107058 1.51468e-21)
(0.232752 -0.00229235 -4.49394e-20)
(0.914398 0.110021 8.01748e-22)
(1.0341 -0.0327108 0)
(1.00965 -0.0102124 0)
(1.01732 -0.00775314 2.72211e-21)
(0.402671 0.014758 1.13722e-20)
(1.05132 0.0140335 9.23597e-21)
(1.03325 0.00502409 0)
(1.03019 -0.00608792 -3.25302e-23)
(1.02287 -0.00612863 -2.6759e-22)
(1.04325 -0.00550843 2.16128e-21)
(0.787635 0.0145202 3.5917e-21)
(0.911552 0.0552606 3.30682e-22)
(1.02733 -0.00121046 -3.91303e-22)
(1.0387 -0.0180504 1.49499e-21)
(1.02595 0.00210348 0)
(1.01925 -0.00569143 2.90445e-21)
(1.04792 -0.00628289 -4.70292e-21)
(1.03104 -0.00510511 4.38162e-23)
(0.914223 0.0447978 4.70193e-23)
(1.02618 -0.00755147 1.6492e-21)
(0.936994 -0.0356564 0)
(1.0526 0.013793 2.70201e-21)
(1.01744 0.00021689 -9.29105e-23)
(1.02028 7.95421e-05 -1.45306e-22)
(1.05588 0.00876486 7.45053e-21)
(0.771768 0.0127643 -8.35361e-21)
(1.04924 0.00639025 -6.03554e-21)
(1.04941 0.00646172 0)
(1.05109 0.0101493 6.45122e-23)
(1.03406 -0.0164934 1.69669e-21)
(0.437404 -0.0204801 1.58168e-20)
(1.02298 -0.0063363 -6.38892e-22)
(1.06065 0.00262207 0)
(1.02206 0.00287614 1.11236e-21)
(1.02301 -0.00141046 -1.92739e-21)
(0.611884 0.017726 -1.5408e-23)
(1.01227 0.00126363 -1.76216e-21)
(0.91463 -0.000469719 1.38641e-22)
(1.04451 0.0163994 6.07387e-21)
(1.04764 0.00159475 4.65741e-21)
(1.05134 0.0101758 -7.15073e-21)
(1.0254 0.00229126 0)
(0.795456 0.0145699 8.73297e-21)
(1.02315 0.00226264 0)
(0.790486 0.0144799 1.17026e-20)
(1.02541 0.00239992 4.21697e-22)
(1.02251 -0.0072724 2.85918e-21)
(1.05253 0.0133131 0)
(1.03172 0.00253617 2.2239e-23)
(1.02127 0.000255392 0)
(1.0256 0.00233422 4.20807e-22)
(0.174867 0.0123973 -9.79874e-21)
(1.02217 -0.00384963 0)
(1.0219 0.00512835 -8.06616e-22)
(1.04283 -0.0226295 0)
(1.00664 7.4733e-05 0)
(1.01701 -0.0116958 -1.47076e-21)
(1.0261 -0.0320265 0)
(1.01525 -6.81671e-06 0)
(1.01671 -0.000145391 -8.1736e-22)
(1.02191 0.00137934 -1.55422e-21)
(1.05712 -0.00568961 1.2759e-21)
(1.01941 0.00017772 -5.56151e-22)
(1.04039 0.0166172 9.72844e-21)
(0.617514 0.0186562 -1.65824e-21)
(1.02278 -0.00710947 -1.81412e-21)
(1.06094 -0.00347051 1.35363e-20)
(-0.0195067 0.0737425 -1.82375e-20)
(1.02296 -0.00151337 0)
(1.05831 0.00363028 3.44774e-21)
(1.02233 0.00159259 -7.98851e-22)
(1.02351 -0.000751491 0)
(0.574571 -0.049891 0)
(1.05846 0.00425147 -3.75171e-21)
(1.02324 0.00485759 6.30641e-22)
(1.0226 0.00174971 1.42137e-21)
(1.06137 -0.00393235 -1.81659e-20)
(1.0197 6.53285e-05 -2.12409e-21)
(0.787771 0.0138653 0)
(1.02459 0.00289953 1.18506e-21)
(0.919932 -0.00973365 -4.734e-22)
(1.02311 -0.00443339 -4.97293e-22)
(1.02596 0.00220769 -4.07071e-22)
(1.04315 -0.021805 0)
(1.02226 -0.00804919 4.847e-22)
(1.03651 -0.00306317 0)
(0.815397 -0.0440659 1.10518e-21)
(1.02061 -0.00046765 0)
(0.716327 0.0129943 8.39307e-23)
(-0.0202019 0.0788432 -2.11541e-20)
(1.03727 -0.00494568 3.13822e-21)
(0.909456 -0.031711 3.02612e-22)
(1.01876 -0.0115765 1.85535e-21)
(1.03469 0.00289995 -7.17269e-22)
(1.01286 -0.00756504 -3.39181e-21)
(1.02219 0.000261435 2.30946e-22)
(0.735749 -0.0546661 -5.22544e-21)
(1.0294 0.000962002 2.05858e-22)
(1.04682 0.00379228 0)
(0.89069 -0.0120784 1.25386e-20)
(1.02309 -0.00395663 -1.41351e-21)
(1.05061 0.0104234 -2.78528e-21)
(1.02227 -0.00370588 0)
(1.02241 0.00179344 0)
(1.03343 -0.0161917 -1.48184e-21)
(1.02169 -0.00173644 1.48413e-21)
(1.01436 -0.00327318 -1.57323e-21)
(1.03079 -0.00522152 -5.27638e-23)
(1.01797 -0.0152273 0)
(1.01903 -0.00980627 -9.24648e-22)
(1.02065 -0.000410404 1.32702e-21)
(1.02277 0.00209163 -6.94612e-22)
(0.706123 -0.0557637 1.45672e-20)
(1.02498 0.00307416 0)
(1.02106 -7.66468e-05 0)
(1.04232 -0.00183325 -3.94104e-21)
(1.02383 -0.00373537 7.09113e-22)
(1.0374 -0.00264392 -1.98611e-21)
(1.02316 -0.00413428 1.66787e-21)
(1.02337 -0.010017 -5.76634e-23)
(1.03423 -0.0129257 -6.1127e-22)
(0.7766 0.0117327 0)
(1.02494 0.00299395 0)
(1.05181 0.00989385 -3.71901e-21)
(0.808619 0.0135962 1.30625e-20)
(1.03687 -0.00304663 0)
(1.05834 -0.00908116 -7.93119e-22)
(1.01745 -0.000307475 0)
(1.04374 -0.00596917 -2.65397e-21)
(1.04357 -0.00636258 2.2385e-21)
(1.06807 -0.00400817 0)
(1.05086 0.0104673 1.2046e-20)
(1.05529 -0.0166602 -6.00422e-22)
(1.02048 -5.71087e-06 0)
(0.101669 0.02017 5.26368e-20)
(1.02446 0.000171132 -5.27628e-22)
(0.790496 0.0150807 -1.3383e-20)
(1.0527 0.00228202 -1.11914e-20)
(1.02097 0.000795458 -1.43925e-21)
(1.0341 -0.000934294 -4.6062e-23)
(1.027 0.0154245 -8.03307e-21)
(1.03701 -0.00263716 1.51913e-21)
(1.03345 0.00554929 0)
(1.04321 -0.0241673 3.52949e-21)
(1.06607 0.00583763 -4.10689e-21)
(1.03006 0.0228891 -1.53362e-21)
(1.02306 -0.0104864 -7.8757e-22)
(1.0224 0.0016936 1.36919e-21)
(1.01098 -0.0067501 0)
(0.780254 0.0144056 -1.586e-20)
(1.02631 0.00577482 -1.34181e-21)
(1.02807 -0.0301386 3.75137e-22)
(1.02306 -0.00086147 -7.12891e-22)
(1.05976 0.00300294 2.53842e-21)
(0.791053 0.0140131 -1.1797e-20)
(1.05365 0.0134379 0)
(1.02569 -0.000392278 4.4223e-21)
(1.02116 0.000871565 1.3007e-21)
(1.01233 -0.00429822 1.64213e-21)
(1.05273 0.0137943 -5.763e-21)
(1.02432 -0.0110375 2.52562e-21)
(1.01644 -8.59677e-05 0)
(1.05207 0.00555984 4.53633e-21)
(1.0176 -0.000190574 1.26586e-21)
(1.05673 0.0766297 -5.68434e-22)
(1.03424 -0.0134242 5.84071e-22)
(1.01533 -0.0118219 4.75589e-21)
(0.95493 -0.00111566 3.41287e-21)
(1.05156 0.00986664 0)
(1.01542 -0.000292255 0)
(0.689767 -0.00143236 -1.68746e-20)
(1.05121 -0.0221235 0)
(1.02673 -0.0070803 -7.31632e-22)
(1.06004 -0.00512756 0)
(1.05206 0.0136203 0)
(1.01961 -0.000971884 -2.61476e-21)
(1.06827 -0.00474156 0)
(0.791053 0.00726318 0)
(1.04955 -0.000475992 5.40326e-21)
(1.03233 -0.00482244 0)
(1.03676 -0.00779869 -1.62453e-21)
(1.02152 -0.00114268 1.76928e-21)
(0.69391 -0.0462122 0)
(0.620811 0.0182782 -3.79013e-21)
(1.02676 -0.00817217 3.70529e-23)
(1.01298 -0.00989876 1.6558e-21)
(1.02917 0.00558327 5.66893e-23)
(1.01917 -0.0218087 -1.8273e-21)
(1.04268 -0.000656824 3.31613e-21)
(0.812504 0.0129084 9.61037e-21)
(1.04401 -0.00817175 1.44239e-21)
(0.938021 0.0824354 1.77294e-22)
(1.024 -0.0107074 0)
(0.976514 -0.0228367 0)
(1.04386 0.0164412 -2.54268e-21)
(1.04662 0.00343472 3.54e-21)
(1.0254 0.00335049 -2.64238e-24)
(1.06135 0.00915526 4.6836e-21)
(1.02378 -0.00635413 0)
(1.02444 0.00251392 0)
(0.418617 -0.0532535 -1.21392e-20)
(1.02636 -0.00731974 7.68595e-22)
(1.0172 8.41797e-05 -7.08059e-23)
(0.929962 -0.000899957 -2.77388e-20)
(1.02436 0.00246372 0)
(1.00163 0.0151177 0)
(1.05882 0.0156082 6.25139e-22)
(0.641764 0.0179926 -1.72143e-21)
(1.06688 0.00664423 -4.70613e-21)
(-0.0196331 0.0759792 0)
(0.680515 0.0226775 -1.08893e-20)
(0.867684 -0.011282 1.60898e-20)
(1.0234 0.00208194 -9.74389e-22)
(1.05291 0.0137932 5.90292e-21)
(1.03741 -0.00138458 1.65003e-21)
(1.06022 -0.0222358 1.49396e-20)
(1.03024 0.00169877 1.80982e-22)
(0.797859 0.0130324 9.16313e-21)
(1.02477 0.00298091 -1.22114e-21)
(1.03274 -0.00886728 -4.78262e-22)
(0.773137 0.00873535 -2.15848e-20)
(0.419774 0.034019 0)
(1.01763 -0.00680048 0)
(1.03375 -0.000862452 -1.5666e-21)
(0.783359 0.0145822 8.98017e-21)
(1.02163 0.00117659 3.7421e-22)
(1.02439 -0.000882637 7.32144e-22)
(1.03093 -0.00859376 9.18929e-24)
(1.03446 0.00209653 -8.7848e-22)
(1.06083 -0.0210699 3.91205e-21)
(1.03437 0.00233135 1.56314e-21)
(1.03403 -0.017082 0)
(1.02076 -0.000360177 -6.78885e-22)
(1.0651 0.00544563 0)
(1.04712 0.00374271 4.2163e-21)
(1.06203 0.00883454 0)
(1.04122 -0.00546415 0)
(1.02276 0.00207341 2.02537e-21)
(1.02394 -0.00391019 -1.68316e-21)
(0.668604 0.0222902 8.77205e-21)
(1.04733 0.000448767 -1.0562e-21)
(1.04227 -0.000492106 6.46789e-21)
(1.02265 0.00198927 -7.14266e-22)
(1.03712 -0.00116375 -1.44313e-21)
(1.03066 -0.00876863 6.25638e-23)
(1.0614 -0.0366082 -6.26929e-23)
(1.04921 -0.019981 0)
(0.89905 -0.0319377 3.24821e-21)
(1.05227 -0.0301869 6.63592e-23)
(0.878814 -0.0470356 -6.80554e-21)
(1.02156 0.00112029 -4.96132e-22)
(1.02176 0.00126339 0)
(1.06696 -0.0474871 1.76062e-22)
(0.707792 0.021862 0)
(1.0505 -0.0230784 0)
(0.477035 0.021285 -1.73167e-20)
(1.04375 0.00438658 -1.71428e-23)
(1.03347 0.00176386 -3.14099e-21)
(0.78047 0.0131954 -9.3741e-21)
(1.02172 0.00126879 1.47395e-21)
(1.02233 -0.00702923 0)
(1.02575 0.00439203 -1.02638e-21)
(1.02521 0.0035979 -1.25276e-21)
(1.03729 -0.00181793 3.73344e-22)
(1.01699 -0.000136714 -5.86491e-22)
(1.02821 0.0040212 -6.84341e-24)
(1.01792 -0.000233047 0)
(0.900215 -0.0627645 0)
(0.930539 -0.00552912 6.7656e-21)
(1.04744 7.01837e-05 0)
(-0.0149835 0.0757029 5.58104e-20)
(1.0628 -0.0246671 0)
(1.02511 0.00344778 -1.30229e-21)
(1.02685 0.00492777 -2.04792e-21)
(1.0279 0.00519059 -5.12606e-22)
(1.02115 0.000934008 0)
(0.843728 -0.0649321 -6.50628e-22)
(1.06561 0.0151406 -9.55862e-21)
(1.02485 0.000712921 4.29812e-21)
(1.05042 0.00752421 3.85359e-21)
(1.02559 0.00222526 -4.22765e-22)
(1.01973 5.4536e-05 -1.637e-21)
(1.04629 0.00346408 0)
(1.04077 -0.0226575 0)
(1.02776 0.014723 0)
(1.03768 -0.0167836 1.40982e-22)
(1.05586 -0.00741591 0)
(1.05935 -0.0197415 -1.15011e-20)
(1.03818 -0.0169979 -2.87385e-21)
(1.01135 5.36668e-05 8.98272e-23)
(1.00794 0.0164578 0)
(1.04363 -0.0233899 -3.43197e-21)
(0.979129 -0.0218122 0)
(1.04269 -0.00204746 2.21791e-21)
(1.04446 0.00491343 -9.38443e-21)
(1.02317 0.00033713 1.83531e-21)
(1.02552 0.00421858 0)
(1.01877 -0.000177599 5.13416e-22)
(0.739583 -0.0455606 -6.495e-22)
(0.984972 -0.0394757 1.03948e-20)
(1.04344 -0.000400163 -4.81201e-22)
(1.02432 -0.00371222 0)
(1.0272 0.00490729 0)
(1.02074 -0.000191623 -1.35313e-21)
(0.751261 0.0560669 4.94493e-22)
(1.02257 0.00235555 -5.23687e-22)
(1.02101 0.000860632 0)
(1.0464 -0.00456007 0)
(1.02235 0.00242311 0)
(0.947881 0.0775158 2.40098e-21)
(1.01822 -0.00424649 -9.90474e-22)
(1.03746 -0.00534254 -1.67752e-21)
(1.03765 -0.00228908 -2.32933e-21)
(1.05293 0.00149521 5.66489e-21)
(1.02353 0.000671409 -7.96004e-22)
(1.02321 -0.00318681 0)
(1.02157 0.000162685 0)
(1.04913 -0.000490755 0)
(1.02044 -0.00028001 -4.58704e-23)
(1.02329 0.00223844 0)
(1.02196 0.0014008 7.16811e-22)
(1.02926 0.000584183 -5.47996e-23)
(1.02955 0.00102467 -7.11537e-23)
(1.02621 0.00358079 -3.12314e-22)
(1.02537 0.000264872 -7.32532e-21)
(0.932891 -0.0255988 4.66328e-21)
(1.05808 0.00461537 9.27899e-21)
(1.03512 0.0113992 1.24603e-21)
(1.01954 -0.0231566 -6.26877e-22)
(0.652896 0.0021777 -1.77559e-20)
(1.03817 -0.0178394 1.52025e-21)
(1.02127 0.000944546 -2.72163e-21)
(0.888405 0.0107625 1.91895e-20)
(1.02162 -0.00124639 2.84272e-21)
(1.02407 -0.00397035 -9.18081e-22)
(1.03946 0.00459886 -9.2726e-22)
(1.01924 -0.014824 0)
(1.0233 0.00239886 0)
(1.04428 0.00510572 8.87817e-21)
(0.74759 -0.0459471 0)
(1.02519 -0.00848155 2.55116e-21)
(1.03233 0.00340543 0)
(1.02934 0.000854676 0)
(1.02101 -0.000251004 -1.50011e-24)
(0.908132 0.00932892 -2.28357e-20)
(1.05098 0.000100796 6.66801e-21)
(0.961386 0.0500172 -1.051e-22)
(1.03147 -0.0248694 0)
(1.02463 0.0026713 0)
(1.02445 -0.000456428 7.37496e-22)
(1.05674 -0.00121707 -1.08281e-20)
(1.02323 0.00174453 9.92029e-22)
(1.03685 -0.000597033 -2.91052e-21)
(1.03267 -0.0322317 0)
(1.03195 0.0033028 -6.08976e-22)
(1.02476 0.00275505 4.28265e-24)
(1.03117 -0.00168971 -7.34266e-22)
(1.02007 -0.000163132 3.49647e-23)
(1.04224 -2.03758e-05 -3.5477e-21)
(1.04971 -0.0191012 3.70174e-21)
(1.02199 0.00143359 8.02867e-22)
(1.02332 0.000634229 1.6589e-21)
(1.04422 -0.00771281 0)
(1.02318 -0.00384709 1.39894e-21)
(1.01961 -0.000196438 3.62657e-21)
(1.05272 0.00716772 0)
(1.02088 -0.00118448 1.99673e-21)
(1.05417 0.0134976 0)
(1.02589 0.0034468 -1.39245e-22)
(1.03357 -0.0154404 7.393e-22)
(1.00868 -0.0300525 -5.25645e-21)
(1.02298 -0.00159901 -2.75223e-22)
(1.0231 -0.0036834 -2.36041e-21)
(1.0224 0.00163886 -7.82924e-22)
(1.0536 0.0138726 0)
(0.993213 0.0151224 0)
(1.00974 -0.0139458 -1.05718e-21)
(1.02119 0.000139911 1.44305e-22)
(0.971336 0.06608 6.83167e-22)
(1.02913 0.000708325 0)
(1.02335 0.0017971 0)
(0.856597 0.0129695 -4.3632e-21)
(1.05243 0.00728249 5.69526e-21)
(1.02085 -0.00116075 -1.01454e-21)
(1.05166 -0.000281379 2.09331e-24)
(1.02504 0.00221642 -4.13483e-22)
(1.0262 -0.0052899 -6.46776e-24)
(1.02008 3.53457e-05 -6.47525e-22)
(0.7611 0.0122032 2.72318e-20)
(1.04375 3.62179e-05 5.9537e-22)
(0.915826 -0.00308509 0)
(1.0489 -0.0116197 2.28033e-21)
(1.0275 0.00460546 2.62507e-22)
(1.04715 0.0019502 0)
(0.928508 0.057474 0)
(1.02445 0.00674709 1.44626e-21)
(0.86694 0.0130034 1.28992e-20)
(1.02235 -0.00139352 0)
(0.371197 0.011523 -7.68017e-21)
(1.01977 1.88226e-05 7.79535e-22)
(1.02219 -0.00318569 0)
(1.05013 0.00537912 0)
(0.984212 0.0152085 -2.25977e-21)
(1.01584 -0.00144221 0)
(1.03473 0.00261634 -1.73207e-21)
(1.02217 -0.00349105 2.6736e-21)
(1.04516 -0.00942385 6.84987e-21)
(1.01361 -0.00805548 0)
(1.04087 -0.00519221 0)
(1.05287 -0.0205755 0)
(0.910422 -0.139564 7.15658e-22)
(1.01345 -0.000252367 6.55102e-22)
(1.05235 0.0137731 -2.55425e-21)
(1.04369 0.000363904 -2.07293e-21)
(1.04185 0.000118852 -3.28746e-21)
(1.02182 -0.0018233 -3.36626e-21)
(0.825105 0.013368 -4.8984e-21)
(1.04409 0.00425948 -4.44348e-21)
(1.07014 0.000949538 -5.61032e-21)
(1.02653 -0.00408078 -1.13938e-22)
(1.02102 -0.000757923 0)
(1.02461 -0.000980733 7.3352e-22)
(1.03625 -0.00902582 0)
(0.628808 0.0173863 1.52832e-20)
(1.03161 0.00280571 0)
(1.02394 -0.00693558 2.63377e-21)
(1.02869 -0.00674305 -4.89244e-22)
(1.02697 -0.00703743 5.07156e-22)
(1.02064 -0.000450032 -1.31616e-21)
(1.02093 -0.000236277 6.01449e-24)
(0.941839 -0.0241769 0)
(1.02605 -0.00853879 -1.55077e-21)
(1.02642 -0.00531855 0)
(1.02249 0.00177124 -7.07983e-22)
(1.02225 -0.00307783 -9.05152e-22)
(1.06103 -0.0125047 -2.08943e-22)
(1.05853 -0.024644 4.65467e-23)
(1.02373 -0.000838168 0)
(1.02891 0.000472806 -4.60143e-23)
(0.815427 0.0135143 9.84917e-21)
(0.702847 0.0180322 8.92515e-22)
(0.603936 0.0152939 6.21829e-21)
(1.04991 0.00398992 -1.18266e-21)
(1.05138 0.000899227 0)
(1.0587 -0.0177731 0)
(1.01724 -0.00860612 0)
(0.277664 -0.0429795 -3.58039e-21)
(1.02727 -0.00135166 0)
(1.05687 -0.00238212 0)
(1.02577 0.00215478 -2.72073e-24)
(1.04607 -0.000717472 0)
(1.04981 0.00370425 0)
(1.05319 -0.0213867 0)
(1.02003 -0.000585793 1.53453e-21)
(1.0263 -0.00683228 1.64745e-21)
(1.02571 -0.0084112 1.07564e-21)
(1.01879 -0.00116947 1.5449e-21)
(1.06632 0.00275948 2.88543e-21)
(1.06047 -0.0202164 -7.91822e-21)
(1.06206 0.0649612 3.14789e-22)
(1.02484 0.00224659 8.94202e-22)
(1.03153 9.13172e-05 -3.93389e-22)
(1.02469 0.000359804 -3.66389e-24)
(1.05655 0.00764721 4.73972e-21)
(0.874543 0.00668832 1.81868e-20)
(0.601067 0.0226509 -8.71906e-21)
(0.364602 0.015072 -9.73044e-21)
(1.04355 0.00117656 -6.15644e-22)
(1.02344 0.00230315 0)
(1.03091 -0.0310126 -1.31526e-22)
(1.02129 0.000558878 -9.91539e-22)
(1.05477 0.00329756 -6.05487e-21)
(1.02623 -0.00830096 4.86303e-22)
(1.02288 0.0021707 -1.35561e-21)
(1.02212 -0.00241608 1.70138e-21)
(1.03746 -0.00462453 9.08658e-22)
(1.05784 -0.00573844 -7.69322e-21)
(0.7856 0.0122563 8.94682e-21)
(1.02132 0.000819011 0)
(1.05965 -0.0149361 -6.45344e-21)
(1.0371 -0.0180829 -1.72364e-21)
(0.595686 -0.0420539 0)
(1.0273 -0.0192362 0)
(1.02568 0.00336337 -4.93735e-22)
(1.03599 -0.00882581 -9.08493e-22)
(1.03115 0.00473011 0)
(1.0526 -0.018666 7.09934e-21)
(1.02279 0.000337305 0)
(0.665596 0.0194846 -4.30522e-21)
(1.02573 0.00302822 -1.91233e-23)
(0.961917 -0.00644162 6.33165e-21)
(0.833101 0.0135057 -2.71427e-21)
(1.0372 -0.000784744 0)
(1.05484 0.00553181 -7.91949e-21)
(1.04957 -0.0115172 -2.52091e-21)
(1.05098 0.00668812 4.83937e-21)
(1.02379 -0.00334949 0)
(1.0254 0.00196962 0)
(1.02345 0.00242004 -2.11391e-21)
(0.655793 0.0208517 -4.70074e-21)
(0.697457 0.0171439 -4.43877e-21)
(1.02005 -0.000564789 -1.55554e-21)
(1.02551 -0.00861545 -1.24669e-21)
(1.02837 0.0053815 8.55528e-23)
(0.732043 0.0187873 0)
(1.048 -0.0126006 0)
(1.02663 -0.00422621 7.74738e-22)
(1.05094 0.000872797 0)
(1.02649 -0.000834831 -7.57816e-22)
(0.978086 0.00705841 6.14843e-21)
(1.03652 -0.00746446 1.39706e-21)
(1.04908 0.00658886 2.56605e-23)
(1.04491 -0.00855639 0)
(0.843527 0.0130366 -8.85484e-21)
(0.715594 0.0178543 1.24282e-20)
(0.802243 0.00470241 0)
(1.02289 -0.000761448 -3.79548e-22)
(1.02084 0.000666433 -1.54296e-21)
(1.05704 -0.000718311 1.25709e-20)
(1.03178 -0.00499646 6.56037e-22)
(1.02092 0.000714315 1.51105e-21)
(1.02395 -0.00348527 0)
(1.01993 -0.000207517 -2.10874e-23)
(1.02938 -0.000610926 2.30272e-22)
(0.897253 0.0109079 0)
(0.980819 -0.00780456 9.47803e-21)
(0.705795 0.0184557 0)
(1.05186 0.00577956 -5.48969e-21)
(1.0193 -0.000752703 -1.389e-21)
(1.05137 0.00164507 4.04783e-21)
(0.011977 0.0214929 9.1032e-21)
(0.637275 0.0197534 -8.33894e-21)
(0.815766 0.0136648 3.40706e-21)
(1.04894 4.06057e-05 1.63227e-22)
(1.02253 0.00188845 0)
(1.02253 0.00169669 -1.50304e-21)
(1.02495 -0.00865059 5.02405e-23)
(1.05842 0.0165338 -7.45452e-21)
(1.01744 -0.000465485 -1.70641e-21)
(1.02014 -0.000682523 0)
(0.0205504 -0.00139521 -1.82484e-20)
(1.02335 -0.0109022 8.72879e-22)
(0.611608 -0.046675 -3.94447e-21)
(1.02094 -0.000685048 -9.08621e-22)
(1.06128 0.00914852 0)
(1.04385 -0.00730848 -2.36101e-21)
(1.04969 0.00443719 -9.87859e-23)
(0.621809 0.0191732 1.26283e-21)
(0.869689 0.00758231 -8.59437e-21)
(1.02309 -0.00963037 2.63855e-21)
(1.02119 0.000942773 0)
(1.04244 -0.0212724 2.83749e-21)
(1.02299 -0.00454926 5.38242e-22)
(0.472028 -0.0098951 -1.06217e-21)
(1.05121 0.00656055 6.54445e-21)
(0.532858 -0.00685566 0)
(0.915636 -0.135076 -1.11698e-21)
(1.07059 0.0123575 -2.52269e-21)
(1.02181 0.0013078 -7.5908e-22)
(1.03649 -0.00398974 -6.21694e-23)
(1.03018 -0.0239013 -5.60653e-23)
(1.05673 -0.00624302 -3.29158e-22)
(0.260039 -0.0431594 6.41974e-21)
(1.04234 0.00635865 3.48241e-21)
(1.02354 0.00213932 6.30472e-22)
(1.0211 0.000123689 1.08718e-21)
(1.026 -0.00551322 -2.04726e-21)
(1.02706 -0.00104342 1.41921e-22)
(1.03855 -0.00787133 1.39796e-21)
(1.06123 -0.00482322 0)
(1.02256 0.00175295 -1.10661e-21)
(1.02396 0.00212141 2.50525e-24)
(1.03002 0.00158082 4.57381e-23)
(1.01918 0.000996703 -5.74988e-24)
(1.03655 -0.0162417 2.49344e-21)
(1.01876 -1.43194e-05 0)
(1.06152 0.003095 0)
(1.02166 0.0012266 -1.39794e-21)
(1.04402 -0.00684518 -2.62285e-21)
(1.05536 -0.00180519 0)
(0.800328 0.0139521 -2.21258e-22)
(1.06554 0.00455595 0)
(1.02906 -0.000637292 9.14187e-23)
(1.02419 0.00311206 -7.60771e-22)
(1.04993 0.00305189 -4.92359e-21)
(1.05484 0.00513838 7.7448e-21)
(1.02434 -0.001225 0)
(1.02094 -9.88678e-05 0)
(1.03622 -0.035297 5.06478e-21)
(1.0278 0.00484366 -3.47175e-22)
(1.03129 -0.02425 0)
(1.0503 0.00776289 -5.40886e-21)
(1.02514 0.00265148 9.10533e-22)
(1.0157 6.30287e-06 -6.10742e-22)
(0.589152 0.018517 -2.65529e-21)
(0.733946 -0.0475558 -6.43986e-21)
(1.0279 0.00380648 0)
(1.02243 0.00179813 1.06992e-21)
(1.02087 -0.000551774 9.13923e-22)
(0.7151 0.0174135 1.6756e-21)
(1.02576 0.000212314 -2.374e-23)
(1.06653 -0.036652 -1.56722e-20)
(1.03114 -0.00188182 3.50484e-22)
(1.03875 -0.00750789 -1.43529e-21)
(1.03165 -0.00517346 -9.3214e-22)
(1.02151 -0.000916061 -1.79263e-21)
(1.04994 0.00526942 0)
(1.05953 -0.0182884 0)
(0.928954 -0.0393036 2.21133e-21)
(1.02417 0.00303002 7.31059e-22)
(1.03318 0.0163906 -1.98353e-22)
(1.0388 0.00366363 -3.2749e-21)
(1.03427 0.00437689 0)
(0.977582 -0.0126469 0)
(1.02196 -0.00193752 0)
(1.01851 -0.00177769 2.60998e-21)
(1.04356 -0.000706513 0)
(1.04748 0.00195842 0)
(1.02008 -0.000660406 0)
(1.05653 -0.00757909 0)
(1.02077 0.000132294 5.31224e-22)
(1.02081 0.000106077 0)
(1.02326 -0.000864723 0)
(1.00659 -0.000133053 1.30144e-21)
(1.02175 -0.0176926 -5.90992e-22)
(1.02102 -0.000829873 -1.8308e-21)
(0.916809 -0.125791 -4.66146e-22)
(1.01903 8.89799e-05 9.56868e-23)
(1.02508 0.0029902 -5.13807e-22)
(0.662649 -0.0407632 0)
(0.637623 0.0163383 0)
(1.04383 -0.0248104 0)
(1.02096 -0.000614928 -1.9131e-21)
(1.03511 -0.0103874 -6.16126e-22)
(1.02329 -0.000766192 0)
(1.02449 -0.00381008 4.26858e-21)
(1.03993 -0.0230887 -4.03946e-21)
(1.02223 -0.00129154 8.14055e-22)
(1.03423 -0.0145891 7.42634e-22)
(1.02046 0.000123217 1.6785e-21)
(0.641098 0.0193017 0)
(1.03157 -0.0326932 1.26871e-21)
(1.03196 0.00294155 3.60803e-22)
(1.01615 -0.00028806 -1.78116e-22)
(0.554039 0.000669508 1.58035e-20)
(1.02619 -0.00552804 1.3996e-21)
(0.887894 0.0135713 -2.36463e-21)
(1.06783 -0.0350268 1.71386e-20)
(1.01798 -0.000272188 0)
(1.02522 0.00235697 -8.75786e-22)
(0.557678 0.0209779 0)
(1.01572 -0.00470261 -1.7354e-21)
(1.03642 -0.0184634 1.13779e-21)
(1.04889 0.00651408 5.68658e-21)
(1.0544 0.0245968 -5.2218e-22)
(1.02122 -0.000938698 9.05936e-22)
(1.01946 2.28908e-05 1.34426e-21)
(1.05572 -0.0475174 0)
(1.02196 -0.00197918 0)
(1.01718 -0.000233628 0)
(0.804487 0.0124518 -9.05896e-21)
(1.00968 -0.0224004 0)
(1.05237 0.0142348 -6.4193e-21)
(1.04642 -0.000928992 -1.88977e-21)
(1.02316 -0.00358171 0)
(1.02543 0.00329848 0)
(1.02166 -0.00170215 -5.86521e-22)
(1.03158 -0.00137004 -3.37777e-22)
(1.02225 -0.00335699 -2.78293e-21)
(1.02861 -0.0177444 4.46154e-22)
(1.0494 0.00436105 -5.16882e-21)
(0.923061 -0.0588329 3.98174e-23)
(0.696746 0.0194786 1.3372e-20)
(1.03927 -0.0176201 1.2048e-22)
(1.04756 0.0161519 -1.9114e-23)
(0.760194 0.0126032 0)
(1.05271 0.00956122 -9.92202e-22)
(1.02189 -0.00200662 0)
(1.02268 0.00193643 6.98472e-22)
(1.02097 0.000855037 -1.67366e-24)
(1.03921 0.00629485 1.87501e-21)
(1.02458 0.00250927 0)
(1.02657 -0.00838989 -1.47505e-21)
(1.02292 -0.000661301 3.60569e-22)
(1.02319 -0.000377778 1.10873e-21)
(1.02372 -0.00037519 0)
(1.02343 0.00180071 -2.0054e-21)
(0.686514 0.0192747 1.02327e-20)
(0.841772 0.0126563 -1.14222e-20)
(1.02273 -0.000579034 0)
(1.05257 0.00988036 4.10766e-21)
(1.02606 0.00405244 -5.73234e-22)
(0.824102 0.0135948 0)
(1.04857 1.29426e-05 -1.55597e-22)
(1.05975 -0.016088 1.16342e-20)
(1.02055 -0.000435447 0)
(1.05274 0.00103953 -1.05337e-20)
(1.03341 -0.00594198 -1.63008e-21)
(1.02363 -0.0139086 7.73211e-22)
(1.03317 -0.00580634 1.37408e-21)
(1.03349 0.00473448 -9.21029e-23)
(0.711024 0.0196129 0)
(1.03389 0.00411011 1.18106e-21)
(1.05204 0.0051776 4.22246e-21)
(1.05053 0.0160995 5.23993e-21)
(1.01625 0.00021211 -2.20186e-22)
(0.853819 0.0129692 8.40655e-21)
(1.02165 -0.00170029 9.52377e-22)
(1.07009 0.012408 2.36507e-21)
(1.02492 0.0028179 1.54255e-21)
(0.631379 0.0211622 0)
(1.02561 0.00405704 -6.13887e-22)
(1.02339 0.00174416 4.3e-24)
(1.0475 0.00596792 1.12167e-21)
(1.00639 -0.0276145 0)
(1.05352 -0.000271289 4.44877e-21)
(1.02469 -0.000558824 7.06299e-22)
(1.01169 0.000252284 0)
(1.0571 -0.0116575 0)
(1.01583 -0.00642725 1.56387e-21)
(1.04631 7.06286e-05 0)
(1.02296 -0.0138057 0)
(1.05286 0.013372 0)
(1.02358 0.00230668 0)
(1.0684 0.00504001 0)
(1.06138 -0.026916 7.74917e-21)
(1.028 6.88371e-05 3.00851e-23)
(1.02256 0.00187445 2.03846e-21)
(1.03582 0.00485692 5.00982e-22)
(0.829361 0.0119878 8.53346e-21)
(1.02376 -0.000125259 -2.82782e-21)
(1.02515 0.000204214 6.92529e-22)
(1.05548 0.00981953 9.18717e-21)
(1.04941 -0.0228906 -2.68009e-21)
(1.02799 -0.0140329 0)
(0.93788 0.0185302 -6.81061e-22)
(0.921799 0.00694337 -4.92545e-21)
(1.02213 -0.00238443 -1.73051e-21)
(1.02501 -0.00513633 -4.21892e-21)
(1.03402 0.00456149 0)
(0.848255 0.0129736 -1.35819e-20)
(1.02219 -0.0078548 2.2248e-21)
(1.02657 -0.00376732 1.34522e-21)
(1.0642 -0.0253937 -5.87407e-21)
(1.03564 -0.0120395 1.24985e-21)
(1.05588 0.0097814 -1.0853e-20)
(1.0496 0.00302247 1.31119e-20)
(1.02308 -0.0034281 0)
(1.01016 9.14802e-05 0)
(0.998482 -0.038749 0)
(1.03464 0.00617077 0)
(1.03709 -0.0158119 -2.1101e-21)
(1.03987 0.00444903 2.08475e-21)
(1.01925 0.00133947 -9.57472e-22)
(0.917373 0.0339287 3.86467e-21)
(1.05096 0.00165066 1.76582e-21)
(1.03059 0.0148917 9.05761e-23)
(1.03052 -0.0233151 6.14233e-23)
(1.03419 -0.0151846 4.13657e-22)
(1.02896 -0.00602301 2.60025e-22)
(1.051 0.0137075 0)
(1.02107 0.000918149 -7.11996e-22)
(1.01839 -0.000440383 -8.91535e-22)
(1.03127 -0.00114773 5.85001e-22)
(1.05344 -0.0189458 -5.12867e-21)
(1.03214 -0.00501508 0)
(1.02729 0.0101811 1.47892e-21)
(1.0196 0.00144109 2.47653e-21)
(1.04862 -0.0237423 0)
(1.02477 -0.00455722 0)
(1.01864 -0.000437159 9.64336e-22)
(1.02103 0.000903653 0)
(1.04566 -0.0200803 -4.28218e-21)
(0.862006 0.00720498 0)
(1.04394 0.0011082 -4.32285e-21)
(1.05211 0.0141552 0)
(1.02968 0.0185605 0)
(1.02577 0.0132115 0)
(1.02751 0.00529617 5.30568e-22)
(0.997984 -0.0254736 1.40483e-21)
(1.02302 0.00222894 -1.32618e-21)
(1.02122 0.000756368 -2.79911e-21)
(1.02187 0.00134987 -1.43226e-21)
(1.02385 0.0020692 6.21935e-22)
(1.03243 -0.00879531 2.99171e-22)
(1.05636 -0.0148208 0)
(1.02154 -0.0012785 -2.69493e-21)
(1.04957 0.00680885 0)
(1.02121 0.000721331 1.99538e-21)
(1.02656 -0.000685167 4.43802e-22)
(1.02114 -0.000983223 -8.36157e-22)
(1.03139 0.00227594 0)
(0.878343 0.0132428 0)
(1.02233 -0.0039303 4.17485e-21)
(1.03541 0.00884794 3.26861e-22)
(1.02228 -0.00124529 -7.97746e-22)
(1.02066 -0.000265169 -6.9575e-22)
(1.02336 0.00196349 1.23712e-21)
(1.04756 0.00400577 0)
(1.04071 -0.0061011 -1.90209e-21)
(1.02553 -0.00121847 -6.5137e-22)
(1.01905 -0.000439619 6.7631e-22)
(0.815665 -0.0390378 0)
(1.02301 -0.00318205 2.31103e-21)
(0.641817 0.0228065 -5.24531e-21)
(1.0211 0.000869688 0)
(1.02185 -0.00190602 8.82197e-22)
(1.03373 0.0535429 9.61619e-23)
(1.02335 0.00191618 -7.00451e-22)
(1.04275 0.0420238 -4.98269e-22)
(1.03348 -0.0290166 -5.40026e-22)
(1.03156 0.0162994 0)
(0.824034 0.0131811 0)
(1.02477 -0.00472796 -9.11489e-22)
(1.04461 -0.0216327 8.81579e-22)
(1.04127 -0.0278406 -2.38697e-21)
(1.05471 -0.00774382 9.0579e-21)
(1.03654 -0.00815713 1.55723e-21)
(1.02176 -0.00178187 -1.71604e-22)
(1.06042 -0.0276495 0)
(1.01703 0.00561667 -8.86029e-22)
(1.02448 -0.00669732 2.4586e-21)
(1.02421 -0.00743611 5.49708e-23)
(1.01963 -8.56318e-06 -2.12058e-21)
(0.971422 -0.00503786 -1.32733e-21)
(1.02215 -0.00437782 -4.1889e-21)
(1.00576 -0.0456217 0)
(1.04291 -0.00463311 4.02976e-21)
(1.0261 0.00212914 -8.60487e-22)
(1.03349 0.00295374 0)
(1.02773 4.59477e-05 0)
(1.01337 0.000971703 -9.96176e-22)
(1.02215 -0.00115572 -1.35306e-23)
(1.0626 0.00289289 1.2677e-20)
(0.985673 -0.0535975 -5.32631e-21)
(1.01951 0.000205034 0)
(1.05483 0.000710595 -5.69007e-21)
(1.026 0.00318975 1.77646e-22)
(1.02759 0.00302939 -7.73253e-22)
(1.0325 0.00359603 0)
(1.04329 -0.00481087 -5.01545e-21)
(0.681347 0.018904 6.78051e-21)
(1.02243 0.00169346 -1.10901e-21)
(0.886669 0.0103868 0)
(0.831848 -0.0335469 -8.70736e-23)
(1.0211 -0.00100117 9.45992e-22)
(0.748505 0.0271921 1.05634e-21)
(1.02433 -0.00460555 -2.27321e-21)
(1.02668 -0.00395301 -9.1268e-22)
(1.03934 -0.02608 -4.78362e-21)
(1.03968 0.00339305 -2.30521e-21)
(1.05372 0.00018351 -1.05046e-20)
(1.02161 -0.00127788 -1.86946e-21)
(0.677166 0.0202336 8.28893e-21)
(1.02172 -0.00167212 -1.70127e-22)
(1.04868 -0.0123793 -2.33887e-21)
(1.02743 0.00296953 0)
(1.07697 -0.00298611 1.15257e-20)
(1.03142 -0.00826746 -5.0875e-22)
(1.02629 -0.00785279 -1.86075e-21)
(1.02316 0.00101033 -8.84416e-22)
(1.05511 -0.00232784 3.91292e-21)
(1.02091 0.000709222 -3.08658e-21)
(1.04031 -0.0256714 0)
(1.0235 0.00110606 1.76938e-21)
(1.02155 -0.00161383 5.5704e-22)
(1.02114 0.000966223 -2.04894e-21)
(1.01048 -6.06671e-06 9.39654e-22)
(1.07231 -0.0161427 -8.52644e-22)
(0.722467 0.0180788 -2.7948e-20)
(1.02157 -0.0011401 1.78564e-21)
(0.85288 0.0101047 -9.6973e-21)
(0.671869 0.0224422 -1.09827e-20)
(1.04942 0.00676275 6.27391e-21)
(1.05694 0.0290951 0)
(0.925704 0.017616 4.82657e-22)
(0.898822 0.0132026 8.26084e-21)
(1.05714 -0.0144669 0)
(1.05791 0.0171198 3.06719e-21)
(0.916958 -0.1429 0)
(1.02344 0.00224985 -3.33294e-22)
(1.0211 0.000948396 1.71363e-21)
(1.05085 0.00198874 1.03521e-20)
(1.02405 0.000705672 4.30539e-23)
(1.01942 6.23169e-05 2.8322e-22)
(1.05647 -0.0102703 -6.76256e-22)
(1.04509 -0.0198305 8.33158e-21)