/*--------------------------------*- C++ -*----------------------------------*\
| =========                 |                                                 |
| \\      /  F ield         | OpenFOAM: The Open Source CFD Toolbox           |
|  \\    /   O peration     | Version:  v2012                                 |
|   \\  /    A nd           | Website:  www.openfoam.com                      |
|    \\/     M anipulation  |                                                 |
\*---------------------------------------------------------------------------*/
FoamFile
{
    version     2.0;
    format      ascii;
    class       volScalarField;
    location    "100";
    object      ddt0(omega);
}
// * * * * * * * * * * * * * * * * * * * * * * * * * * * * * * * * * * * * * //

dimensions      [0 0 -2 0 0 0 0];


internalField   nonuniform List<scalar> 
15335
(
-0.00296874
-0.000100976
-0.000442841
-1.90727e-05
0.00117293
-2.45533e-07
-0.000195164
0.00110516
-1.96799e-05
-0.00196333
-0.000426242
-6.90919e-06
0.00172293
-0.0118029
0.00202543
-0.0144046
6.39035e-07
0.00474235
-2.36257e-07
-0.0116458
0.000339561
0.000444283
-0.000184791
-1.50906e-07
-0.000582502
6.67382e-05
0.00130787
-0.000253352
0.00692732
-1.9378e-06
0.000293161
0.000819541
5.43627e-08
-7.40161e-07
-6.82362e-07
-0.00225323
-0.00115171
-8.35818
-0.00324064
-0.0124936
-0.000290608
-0.00696035
-1.37956e-07
-1.4379e-05
-0.00340017
-5.14576e-08
-0.000175556
-0.00107193
-0.00432477
-4.59022e-06
-1.22847e-07
0.00220056
-0.0225165
-3.00655e-08
-1.20711e-06
-0.000212378
-0.00124944
0.00191253
0.000678509
-0.000472156
-0.00126119
-0.0010666
6.04868e-05
-1.6156e-05
-7.66145e-07
-6.27681e-06
-0.00550926
0.00104183
-8.30537e-07
1.08171e-08
-3.16481e-05
-3.9745e-06
-0.000787169
-0.00121064
-0.00213036
-0.000571437
-0.000170356
-0.000107422
0.00488704
2.1659e-08
0.00151771
0.00183397
0.000953268
0.000773352
-7.00621e-05
-7.42705e-08
-2.26392e-07
-1.4087e-05
-2.14098e-06
-0.000389632
0.00194753
-1.62693e-05
-6.37251e-06
0.0135504
0.000734144
-6.36802e-06
-4.93015e-08
-1.9392e-05
-1.39176e-07
-1.36614e-08
-5.80458e-08
-0.000480445
-0.00661398
-5.00947e-05
-4.11609e-06
-1.86421e-05
-1.09094e-06
0.000579108
0.000601307
4.87559e-07
-0.00173112
-0.000288207
-8.45646e-08
-7.12844e-06
-0.0257312
-2.30942e-06
-2.80205e-05
-0.00360143
0.00157255
-0.0116301
0.00187649
-0.001412
-0.00123912
-0.000942145
-1.59699e-07
-4.05681e-07
0.00441408
-1.01631e-08
-7.60232e-05
-1.21938e-06
-6.81559e-05
-0.00294735
-1.03546e-07
0.000299249
-9.51949e-05
-3.58662e-08
0.00110944
0.00873783
0.00127935
0.00122603
5.01329e-05
-0.000619819
0.000588784
1.51323e-07
-0.000582063
2.41727
-0.00124026
0.000299562
0.00608267
0.000978153
-7.65079e-06
0.00113016
-4.98928e-07
-5.90506e-06
-0.00167005
-4.2901e-08
-1.82383e-05
-0.00377554
0.00021063
0.00154337
2.17214e-07
4.96418e-06
-0.000948977
-3.85246e-05
-0.00271781
-0.00413493
-0.00301246
-1.08274e-07
0.00495548
0.00483264
0.880828
-0.0171227
-0.000179703
1.47467e-05
-0.000451172
-1.95427e-08
-1.20649e-08
-0.00101715
0.0170235
-0.00152031
-0.000584744
-0.829163
-0.00116703
-2.45196e-05
-2.36212e-05
-0.00222774
-1.36751e-05
2.61978e-06
-0.00127138
5.01918e-05
-0.00196178
0.0334772
-1.31677e-05
-0.000694715
-0.0133843
0.00693353
-8.71835e-08
-0.00298414
-8.99251e-07
0.00315162
-1.72893e-05
-0.000177709
-0.00249944
-0.00203738
-0.00112199
-2.14197e-05
-9.83297e-09
-0.00860168
-0.000272071
-7.07201e-06
5.86116e-05
-1.68776e-09
-0.0016182
-1.52955e-06
-0.00559583
-0.00261949
-0.000545146
0.00127812
0.000229023
0.0239141
-2.1355e-07
-1.40295e-07
-1.55896e-05
-1.21088e-05
0.0021732
-0.0111272
-2.62302e-07
-0.0134519
-3.89215e-05
-0.00042704
-9.31147e-08
-4.34038e-08
-0.00376828
0.0106964
-0.00206188
-0.00280612
-0.000767368
0.000160687
-1.5765e-08
-0.019137
-0.000639292
-4.33189e-06
-0.001298
-2.61195e-05
-0.00155864
-1.182e-07
-1.41387e-06
-0.00199536
-0.00116972
-0.00119784
-0.00138274
-0.00527137
-8.10091e-08
-1.28718e-07
-2.17575e-05
-0.0052278
0.000981348
0.000144743
1.7477e-08
-6.89511e-06
-0.00870885
-7.82322e-08
-2.2261e-07
-2.46877e-07
-8.73506e-07
9.69576e-09
0.00168478
-0.00313958
-0.00319122
-1.77593e-07
0.00162164
-0.00342642
-0.00353467
-8.4398e-08
-0.00549992
-1.74742e-06
-5.03865e-07
-0.000248395
7.64001e-06
-3.389e-05
-0.0122301
-0.000316416
-4.73793e-07
0.000842287
-1.10438e-05
0.0013584
-0.000112895
-9.24289e-06
-1.61322e-06
-1.6172e-06
-0.00356193
-6.46683e-06
0.00205114
0.000640912
-8.21181e-06
0.935364
-2.00366e-07
-0.000208827
-6.65559e-07
1.61417e-05
-1.95328e-07
-0.000587018
-0.000374162
-0.000707285
-2.89032e-08
0.0053649
-0.00283338
-1.48245e-08
-0.00200187
-1.89941e-06
0.000339279
-1.00141e-06
0.00062482
-0.000967445
-0.00148189
-1.91531e-07
-4.34408e-07
0.00218451
-0.00647544
0.0209648
-0.178953
-7.07149e-07
-0.00610711
0.00262454
-1.88499e-05
-0.0016353
0.000309439
-0.000766273
-9.74417e-06
-7.35693e-06
-1.46204e-08
-0.000474818
-8.4559e-07
-0.000236564
0.000321126
-0.00822428
-0.00216277
-0.00300043
0.000887862
-0.0028054
-0.000174674
-0.000213237
-6.99826e-08
-0.000154826
-1.77928e-05
2.0247e-07
-8.94563e-07
0.00164558
-8.55194e-08
0.00153229
-0.000672871
0.000218234
-4.50078e-06
-1.6699
-0.00116983
-1.64292e-07
5.56946e-05
-1.29518e-05
-4.70504e-05
0.000328722
-8.92424e-06
-5.42894e-05
-1.11033e-05
-0.00479227
-2.9043e-06
-0.00156786
-0.00167273
-7.18987e-05
-6.37255e-06
-3.77378e-08
-0.00117458
-5.22845e-06
-4.56643e-06
0.00114339
-2.3757e-07
-0.0151731
0.00133482
-1.21741e-05
-0.105314
-0.00159422
-6.87516e-08
-7.82121e-06
0.000437532
-0.0037921
-1.4484e-05
-8.74891e-08
-0.000106476
0.000805897
-0.000531795
-0.0038517
-4.16777e-07
-1.81166e-06
-8.58973e-08
-0.000577803
-0.00175089
-0.0115716
0.000410105
-1.69775e-05
0.00182763
-0.00104731
-0.000103028
-0.000600755
0.00295529
-9.16478e-06
-3.21313e-06
0.000550797
-0.00405052
0.110633
-0.003728
0.000474834
0.000526013
5.39423e-05
-0.00120121
-0.00169705
5.82889e-06
0.00245902
0.00215233
-5.44921e-06
0.00129342
-0.000649883
4.57712e-05
-0.00107088
-0.000993523
-4.74798e-08
-0.000561032
-0.000640589
-0.000147495
0.00284369
-9.91257e-06
-0.000488519
0.00108652
-0.0157487
-0.00267102
0.00178709
-0.00383257
-0.00127519
-0.00069079
-0.000843004
-9.08243e-10
-1.08604e-06
-0.0154568
0.000242565
-6.98965e-07
-0.000343683
-4.55172e-05
-0.000363659
-0.013555
-0.000147099
-5.82329e-05
-0.00594665
-0.00142872
-0.00605528
-0.00148962
-4.86083e-06
0.000721598
0.000578862
-3.03864e-07
0.000337054
-0.00127977
-0.000730346
-0.000645722
-0.0826083
-0.000523235
-0.0010479
-4.57181e-05
-1.71175e-05
-1.15039e-05
-6.54636e-07
0.000936966
-0.000940968
0.000115324
-0.00035222
-0.00317533
-1.76676e-07
-1.06972e-08
-9.93488e-07
0.000650825
0.00161833
0.000204806
0.00186024
0.000675883
-0.012693
-1.96484e-05
0.0011473
-1.378e-06
-5.28127e-07
6.08598e-08
-0.000989039
-6.02488e-07
-0.00101465
-2.86226e-08
-9.60753e-06
-2.8559e-07
-0.000721652
-2.76989
3.51601e-09
-1.69087e-05
-0.000233683
0.000405438
-6.63339e-06
0.00306123
-1.06376e-05
5.75164e-05
-6.10058e-06
-0.00256034
-3.44569e-06
-4.07766e-07
-0.00126875
-2.85016e-06
1.30485e-05
-0.0034315
-3.797e-08
-1.87348e-07
-0.000870339
-0.0029654
-0.0131556
-5.4422e-06
-2.15556e-05
-2.01755e-06
-0.0715973
-0.000317395
-1.83248e-10
8.51967e-05
-0.00053155
-0.00111548
-0.000536544
-3.38738e-07
-0.000761233
-0.000833378
0.00104137
-0.000818281
-2.00695e-05
-0.00111022
0.00529275
-0.010484
-0.000150795
0.00017016
-0.00493675
-1.95262e-05
-0.000999508
-0.00133124
-0.00032902
-3.30539e-06
-1.06645e-05
-3.05497e-05
-9.43678e-09
0.000838062
5.1438e-05
-0.00353785
4.85625e-05
-2.94585e-06
-0.606712
-0.00118093
-5.9907e-05
-0.00178296
-0.000506244
-0.000824513
-8.31614e-09
-8.81124e-06
-1.09825e-08
-1.05733e-05
-0.00115881
-1.76955e-06
-1.91838e-05
-9.82934e-07
-0.00433695
-0.00612835
0.00187375
-0.00101668
-0.00310942
-6.90082e-07
-7.54447e-07
-1.9602e-07
4.24372e-06
0.00455915
-3.508e-05
0.0563479
-3.61851e-07
-2.81148e-05
0.00180907
-4.09183e-07
7.22176e-06
0.000897763
0.0047415
-0.0010176
-1.99304e-07
-7.07943e-06
-2.0698e-06
0.00228351
-0.0114391
-1.33082e-05
-3.47341e-09
-3.32707e-08
-1.68101e-07
-0.00105176
-0.000211682
2.59037e-05
7.6065e-05
-4.01932e-06
-0.000915713
-1.35302e-05
-5.18015e-06
-2.53374e-06
-5.70834e-07
-1.42667e-05
-0.000736053
-2.96957e-07
-0.0038764
-0.000875944
0.000248345
-0.00549364
0.00133964
-0.000878346
-2.55917e-05
-0.00109166
0.000367343
-5.96425e-06
-1.29442e-07
-1.40354e-05
5.53623e-05
-6.03422e-05
-3.5581e-05
-1.23383e-10
-0.0419197
-7.46483e-08
-1.07324e-05
0.00146467
2.36989e-05
-0.000225095
0.00652996
-1.82986e-05
-4.09065e-08
-1.10627e-06
-8.32703e-06
-1.01812e-09
0.00150754
-3.23741e-06
-0.00129677
-0.000219008
-3.14238e-08
-6.24633e-06
-0.000327297
-7.40845e-06
-0.00396841
0.00204045
-1.65262e-06
0.000159255
-2.14223e-08
-0.00101493
0.00553434
-0.000147143
-0.00269326
0.00161261
0.000218474
0.00474668
-0.00725801
-1.49044e-07
0.000197316
0.0010128
-0.00487774
-4.15438e-05
0.00502701
-8.66857e-08
-0.00414481
-1.08475e-05
-0.00246066
-2.81672e-07
-1.71002e-06
-0.00542581
-0.000954462
-1.86139e-07
-2.31321e-05
-1.53833e-06
0.17313
0.00109002
-1.29307e-05
-0.000619372
0.0253957
-0.0010372
-2.05912e-08
-4.10774e-05
-1.60984e-06
-4.57711e-08
-0.000181449
-6.56101e-06
-2.37891e-06
0.00115523
-1.33035e-05
-8.66069e-06
5.48141e-06
-8.75857e-07
-3.37408e-08
-0.00102418
-0.00219641
-1.85757e-07
-7.97195e-08
-0.000130005
-1.86939e-07
-0.00395565
2.82766e-05
0.00216696
0.00120207
-7.14766e-07
-0.000148461
-0.00146229
-6.3409e-05
-5.6129e-08
-0.00227363
-2.92655e-05
1.92781e-07
-0.139796
0.00117928
-2.6417e-05
0.00579932
-0.0122641
-2.53486e-05
-4.81499e-08
-0.000402203
-6.88301e-08
-6.9384e-06
-3.44939e-05
-7.8277e-10
-1.98842e-06
-0.000111592
-0.246707
0.0012244
-6.86623e-06
-0.00104715
-3.48072e-08
-0.000411443
-0.0110859
-3.6634e-05
0.000793188
-0.00820722
-0.000265478
-0.000281743
-8.58396e-05
0.000615363
0.000424217
-0.00646213
-0.00439907
-2.00461e-05
-0.00281969
-0.00597611
0.138266
-3.80911e-06
-0.000378416
-0.000157551
8.04699e-05
-1.27905e-05
-0.00182327
0.000548578
-0.00398802
-4.21044e-07
0.0486196
-4.78219e-05
-0.00120997
-0.00122154
-1.60263e-06
-1.76215e-05
-0.000713883
-0.00457491
-0.00385939
-2.05954e-05
0.000417703
-6.03049e-08
-0.0040686
-2.27687e-05
-5.58325e-06
0.00512647
-2.59425e-07
0.000301142
-1.81664e-05
0.0012851
4.00156e-06
1.46519e-05
0.00172889
-1.89493e-07
-6.83729e-07
0.0008056
-0.00338618
-1.94794e-05
-1.03117e-07
-6.08761e-06
-0.0030748
-0.00113528
-0.0123838
0.00130287
-1.58151e-05
-8.63108e-08
0.0038276
-0.000516594
0.000114745
-1.69419e-05
-1.52975e-05
-0.000874946
-1.78456e-07
-1.16517e-07
-2.00126e-05
-0.00896715
-0.00170386
-6.95145e-05
-7.42392e-08
-0.000984784
-0.00102353
-3.37066e-07
-4.8186e-07
-1.65503e-05
-8.44207e-08
-0.00187593
-0.00334822
-2.01453e-07
-1.0418e-07
-2.85782e-08
-8.75232e-07
-1.25606e-07
-2.63179e-08
0.00132457
7.49697e-05
-7.99485e-06
0.000565064
-1.82499e-07
-6.41834e-06
-5.19428e-06
0.00620035
-0.00718057
0.000481727
-1.15385e-05
3.89042e-09
0.000869703
-6.90743e-07
-0.00165365
-1.01022e-05
-0.000314006
-0.00942718
-0.00113399
-1.92074e-07
-6.40161e-07
-0.00136397
-0.00118513
-1.50406e-05
-1.05229e-05
-1.96921e-07
-0.000670101
-2.36205e-05
-1.58523e-05
-1.99422e-06
-1.15268e-08
-0.00127822
-1.36179e-05
-7.59394e-08
-0.0959587
0.000884763
-0.00229152
-0.00143718
-0.000689618
-3.70734e-08
-0.00441044
-3.9354e-05
-0.216616
-1.53783e-05
2.36093e-05
-0.000906696
-9.21671e-06
0.0010205
-0.00861299
-3.18715e-08
3.80581e-05
0.000559335
-4.39281e-07
-0.000346273
-4.97875e-06
-1.96572e-06
0.00244731
-0.000828316
-6.44526e-07
-0.00156997
0.00306839
-6.08149e-08
-9.57381e-07
0.000141275
-0.00608871
-0.00520371
-1.28785e-07
-1.94872e-05
-3.31828e-05
-0.0011985
-0.000558571
0.003994
-0.000928089
-1.56741e-06
0.000840028
-5.81177e-06
-0.00148768
-3.49969e-06
-0.00122646
0.00404612
-3.2702e-06
-1.50888e-08
-1.77958e-05
0.00489153
0.00458826
-4.96447e-07
-2.22384e-07
0.00091975
-3.76508e-07
0.0510741
-0.0226671
-1.01077e-07
-4.09814e-07
-2.67286e-05
-1.19801e-05
0.00222025
0.547989
-6.98743e-07
-6.1439e-06
-6.68186e-05
-6.48471e-06
0.000384675
-5.97517e-05
-0.000263522
-1.40828e-07
-1.05573e-07
-0.000933892
-1.4748e-05
5.45676e-08
-0.000718533
0.000788624
-9.38407e-07
-0.0721392
-3.57859e-07
-6.22353e-06
-3.02274e-07
-0.00211577
0.000831983
-3.45948e-07
-1.6228e-06
0.00298206
-1.04047e-05
0.000349513
-4.29639e-06
0.00434889
-3.24741e-07
-2.25287e-05
-8.20373e-07
-0.0101637
-3.92371e-05
-3.27829e-06
-2.42423e-05
-0.00104752
-5.98857e-06
-0.0013559
-0.0121988
-1.85661e-05
-9.11827e-08
0.00331399
-0.101167
-1.63571e-07
-0.000531468
-3.01339e-07
-0.000502994
-0.00160685
-1.29325e-09
-0.000767814
-1.60804e-07
0.000577301
0.00390569
-0.000962236
-2.46428e-05
-0.00491057
-3.51507e-08
0.00213395
2.46464e-07
-1.04543e-05
-0.00370648
-0.0016797
-0.00182944
0.00155935
-0.00239201
0.0177798
-0.00287761
-0.000339497
-1.85877e-05
-0.000534126
-0.017827
2.62607e-07
-0.205816
0.000282602
-1.06894e-07
0.00769003
-1.9693e-06
-0.000508386
0.000325519
0.105175
-1.47487e-06
0.141386
-2.17826e-07
0.000296569
-7.34608e-08
-0.00150806
-1.21599e-07
-0.00376955
0.000412405
-0.000337764
-0.000119657
-0.000934312
-1.99947e-05
-1.94073e-07
0.000131877
-0.00793823
0.00365853
-5.7532e-08
0.0045929
-3.9026e-06
-3.66171e-05
9.76474e-05
0.00254662
0.00332924
-3.61843e-10
0.00224453
-2.27506e-05
-0.000116537
-0.00104003
-0.00076353
-0.000656231
-5.61954e-08
0.00350598
0.00146945
9.82646e-07
-0.00875857
-3.12698e-08
-7.09259e-08
-2.03078e-07
-5.29587e-08
-1.27622e-05
0.0420111
2.10521e-05
-0.00806163
5.43498e-06
1.47281e-07
-4.30753e-07
0.000654597
0.0216224
-3.9436e-06
0.000167162
-0.00475031
-0.0387504
-0.000464661
-4.67556e-06
-9.26681e-05
-0.00540826
-3.81654e-07
-3.75814e-06
-0.0083699
-1.11155e-06
-0.00315713
-4.80297e-08
-1.24328e-08
-0.00337173
-1.60509e-05
-0.0011425
-0.00120763
7.03969e-05
-3.62405e-08
-2.09177e-06
-7.76374e-06
-0.000876553
0.00955559
-0.000406696
4.77045e-09
-1.45812e-07
-4.95029e-06
-6.81092e-08
-1.94371e-06
-4.3014e-07
-4.23445e-08
-5.01766e-07
-0.000257866
-7.67389e-07
-3.39884e-08
-0.00239681
-0.000419649
-3.87241e-06
0.000125707
-6.31271e-07
-2.24029e-06
-0.00128232
-0.0503942
-8.9846e-06
-0.000813328
-0.00191719
0.00645082
-1.21565e-07
-0.0105914
-0.000361402
-0.00256928
-0.000969035
-0.000802879
-0.000165237
0.245767
-2.65968e-05
-2.1057e-05
-0.00162976
0.00102955
-1.69423e-06
-1.70751e-07
0.00083055
0.00126046
-9.00953e-05
-4.62e-10
1.04233e-07
-0.000994906
-0.000289703
0.00293319
-4.01967e-05
-3.40191e-08
-0.000239426
0.00159153
-2.01277e-06
2.84653
1.84943
0.000103346
-0.0128689
-1.0196e-06
-2.30711e-05
-0.000457124
-0.00184387
-0.000150629
0.000989426
6.19496e-08
-5.58831e-05
-0.0016821
0.000457517
-1.81981e-07
-6.03365e-08
-6.29662e-05
-0.000459994
-3.71987e-10
-0.00354746
-6.13135e-06
-1.04903e-06
4.57434e-08
0.000669099
-0.00027682
0.000825754
-6.77865e-09
-2.19153e-08
0.00699032
0.0115427
-0.00031759
0.0767916
0.000434491
-2.32485e-05
-1.63428e-07
0.000365865
-0.000902205
-0.000917328
-0.00227157
-3.63488e-05
0.046573
-2.34139e-05
0.0030577
4.50585e-05
0.00204226
-0.000534184
1.30219e-08
-7.13136e-05
-0.000589285
-0.00072445
-4.31548e-06
-1.71146e-09
0.00101808
-2.58044e-05
-0.000448265
0.000730774
-0.000899387
-1.65939e-05
-0.00105927
-0.00116071
-2.71312e-05
-0.00186194
-0.0151231
-1.6859e-06
-0.00277521
-0.00317371
-0.135398
-0.000472452
0.000228664
-5.78539e-07
-0.00296253
0.00150593
0.0109161
-0.000584785
-0.000814426
-0.000737598
-0.00110005
-1.64082e-05
-1.67822e-07
-4.51961e-07
-1.0001e-08
-2.59993e-09
-0.00343857
0.00011111
-8.60625e-08
-1.7165e-07
-0.000806299
-6.95405e-07
-0.00974385
0.000660629
-0.0114515
6.9962e-06
-9.82282e-07
-0.000898601
-1.24631e-06
-0.00172141
-3.33066e-07
-0.00032821
-0.000701334
-0.00254688
-0.00122433
1.78557e-06
-0.00106252
0.000663634
-0.000415387
0.000498054
0.585548
-0.00048713
0.000736305
-0.00292964
-1.82341e-05
0.0025631
-1.60623e-06
-1.70187e-09
-6.64308e-05
-0.00053617
-0.000215745
-1.23827e-06
-5.64098e-07
-6.61029e-08
0.000376877
-0.000240302
-2.22041e-05
-3.85181e-07
-0.00369094
-2.51978e-05
-5.92268e-07
-8.01562e-07
0.000191763
0.222926
0.00187061
-9.14568e-07
0.000611857
-3.53307e-07
-5.58947e-06
-0.00266591
-5.7861e-07
-0.00140168
-0.00201001
-2.34037e-05
-3.95201e-05
-4.16851e-05
-1.77492e-07
-2.43242e-08
0.000277033
0.00255252
-4.58599e-05
-2.27613e-07
-2.55087e-05
-0.00372909
-0.00516972
-0.00134018
-3.94552e-06
-1.1947e-05
-0.000259696
-5.55423e-05
-0.00169769
-1.14357e-09
-6.86411e-07
-6.87408e-05
0.00168821
-2.08541e-05
0.000504285
-2.11822e-05
-1.91051e-05
-1.70166e-06
-8.79623e-08
5.24519e-05
-2.82762e-06
-8.49949e-07
0.0179823
-9.32447e-07
0.000222052
-4.54467e-08
-6.69335e-08
-1.29319e-05
-1.61194e-09
-0.000881067
-0.00636637
-0.00394917
-0.0051913
-0.00151581
-0.000786329
0.000484839
-4.41501e-06
-0.00370545
-0.0130586
-3.80581e-08
-0.00201708
0.071042
-0.00197111
-0.000266255
-0.00157534
-0.000987011
-3.52222e-09
-0.00144056
0.00142304
-0.0104774
-5.02961e-07
0.00232094
-1.12337e-05
-1.13686e-05
-4.36493e-05
5.08473e-06
0.000556481
-0.000968757
-0.00118351
0.00171933
0.000454382
-0.00778846
-0.000568327
-0.000219552
-0.00016409
-2.47627e-08
-0.00302449
-1.26465e-10
-0.000514641
20.3664
0.000535781
-0.00105725
-0.000375194
0.000605533
-9.44247e-08
-0.000660729
0.000150352
-1.26376e-07
-0.000737022
-1.29154e-07
-0.00035304
-4.46072e-07
-0.00024501
-0.0282548
-3.2057e-08
-1.13147e-05
0.000592186
-1.28976e-05
0.0143525
-2.24871e-05
-0.00113285
-3.16149e-07
0.00136916
-7.32885e-08
-1.56378e-05
0.00119554
0.000482193
-0.00871235
0.000350198
-0.00141148
-7.60531e-07
-0.00108999
-3.53811e-07
-1.49919e-05
0.000344026
-5.24764e-05
-0.00104204
-0.00130949
-3.36072e-08
0.00950748
-0.000422978
-4.55916e-08
-5.12241e-08
-0.000364058
-0.00156141
-2.50275
-7.60399e-05
-0.00233813
-0.00213428
-5.91016e-08
-0.000777216
-0.000948412
-1.46585e-05
0.0030584
0.00787027
-0.00331736
0.00900765
0.000417113
-1.92112e-07
-2.37643e-08
-1.48448e-05
-4.12183e-07
0.000332628
-1.18175e-10
-0.00328396
-4.68446e-08
0.000162608
-0.00292621
-0.00134391
0.00221362
-5.14839e-05
0.000106455
-2.42901e-09
0.0392415
-0.00139735
-0.000237919
-1.20588e-05
-2.00202e-07
-0.00340693
-0.000606943
0.000137918
6.35243e-05
-5.66632e-07
-5.93307e-06
0.000965068
-0.0134718
-3.66949e-06
-5.69604e-05
-0.00321638
-3.24586e-08
0.000757736
0.000587968
-0.00187575
-2.84741e-05
6.79412e-05
-0.000808395
-2.27316e-05
-8.05326e-05
0.0031386
-3.19787e-07
-0.00758889
-6.1739e-05
0.000483551
-2.31236e-06
-0.000913385
1.30304e-06
0.000688499
-1.14393e-05
-0.000541192
-9.52913e-06
-0.000312872
-1.14501e-05
-0.000753586
-1.70897e-05
-3.28841e-05
-0.000219143
-0.00118771
-0.0211364
-1.56846
-2.08844e-05
-1.06663e-05
-2.6752e-05
-1.9018e-05
-3.49479e-07
-0.00138099
-1.17193e-06
0.00213583
-9.26388e-06
-5.43784e-06
-0.000827206
-5.89967e-07
-2.85936e-08
-2.46833e-09
23.0053
-4.98748e-07
0.00145819
-8.16125e-06
0.00317929
-0.00040697
-3.98006e-05
-2.90769e-08
0.00265153
-1.17714e-05
-8.88019e-06
-1.56084e-06
-0.000884454
-4.34566e-08
-0.021652
-3.79461e-08
-0.000136461
-6.2422e-05
-9.38481e-06
-0.00125032
-0.00106228
0.00155843
-9.32055e-06
0.0033245
-3.08425e-05
-0.01134
-1.11194e-05
-6.06348e-06
-0.00118825
0.000955265
-3.40706e-07
-0.00495498
0.000643151
-6.0922e-06
-0.00481264
-4.51504e-06
-0.000446953
-8.15036e-06
-6.47651e-08
-5.05945e-06
-5.6002e-06
0.00189222
-3.11814e-07
-3.16712e-05
-0.00123795
-0.00705152
0.00301267
0.00012477
0.00020555
-2.60181e-08
0.00556987
-0.21313
-8.19054e-08
-0.000312345
-2.91258e-07
0.00150005
1.98943e-05
-0.0148638
-3.40664e-07
0.102223
-2.4041e-08
-0.0002616
0.0013721
0.00342737
-0.00318558
0.0013032
-0.00140118
-2.74794e-05
-2.32749e-06
6.55989e-05
-0.000361085
-0.00974848
-0.0010275
0.00452926
-1.11889e-07
-0.000426154
-2.16031e-08
-9.4374e-06
-8.45593e-06
-0.00229105
-2.61765e-06
0.00242235
1.1598e-05
-0.000206521
-0.000241524
0.000900683
0.000102588
-0.000138902
-9.72806e-06
-3.21323e-09
-2.3756e-06
-8.68232e-06
-1.23617e-05
-0.00259053
-7.40329e-05
-1.78745e-06
-1.43827e-08
0.000504033
-9.855e-05
-0.000450945
0.00373152
-0.00276253
-10.2899
0.0029905
0.000702574
-0.00313663
-1.81358e-05
-1.49522e-06
-9.17556e-06
-0.000290246
-4.60461e-06
-0.00209933
0.000577265
0.00697637
-3.74339e-08
-0.00106061
-0.00105844
-1.41284e-05
-0.000227154
-5.75296e-08
-9.09529e-06
-0.00120529
-0.00189992
-0.000723726
-1.23208e-05
-1.66861e-07
0.0020428
-6.53506e-08
-0.000647984
0.00067216
-2.14035e-05
-0.000620554
-1.05239e-05
-0.000498514
-5.51404e-06
-2.7552e-06
-4.14274e-06
0.00807176
-0.10152
-3.87423e-08
-0.000149953
-0.00407641
-4.70136e-07
-1.15673e-07
-4.72225e-05
-0.00188867
-0.000989969
-0.000941896
-4.19907e-06
-2.31247e-06
0.00413419
0.00340322
0.000669326
-3.76739e-05
-1.50286e-06
-3.93429e-06
-8.32352e-05
-2.41043e-05
0.00043187
-0.017006
-2.6491e-09
-0.0033069
-1.61882e-08
-0.000250609
-0.000149351
-3.74628e-05
-0.00120143
-2.65018e-05
0.00102703
-1.27396e-05
0.00423541
-0.00241078
1.92404e-05
-2.89095e-07
-2.93996e-07
0.00304326
-0.00099591
-3.8065e-05
0.000884574
-1.63759e-06
2.03715e-08
-1.05961e-05
5.71028e-06
-1.9993e-07
0.00121046
0.000562648
0.000121817
-0.000951771
-0.00110089
-6.89291e-07
-5.73112e-05
-0.000106587
-1.5887e-07
-2.44275e-07
-6.74391e-05
-2.91644e-06
-0.00124914
-0.000529439
-2.13121e-08
-5.1716e-05
-0.0191381
-5.32637e-08
-0.000268276
-7.77422e-07
-1.09529e-06
-3.32326e-06
-0.00057267
-0.011251
-0.00636831
-2.33404e-05
1.11668e-08
0.000108293
-3.05808e-09
0.00294222
-1.52929e-05
-0.00520304
0.00178068
-2.12978
0.000135347
-0.000370495
-2.23273e-06
-0.0047729
-0.000182387
0.000545385
-0.00108338
-4.4872e-05
-1.5149e-06
-0.000534752
0.00599595
-0.0763445
-0.000546036
0.00235079
-0.00104845
-0.000791959
-0.000162598
-0.000265184
-1.22779e-05
-0.000470438
0.000322803
0.00795869
-2.10289e-07
0.00284148
-0.000917061
-7.28772e-06
-2.7221e-06
0.000895846
-8.65057e-07
0.0317859
-0.00151941
7.71957e-05
0.146413
-6.88804e-05
-4.9912e-07
0.000821223
-0.000471715
-1.09842e-07
-0.00111182
0.125492
6.33619
-1.65101e-06
-0.00169686
-1.50887e-07
0.00432731
-2.44523e-06
-0.00103053
-2.44229e-06
-2.72195e-05
-3.7185e-08
-0.000291377
-0.0278538
-0.00115136
0.000555008
-0.000244855
-3.16665e-08
-0.00340709
0.00183564
-0.00268161
-0.000638692
0.00890049
-1.08801e-07
-1.09169e-07
-0.061938
-3.42832e-07
-0.00171243
-0.00105497
-0.00461998
0.0011377
-0.00124506
2.17754e-05
-0.000474965
-8.51167e-06
4.59253e-05
0.00734916
-1.64887e-06
-2.1966e-05
-0.00021876
-6.91786e-06
-8.57572e-08
-2.66496e-06
4.48851e-05
-3.08766e-07
-1.19528e-06
-0.00509489
4.57253e-08
-1.1089e-06
-1.36132e-05
-2.34966e-08
-1.72428e-05
-1.34147e-08
-0.00114031
-0.000485642
-0.000734132
-5.41831e-08
0.17646
-0.00479845
-1.26217e-06
0.000781139
-1.18178e-05
-1.17063e-05
-3.14104e-05
0.000318897
0.00039359
-0.000435927
0.0019359
-2.96912e-06
-0.00405507
5.01638e-05
-0.000140357
-8.1146e-06
-0.00192728
-0.000233538
-5.42506
-0.000633621
-1.54016e-06
0.0170628
0.00899554
-1.63938e-06
-0.000363286
-3.97762e-06
2.86242e-07
0.110953
-0.00227804
-0.234283
-5.4138e-07
-4.71939
-3.26503e-05
0.00452077
-9.45993e-05
-1.84667e-07
-8.18722e-07
-2.28905e-05
-4.97099e-06
0.00276349
-2.51351e-05
-8.14509e-05
-0.000312151
-7.348e-08
-4.13711e-05
-7.02289e-11
-0.00378097
2.38166e-05
-0.0116867
-0.0378116
-1.8502e-07
-9.06755e-07
-1.9588e-05
-0.000546267
-0.000259133
-0.00280461
-0.00502599
-2.71574e-07
0.0212672
-0.000584511
-6.02375e-07
-1.42773e-08
-3.06808e-05
-2.37338e-09
0.000234245
-0.000524609
-1.31288e-07
1.89156e-06
-0.0011463
-1.33189e-07
0.00806182
-2.00007e-05
-3.7734e-05
-0.00171446
-8.06196e-07
-0.00387393
-7.33957e-07
-0.00134167
-2.77453e-06
7.61044e-06
-9.0413e-06
-4.81908e-05
4.2023e-08
0.00437348
0.000936109
-1.39923e-05
-5.32446e-10
-0.00169843
-0.0429936
0.000368323
-0.00104337
-0.00262809
-1.55967e-06
-4.67756e-07
-0.000167402
-0.000158224
0.00265562
-7.11825e-05
-3.12929e-05
-2.72133e-05
-0.00109187
-7.72189e-10
-0.00161325
-3.34817e-06
-0.000798669
-2.98105e-07
-1.75583e-07
-7.82956e-06
-1.59871e-06
-0.000223899
-8.27296e-05
-0.0127057
0.00103577
-0.000962003
0.00132944
-3.70962e-06
-1.13648e-05
-6.09413e-07
-0.00610351
-2.03865e-06
8.62237e-06
-6.09935e-08
-3.06584e-05
-7.53891e-05
-0.00105697
-0.000868566
-0.000734556
0.000857698
-8.24775e-07
-0.00204174
0.136079
0.00404024
-0.000141208
-5.21949e-07
-1.04958e-05
-0.00122457
-1.61819e-06
1.56149e-05
-1.00515e-06
0.00025354
-1.17923e-05
0.00110953
-3.90706e-06
-5.96555e-08
0.000639353
-1.72488e-05
-0.000105193
-2.20365e-06
-4.53279e-07
-0.000477927
0.000389576
-1.81271e-05
-0.0132148
-1.2301e-05
-2.11621e-05
0.0869483
-4.88339e-05
1.21316e-05
-0.00105125
-0.0111801
-0.00571385
-0.00124809
-0.00228261
0.00404401
-0.00119117
-0.000531069
0.000747225
0.00413529
-3.97296e-05
-0.00396413
-1.41186e-07
-1.1898e-05
-0.00372418
-0.000541314
-0.00111141
1.02351e-07
-0.00304093
-0.0020394
-0.000318437
1.29832e-06
2.60807e-05
-3.06932e-06
0.000664095
0.00433478
6.07948e-05
0.000941393
-1.9879e-05
-5.46367e-07
0.000148374
-0.000504165
0.000997505
-0.00554249
-0.00217217
-0.000337895
0.00215417
-4.61512e-05
0.00142284
-8.67939e-07
-1.54845e-06
-5.41818e-05
-7.10218e-06
-1.43011e-06
-1.00233e-05
-3.52507e-05
-0.00241236
-0.000448911
0.0081528
-0.00108823
0.00116102
9.236e-08
0.000995425
-2.29485e-05
-1.62431e-07
0.000496946
-0.129963
-3.64292e-08
-9.84351e-07
-1.94956e-05
0.000403145
-4.59171e-05
0.0030006
-0.00754447
0.00267796
-5.55303e-06
-0.00657468
-4.39004e-06
-3.1121e-05
-0.000120948
-9.35153e-07
0.00696394
0.00030176
-7.99787e-07
-0.00147094
-0.000238501
-6.12889e-06
-2.33461e-08
-1.60389e-05
-1.07674e-08
-8.08609e-06
-0.00256448
-8.76051e-07
-0.000202864
-0.00149458
-1.61766e-07
-0.000272272
-3.7895e-06
-0.00094243
-0.00217926
0.000621328
-0.00218797
-0.000662058
-5.39097e-05
-0.000301549
-4.9636e-08
0.000192098
-7.62043e-07
-0.00424311
-0.0708101
0.000741625
-0.000703885
6.47677e-05
0.930945
-0.00394509
-7.67954e-09
0.00341952
0.00278015
-8.55127e-08
-0.000536505
-3.63139e-07
0.000405959
0.0363993
-0.00379778
-7.6412e-05
0.000241089
-0.00178046
-0.000763723
-5.52892e-05
-4.20903e-07
0.000127196
0.0135826
0.00402874
6.92579e-05
-3.01065e-07
0.000633375
-0.00506107
-3.38561e-06
-0.0022604
-2.1765e-07
-0.00014892
-0.00150761
-0.000408964
-5.99818e-07
-5.74916e-08
3.80456e-05
0.000140897
-2.05082e-08
-6.2923e-08
0.0223315
-1.70536e-07
-0.000580288
5.49282e-05
-6.35231e-05
0.000162384
-0.000270866
-0.00110678
0.000931099
0.000197296
-0.000131688
0.00228696
-3.64935e-06
-8.0095e-06
-0.000564176
-1.30896e-07
-0.0018936
0.0403423
2.24408e-06
-1.26914e-06
0.00155475
0.000567737
-0.000590779
-0.000545196
-3.15168e-07
0.000821487
-0.00106317
-1.401e-06
0.000562829
0.00248652
-0.000565185
0.00867034
-7.30831e-07
-6.17311e-06
-3.32327e-07
-4.85873e-06
-8.09231e-06
-7.78535e-10
0.000204232
-2.79873e-05
1.21e-05
-1.51351e-06
-0.000557304
-1.26106e-07
-1.47061e-08
0.00368714
-1.45841e-05
0.00370389
-0.000210622
-1.16735e-05
-7.94456e-07
0.000102561
0.00982072
-0.0433133
-2.42769e-05
0.011727
-5.43799e-05
-0.000923377
-6.93614e-06
-0.00152389
0.00117411
-3.30456e-08
-0.000651713
-0.00202405
0.000655174
-0.000296454
0.00017196
-1.7965e-06
-0.000290154
-0.00040027
-0.00101744
0.011903
0.000775596
-0.00220739
0.00102566
0.00158334
-0.000105704
-1.1101e-09
-0.000744757
-0.00320377
0.000415523
5.77015e-05
-0.000839796
-8.52864e-06
-0.00104123
-3.10682e-05
-2.10032e-05
-2.23057e-05
-0.000800621
-2.3087e-08
0.0190451
-2.86275e-07
-3.80684e-05
-0.0826186
9.45431e-08
0.00026255
-7.04967e-05
-8.52465e-07
-2.05575e-07
-1.38404e-06
-0.000968788
0.00113438
-1.34463e-05
-1.77272e-05
-1.00774e-05
-0.000970402
-0.000703085
-0.00133095
-0.000981012
-3.73032e-05
-0.00203167
-0.000624789
0.00379034
-0.00046876
0.000782987
0.0013371
-0.00098563
-3.11852e-08
-0.00134689
-0.000636973
0.000823886
-0.00109477
-1.56866e-06
-1.93677e-08
0.00461656
-1.38815e-06
0.000774779
-2.11989e-07
-0.000772235
2.70866e-06
-0.00103379
-0.000352596
-0.00199482
0.00150904
-0.0140888
-2.58825e-07
-3.8095e-06
-0.00125711
-0.00109698
-9.89959e-08
-0.00397125
-0.000641063
-0.000142054
0.00159875
-0.00228293
-4.03948e-06
0.00112473
-0.000923366
-0.000974383
-0.000723375
-0.000135219
-0.00107797
-0.00035743
5.78913e-05
0.00394146
-1.45785e-06
-4.64741e-06
-1.82084e-07
-0.00117996
0.00185418
-9.05746e-08
-1.2239e-05
-0.00163822
0.000571993
-0.000219248
-0.00605475
0.000773256
1.10122e-05
-0.00347194
0.00702442
-1.40877e-06
-0.00135633
-0.000964321
0.00136266
-4.17888e-06
-0.00188243
-6.86431e-06
-3.31921e-06
-0.00111055
0.00273041
-0.00104938
-0.0011766
-0.000108832
-0.00274341
-0.00100933
-0.000152566
0.000635952
-1.2225e-06
0.00028916
-0.000389611
1.46573e-06
0.000273929
-3.45446e-06
-4.57227e-05
1.33383e-06
-0.00141214
-0.0016627
-1.1785e-05
-0.000363713
-4.08937e-08
-0.0883455
-0.00899006
0.00034092
-0.00181698
-0.000364709
-6.53207e-06
-0.000678527
-0.000282422
-5.73025e-06
-1.47311e-07
0.00162946
-0.0112643
0.00179615
-0.0157309
-7.544e-06
-0.00147381
-1.45509e-05
-0.00106104
-8.77375e-06
-1.30568e-05
0.00183209
5.20022e-05
-0.000239736
-0.00191182
-6.92113e-05
-8.19971e-06
0.00505193
-0.0017272
-0.00196641
-0.000549162
-1.04487e-06
-1.48798e-08
-3.60602e-05
-0.00169065
-0.000496965
-1.32076e-05
0.00112841
-1.3377e-08
0.00113286
-5.50312e-07
-1.00003e-06
-1.83111e-07
-3.60802e-06
0.00254371
0.00100485
-6.39671e-07
-4.44349e-06
-1.38959e-05
6.1519e-06
-0.000112276
0.00141693
5.11786e-05
0.00206876
-9.22197e-08
0.0035235
-4.62083e-05
-0.00223866
-0.000775322
7.7412e-08
-1.02706e-07
-8.02042e-07
-8.21847e-07
0.00509985
-6.06586e-06
-9.05092e-07
0.351332
-0.0111814
-2.67266e-09
-5.00654e-06
-1.34287e-06
-0.129581
0.0678915
0.00126234
0.00201746
-0.000231682
-0.00016892
0.00131871
-0.0196743
-1.65646e-07
-1.68289e-07
-0.000378872
-0.000597769
0.00296789
-6.29332e-07
0.00172042
-0.00521984
-2.2134e-05
0.000709258
-0.00189998
-0.00113314
-2.61355e-06
0.00224745
0.00306782
-1.5674e-05
-1.20259e-05
-4.9505e-07
-0.00185519
-0.000272059
-0.0115714
-0.000470019
0.000506216
-8.19979e-06
0.000393984
-4.06791e-06