/*--------------------------------*- C++ -*----------------------------------*\
| =========                 |                                                 |
| \\      /  F ield         | OpenFOAM: The Open Source CFD Toolbox           |
|  \\    /   O peration     | Version:  v2012                                 |
|   \\  /    A nd           | Website:  www.openfoam.com                      |
|    \\/     M anipulation  |                                                 |
\*---------------------------------------------------------------------------*/
FoamFile
{
    version     2.0;
    format      ascii;
    class       volScalarField;
    location    "100";
    object      ddt0(k);
}
// * * * * * * * * * * * * * * * * * * * * * * * * * * * * * * * * * * * * * //

dimensions      [0 2 -3 0 0 0 0];


internalField   nonuniform List<scalar> 
15335
(
-7.98217e-06
-6.60858e-07
1.20397e-07
-2.97743e-08
6.02616e-06
-3.45886e-09
-6.93488e-08
-2.19685e-06
-1.89079e-08
-1.16161e-05
1.85333e-07
-2.27695e-08
7.21661e-06
-1.00478e-05
-4.1017e-05
-0.000118032
3.10263e-10
2.32372e-05
-3.22833e-09
-0.000128765
-2.72357e-05
-2.71152e-05
-7.0287e-08
-1.82539e-09
-4.19034e-07
-2.12828e-07
8.32221e-07
-6.16068e-07
2.59352e-05
-4.20674e-09
1.99976e-07
-7.82261e-05
4.19457e-09
-5.47668e-09
-5.48221e-09
-1.3726e-06
8.44728e-07
-0.0112008
-2.58455e-05
4.80363e-08
-7.38101e-08
-6.5395e-05
-3.53859e-09
-2.88936e-08
-1.47073e-05
-6.82031e-10
-2.29279e-06
-6.77586e-05
-2.35945e-05
-8.1454e-09
-1.69098e-09
-3.81501e-05
-5.42763e-06
5.18392e-09
-8.30229e-09
-5.50896e-08
-2.86675e-07
-4.50289e-05
2.07353e-06
-1.74315e-07
-4.77084e-05
-7.04807e-05
-1.29639e-07
-1.04794e-08
-8.74044e-09
-2.19668e-08
-0.000154659
-6.84221e-05
-1.0821e-08
1.733e-10
-2.68615e-08
-9.27683e-09
-4.90945e-07
-5.33804e-05
-0.000158059
-3.57879e-05
-1.01358e-07
6.19341e-08
-1.84078e-05
-1.85885e-09
9.37886e-06
8.40435e-07
6.4102e-06
6.68308e-07
2.48916e-07
-8.984e-10
-2.9005e-09
-2.90083e-08
-4.20763e-09
-6.67377e-07
1.05055e-05
-4.73063e-08
-2.11808e-08
1.87068e-05
2.88959e-06
-1.63038e-08
-6.57232e-10
-2.54797e-07
-1.79545e-09
-2.63308e-10
-3.60651e-09
-3.58907e-05
-3.34734e-06
-3.55237e-08
-1.53517e-08
-1.81016e-08
-8.02754e-09
1.76904e-07
1.48841e-07
4.25001e-08
-4.42165e-05
-2.89735e-08
-1.35353e-09
-2.29212e-08
-5.05315e-05
-4.94635e-09
-2.70801e-08
-3.24363e-05
9.03651e-06
-2.88368e-05
1.03281e-05
-7.76791e-05
-5.36879e-05
-3.14221e-05
-2.72583e-09
-3.13246e-09
3.32965e-07
1.81886e-10
-4.9362e-08
-7.73165e-09
-1.70824e-05
-1.68021e-05
-1.09937e-09
-3.78006e-08
1.77135e-08
-5.14039e-10
6.91744e-06
4.12971e-05
-1.38231e-07
-3.77202e-06
-5.09553e-08
-6.66999e-07
1.52632e-07
8.30728e-10
-4.52478e-05
0.00218023
-5.15247e-05
6.00226e-08
-7.39182e-07
5.29824e-06
-1.69198e-08
-7.24432e-05
-3.41343e-09
-1.58711e-08
-5.4495e-05
-5.68532e-09
-5.52169e-05
-2.15386e-05
1.64498e-07
-7.27395e-05
-4.19055e-09
-1.66076e-08
-3.70852e-05
-1.76565e-08
-2.67171e-05
-1.58814e-05
-2.02387e-05
-1.50484e-09
4.4138e-05
1.95406e-06
0.0135612
-4.13446e-07
-5.20924e-05
1.28555e-07
-3.36303e-07
-7.69775e-10
-1.61349e-10
-2.98492e-05
-0.000594683
-7.52617e-05
-4.54259e-07
-5.71523e-05
-5.08572e-05
-2.20411e-08
-2.23469e-08
-2.70436e-05
-1.99797e-08
-2.11092e-09
-5.16221e-05
-1.6964e-05
-4.01167e-06
2.64002e-06
-2.55522e-08
-4.40962e-07
-2.1487e-05
1.69225e-05
-1.0931e-09
-1.74901e-05
-3.78821e-09
1.01388e-05
-2.46555e-08
-1.36922e-07
-2.30334e-07
-4.29127e-06
-3.01993e-06
1.0791e-07
-1.32804e-10
-1.27801e-06
-4.9253e-08
-9.51914e-09
3.99857e-07
-3.65664e-09
-5.68535e-05
-4.50747e-09
-3.98093e-07
-4.69718e-07
1.38542e-07
-6.63082e-05
-4.96559e-08
5.68692e-06
-2.44709e-09
-1.73748e-09
-2.03484e-08
-2.7002e-08
1.27609e-06
-8.10681e-05
-3.52784e-09
-9.55789e-06
-2.88767e-08
-0.000128499
-1.12548e-09
-5.74166e-10
-2.75145e-05
5.53761e-07
-2.0816e-05
-3.59475e-07
-4.8721e-07
-4.82989e-08
-2.10227e-10
-6.46667e-05
-6.15689e-05
1.37616e-07
-5.19929e-05
-2.42683e-08
-5.14653e-06
-1.53606e-09
-4.95016e-09
-4.69301e-06
-7.41552e-05
-7.56156e-05
-2.10286e-06
-4.65664e-06
-9.05567e-10
-1.65335e-09
-2.57132e-08
-8.01621e-06
-5.43135e-08
-1.39561e-05
2.14555e-10
1.3143e-07
-6.30189e-06
5.86135e-09
-2.52831e-09
-3.31578e-09
-1.20366e-08
6.77499e-11
-6.32191e-05
-2.65698e-05
-2.23347e-05
-1.89632e-09
-5.84746e-05
-2.11197e-05
-2.35962e-05
-9.99745e-10
-2.0464e-05
-4.37547e-09
-4.3588e-09
-1.42873e-08
-1.68048e-08
-2.76558e-08
-8.17638e-06
-3.11599e-05
-6.0933e-09
-5.90629e-08
-2.26398e-08
6.94166e-06
-5.50969e-05
-1.88863e-08
-3.10267e-09
-7.3336e-09
-1.72352e-05
-2.11522e-08
8.32263e-07
5.01025e-07
-1.36825e-08
0.00520802
-2.61113e-09
-1.13648e-07
-5.34484e-09
-1.41276e-05
-2.92361e-09
-6.12532e-05
-3.39071e-07
-0.000101686
-3.62927e-10
-2.81253e-06
-2.00425e-05
-1.98254e-10
-0.00016624
-1.31369e-08
-9.3925e-06
-1.06271e-08
3.90164e-07
-3.64796e-05
-0.000160447
-2.61603e-09
-3.27632e-09
-1.39362e-05
-0.000136164
1.4523e-06
-1.1281e-06
-9.13455e-09
-2.35447e-06
1.25186e-05
-1.73935e-08
-5.49114e-05
-1.03843e-05
-0.000132426
-2.07388e-08
-1.67638e-08
1.73168e-10
-4.78254e-07
-4.08158e-09
2.12102e-07
5.05947e-07
-3.00337e-06
-1.26908e-07
-2.585e-05
7.72161e-07
-1.47715e-05
-5.00139e-08
-1.12383e-07
-8.60886e-10
-6.42579e-08
-3.12893e-08
3.55986e-10
-5.40962e-09
-7.32801e-07
-1.10636e-09
9.09393e-06
-4.40752e-05
-9.29673e-06
-9.79728e-09
0.00360099
-3.20225e-06
-2.30279e-09
4.8004e-08
6.56487e-08
-4.16085e-08
-5.78588e-08
-1.83737e-08
-3.90146e-08
-2.28046e-08
-0.000166115
-1.51765e-08
1.76666e-06
-1.49478e-07
-5.04122e-08
-1.3891e-08
-5.47386e-10
-0.000104094
-8.57066e-09
1.32166e-07
-7.13941e-05
-2.68671e-09
-5.46223e-05
-6.31976e-05
-2.66425e-08
-3.9797e-05
-5.69048e-05
-8.87191e-10
-1.34943e-08
2.97477e-06
-0.00017609
-2.04346e-08
-1.13048e-09
-1.17853e-08
5.92767e-07
3.08682e-06
-1.38375e-05
-2.24184e-09
-4.10788e-09
-1.12505e-09
2.36094e-06
-0.000160722
-3.72234e-06
1.81092e-06
-2.99226e-08
2.4362e-07
-7.16312e-05
-6.35104e-08
-5.26032e-08
1.22908e-05
-2.06549e-08
-1.10789e-08
-3.66169e-08
-0.000161524
0.000118426
-2.82108e-06
1.18323e-07
2.14536e-07
-1.17289e-08
-0.000160588
-4.57622e-05
5.16718e-07
-1.42811e-05
1.011e-05
-1.31893e-08
3.09406e-06
2.42559e-08
5.99474e-09
-2.68724e-06
-3.41238e-05
-6.32559e-10
-3.409e-07
-0.000117449
-1.02857e-07
-1.82935e-06
-1.87886e-08
-2.60206e-07
-4.12095e-05
-4.51733e-05
-5.41847e-06
-3.26857e-05
-2.72746e-05
-3.88406e-07
-6.2632e-05
-1.40459e-06
-5.93137e-11
-7.46948e-09
-6.63938e-05
-1.22612e-05
-5.91409e-09
-8.6793e-07
-3.98838e-08
-1.62367e-07
7.08744e-05
-1.11325e-07
-5.44533e-08
-0.000161153
-2.95525e-06
-0.000162663
-2.41832e-07
-8.55409e-09
-4.53111e-05
-4.37182e-05
-3.64133e-09
-2.64083e-05
-5.35528e-05
-5.93043e-08
-6.24916e-05
-8.91063e-05
4.98725e-07
-7.23164e-05
-4.11757e-08
-1.68917e-08
-1.78049e-08
-3.56272e-09
2.49251e-07
-4.03241e-05
-3.14156e-07
3.82786e-08
-0.000178581
-2.18201e-09
-1.46422e-10
-1.03187e-08
-9.60311e-07
-5.46282e-05
-1.31341e-05
6.17917e-07
9.0509e-07
-1.9926e-06
-2.81636e-08
7.82679e-06
-3.54431e-09
-7.56736e-09
-2.9626e-09
-7.38433e-05
-5.69054e-09
-5.02084e-05
-3.66519e-10
-6.82306e-10
-3.84735e-09
-0.000119445
-0.000247709
-3.80313e-10
-2.97273e-08
-6.24972e-08
1.06091e-08
7.27985e-08
-2.04373e-06
-2.18641e-08
6.77684e-08
-2.18601e-08
-6.74111e-06
-1.09827e-08
-4.68332e-09
-2.04961e-06
-1.5161e-08
1.23528e-08
-0.000178725
-4.91707e-10
3.10863e-10
-1.89067e-06
-1.51905e-06
-3.00864e-05
-1.52939e-08
-2.04519e-08
-1.12779e-08
-0.000384001
-0.000146384
-2.66778e-12
-1.34731e-05
-0.000145659
-5.20351e-05
-3.47052e-05
-2.65027e-09
-6.36025e-05
-6.40253e-05
6.1472e-06
-1.52825e-06
-2.84141e-08
-6.93489e-05
6.47773e-07
-7.64398e-05
-1.72648e-07
-2.67135e-05
-9.44828e-06
-2.78473e-05
-4.94109e-05
-4.61114e-05
1.2725e-07
-1.11298e-08
-1.99974e-08
-1.31549e-07
-1.27683e-10
-3.03952e-07
8.14505e-09
-1.52091e-05
-2.44619e-08
-4.34288e-08
0.000134628
-7.55361e-05
-5.71544e-05
-5.68823e-05
-3.41172e-07
3.59607e-08
-9.43356e-11
-1.7853e-08
-3.84777e-11
2.14438e-08
-7.46347e-05
-1.05911e-08
-2.69727e-08
-6.46135e-08
-3.12404e-09
-0.000152926
3.65814e-06
-1.30349e-06
-2.63576e-05
-5.4634e-09
-3.98481e-09
2.30985e-09
8.28441e-09
1.30876e-05
-9.38878e-08
1.21497e-05
-4.64094e-09
-2.64113e-08
9.76795e-06
-5.37785e-09
3.79846e-07
-3.95902e-05
2.1823e-05
-2.39349e-06
-2.1976e-09
-1.30975e-08
6.59211e-09
-3.15199e-05
-0.000140982
-1.29147e-08
8.35007e-11
-4.12605e-10
2.75405e-10
-3.06653e-05
-1.52738e-07
5.26591e-08
-2.85081e-05
-1.05508e-08
-1.02733e-06
-2.65007e-08
-1.25018e-08
-8.94855e-05
-4.56824e-09
-2.11583e-08
-4.23125e-05
-3.85658e-09
-5.58229e-06
-0.000145009
-4.93252e-08
-1.80048e-06
-6.61248e-05
-6.33779e-05
-1.83323e-08
-6.36262e-05
1.3465e-07
-1.05431e-08
6.55851e-10
-1.31434e-07
-4.58146e-08
-8.91339e-05
-2.62669e-08
-1.73822e-12
-0.000156417
-1.00422e-09
-2.19853e-08
8.03415e-06
-1.29084e-08
9.01503e-11
2.03794e-05
-2.4005e-08
-5.39342e-10
-1.3158e-08
-9.49811e-09
-1.33233e-11
-3.14289e-05
-1.00648e-08
-4.61346e-08
-2.94183e-06
-4.17971e-10
-1.29782e-08
-3.10782e-06
9.14177e-10
2.65615e-07
-4.40264e-05
-6.27078e-09
1.64474e-07
-2.80498e-10
-7.14957e-05
2.26476e-08
-0.000139751
-1.75829e-06
9.22397e-06
-1.01369e-05
1.21417e-06
-0.000158613
-2.01138e-09
-4.75302e-08
2.60827e-07
-2.26326e-06
5.59721e-09
1.67193e-05
-1.23236e-09
-0.000163402
-1.70355e-08
-1.62011e-06
-3.90064e-09
-1.02036e-08
-7.90709e-08
-6.30368e-07
-1.81967e-09
-3.29829e-08
-9.95712e-09
-4.26532e-06
2.72188e-06
-3.01034e-09
-6.46921e-07
9.00581e-06
-4.77735e-05
-2.73973e-10
-5.84932e-05
-5.10044e-09
-6.13322e-10
-7.0913e-08
-7.7978e-09
-4.67641e-09
4.22707e-06
-2.07077e-08
-1.39646e-08
9.03117e-09
-3.97001e-09
-4.62069e-10
-7.08461e-05
-0.000171627
-1.89234e-09
-1.12979e-09
5.08865e-08
-2.42774e-09
-2.1796e-05
6.42574e-07
1.08844e-05
-6.74577e-05
-5.92875e-09
2.97887e-07
-7.45938e-05
-3.92138e-08
8.55935e-10
-9.34159e-07
-2.72308e-08
-3.53635e-09
-0.00503273
4.48693e-06
-2.50606e-08
1.57427e-05
-3.83778e-05
-2.35488e-08
-8.01003e-10
-8.45377e-05
-7.69174e-10
-1.29463e-08
-2.64564e-08
-9.82799e-12
-1.09739e-08
7.80697e-08
-0.000163589
9.01043e-07
-2.73386e-05
-2.71745e-05
-4.57947e-10
-3.09818e-05
-7.66343e-06
-3.14726e-08
1.00497e-06
-3.23687e-05
-1.01598e-06
-9.31457e-07
-5.83875e-08
-2.50971e-06
-2.49382e-07
7.21531e-06
-1.17113e-06
-1.8282e-08
-2.64152e-07
-3.64625e-07
-0.000151069
-1.73104e-08
-2.98961e-08
-5.33639e-05
-8.58477e-09
-1.94138e-08
-5.48682e-05
2.50927e-06
-2.72313e-05
-3.26434e-09
1.33398e-05
-1.63454e-05
-7.45819e-05
-3.75326e-06
-9.07318e-09
-3.09298e-08
-1.12566e-06
-2.28906e-05
-2.73054e-05
-2.38894e-08
-3.22586e-06
-7.66442e-10
-3.75309e-06
-3.19475e-08
-1.02035e-08
2.45883e-05
-3.51579e-09
-1.90898e-05
-2.34968e-08
5.3894e-07
-2.96445e-08
-1.19675e-08
1.04832e-06
-5.03198e-10
-5.74676e-09
9.86674e-07
-1.26261e-05
-2.77723e-08
-1.33293e-09
-8.69222e-09
-1.90328e-05
-3.95107e-08
-8.54581e-06
-6.4512e-05
-2.04493e-08
-1.62118e-09
1.61703e-05
-3.18534e-07
-2.74533e-05
-2.36928e-08
-1.61073e-08
-3.95049e-08
-3.62525e-09
-7.3055e-10
-2.37166e-08
-9.06563e-05
1.09379e-06
-6.13536e-08
-8.44973e-10
-1.24284e-06
-2.82545e-05
-2.53538e-09
-4.27346e-09
-5.59012e-08
-1.07734e-09
-0.000158213
1.28205e-06
-2.43781e-09
-3.50092e-09
-1.31657e-10
-5.53652e-09
-1.31316e-09
-4.27944e-10
-6.47262e-05
9.00025e-08
5.62867e-09
1.99417e-06
7.30592e-11
-2.16522e-08
-1.46133e-08
2.34815e-05
-8.49546e-07
-2.63174e-05
-1.41098e-08
-5.77201e-10
1.34641e-06
-5.3439e-09
-5.67767e-05
-1.66575e-08
6.00116e-08
-4.66986e-05
-2.56266e-05
-3.49212e-09
-8.30931e-09
-0.000159579
-7.5424e-05
-2.19109e-08
-8.548e-09
-2.28917e-09
-5.26177e-07
-3.33546e-08
-2.2188e-08
-4.73229e-09
-1.76787e-10
-2.48651e-05
-1.44343e-08
-8.97528e-10
1.2616e-05
1.67043e-06
-1.37809e-06
-2.81686e-06
-6.09189e-08
-4.76548e-10
-1.04006e-05
9.9397e-08
0.000299451
-1.61944e-08
-6.28713e-09
-4.1347e-08
-3.32301e-08
9.75523e-07
-1.0141e-05
-4.55636e-10
-2.6328e-08
-5.51128e-08
-3.97315e-09
1.0025e-07
-1.70916e-08
-4.16045e-09
-1.48782e-05
-6.32675e-05
-3.85454e-09
-5.69058e-05
-1.92065e-06
-8.33014e-10
-5.21199e-09
7.01162e-08
1.20106e-07
3.02422e-07
-1.70797e-09
-4.86572e-08
-2.5081e-08
-7.41333e-05
-3.66841e-05
7.80457e-06
-6.01652e-07
-8.87768e-09
5.56706e-06
-1.58345e-08
-6.19071e-08
-1.01617e-08
-7.55562e-05
-7.11478e-06
-8.47298e-09
-1.88624e-10
-2.34063e-08
1.52379e-05
-2.62493e-05
-3.61412e-09
-2.87349e-09
-5.65416e-08
-4.59863e-09
5.57233e-06
5.1981e-06
-1.3336e-09
-4.53723e-09
-5.40992e-05
-1.90554e-08
-2.60917e-05
-0.0283939
-4.54724e-09
-1.18254e-08
-8.78243e-08
-1.41071e-08
-4.89322e-08
-5.45442e-08
-1.28294e-07
-2.37728e-09
-1.39271e-09
-4.78067e-05
-1.6764e-08
-1.20596e-09
-4.2043e-05
4.6935e-06
-6.05764e-09
-1.11881e-05
-4.59024e-09
-1.21172e-08
-3.57114e-09
-2.61379e-05
1.69784e-06
-2.57533e-09
-1.14823e-08
1.364e-06
-2.12878e-08
-6.5371e-08
-1.5508e-08
1.64325e-07
-2.65211e-09
-7.74521e-08
-3.65316e-09
-1.68714e-05
-1.75709e-05
-1.11549e-08
-2.23284e-08
-4.87203e-05
-1.2517e-08
-7.44204e-05
-0.000111223
-1.81053e-08
-8.77675e-10
2.84441e-06
-3.04317e-05
-2.44907e-09
8.94012e-07
-3.70979e-09
1.47007e-05
-1.01057e-05
-1.68417e-11
-6.35779e-05
-2.50595e-09
2.37211e-06
1.85229e-06
-2.02613e-05
-2.30245e-08
-2.24344e-05
-4.99068e-10
-1.58216e-05
-1.12386e-09
-2.00183e-08
5.3331e-07
-5.69243e-05
-1.39575e-07
-5.70092e-05
-3.11586e-05
-6.49252e-06
-1.28869e-05
-7.84137e-05
-2.40306e-08
-6.63558e-05
-6.69051e-06
1.41392e-09
-2.09833e-05
4.13117e-07
-1.09007e-09
1.36235e-06
5.21365e-08
-1.36559e-07
2.63798e-06
1.3799e-05
-8.52439e-09
1.61111e-05
-2.37176e-09
-2.14914e-07
-9.40786e-10
-7.31105e-05
-1.5754e-09
-2.23167e-05
-7.17127e-06
-2.91614e-07
4.0136e-08
-6.92645e-05
-3.62371e-08
-2.02592e-09
-4.19259e-07
-4.88734e-06
1.40651e-06
-7.58091e-10
2.32296e-07
-1.74023e-08
-3.05663e-08
-1.49561e-07
1.26682e-05
-3.37996e-06
-4.67324e-12
1.21769e-05
-8.81141e-08
-1.51877e-07
-3.04454e-05
-6.36337e-05
3.04084e-06
-7.4084e-10
5.67828e-07
-6.06801e-05
-1.05256e-09
-4.91981e-06
-4.11816e-10
-9.65495e-10
-2.50629e-09
-7.0976e-10
-2.76167e-08
7.52756e-06
-1.8504e-08
-0.000141906
-5.12889e-08
-1.37472e-09
-4.07359e-09
-2.00955e-06
4.23901e-06
-1.43484e-08
-4.81418e-08
-2.26659e-05
-3.71821e-05
-6.70716e-05
-3.57853e-09
-1.33648e-07
-7.88817e-06
-4.43898e-09
-9.45231e-09
-1.81515e-06
-1.36085e-08
-2.1288e-05
-6.33525e-10
-1.66181e-10
-2.46388e-05
-3.27223e-08
-2.44191e-06
-5.81488e-05
-2.05981e-08
-5.15537e-10
-1.14089e-08
-7.08852e-09
-4.17717e-05
2.29741e-05
-1.67854e-06
3.96498e-11
-2.40286e-09
-1.45875e-08
-3.68963e-12
-4.27112e-09
-3.85138e-09
-5.60809e-10
-3.57632e-09
-2.71736e-08
-1.01751e-08
-4.23344e-10
1.83298e-07
-1.85786e-05
-7.17899e-09
-1.26939e-05
-3.45803e-09
-4.1861e-09
-8.29702e-06
4.87089e-06
-1.43736e-08
-3.86674e-05
-6.76049e-06
2.99953e-06
-1.51901e-09
-1.01729e-05
-1.26827e-05
8.39381e-08
-7.02333e-05
-3.84043e-05
-3.21854e-05
6.8414e-05
-2.56274e-08
-2.43216e-08
-7.21053e-05
2.10412e-07
-4.86198e-09
-2.10334e-09
6.26029e-06
-2.82279e-08
-5.1462e-05
-5.94144e-12
-1.99441e-09
-7.01671e-05
4.54005e-08
-3.99528e-06
-3.56394e-08
-4.50461e-10
1.56611e-06
-5.33085e-05
-3.76324e-09
-5.38221e-05
3.0567e-05
-5.82551e-07
6.68368e-07
-5.16706e-09
-3.26687e-08
-4.79687e-08
-0.000139646
8.68935e-08
5.43358e-06
-2.62754e-09
6.71181e-08
-5.44082e-05
1.02979e-06
-9.72313e-10
-8.5153e-10
-3.0502e-08
-2.53109e-08
-4.96531e-12
-7.91208e-06
-6.51013e-09
-7.77025e-09
6.33561e-10
-9.63179e-07
9.46793e-07
-1.58415e-05
-7.74326e-11
-2.76139e-10
2.22297e-05
3.15764e-06
-6.60556e-08
1.3796e-05
-4.69844e-08
-2.67983e-08
-8.13202e-10
-8.10329e-06
4.52866e-07
-6.3303e-05
-1.23702e-05
5.73631e-08
3.39012e-06
-3.40028e-08
-9.60202e-06
3.60265e-08
8.99058e-06
-1.6184e-06
-4.67072e-10
-3.89289e-08
-4.88942e-08
-6.41233e-05
-5.49671e-09
-2.29133e-11
2.20588e-06
-2.25839e-08
-6.56364e-05
1.45986e-06
-2.24459e-06
-2.12003e-08
-3.13957e-05
-7.4347e-05
-2.2074e-08
-5.1078e-05
-5.3951e-05
-5.98069e-09
-1.83436e-05
-1.22016e-05
-1.61579e-06
-0.000108196
-8.70396e-06
-3.431e-09
-1.23561e-05
3.23124e-07
-3.61655e-05
-1.16579e-08
-4.25209e-05
-1.2657e-07
-2.39074e-06
-3.07666e-08
-1.59363e-09
-4.81926e-09
-1.2837e-10
-3.35638e-11
-1.56685e-05
1.10776e-07
-1.17816e-09
-2.65349e-09
-6.35797e-05
-9.3191e-09
-1.06122e-05
-6.61163e-06
-1.44373e-06
7.64108e-08
-7.24696e-09
-9.2296e-05
-5.54508e-09
-5.97318e-06
-4.30188e-09
-4.59369e-05
-5.23414e-07
-1.1906e-06
-5.83872e-05
2.21121e-09
-4.33656e-05
-1.65415e-05
1.2637e-06
-2.33437e-06
0.000799737
-3.46168e-05
-4.51959e-06
-1.83853e-05
-2.24459e-08
4.97004e-06
-8.53568e-09
-2.1338e-11
-4.13962e-08
-2.85954e-06
-2.87261e-05
-7.66688e-09
-3.0358e-09
-9.16711e-10
1.46471e-07
-1.04744e-07
-2.54152e-08
-4.62741e-09
-1.68014e-06
-2.49342e-08
-7.83866e-09
-9.28013e-09
2.00027e-09
-0.000519031
-2.54005e-05
-5.63182e-09
1.15692e-07
-4.97026e-09
-6.61405e-09
-2.79625e-05
-5.20327e-09
-7.29395e-05
-2.39146e-05
-2.65768e-08
-3.53428e-08
-3.81692e-08
-1.95977e-09
-3.15141e-10
-9.59923e-09
6.65958e-07
-4.03037e-08
-2.76076e-09
-2.49618e-08
-6.18772e-06
-8.11381e-06
-1.33517e-07
-1.41956e-08
-2.25921e-08
3.7551e-07
-3.95894e-08
-5.49368e-05
-1.58945e-11
-9.37719e-09
-4.57001e-08
-2.99097e-05
-2.42099e-08
3.10227e-06
-2.9861e-08
-2.30131e-08
-5.90084e-09
-1.15396e-09
1.23248e-07
-1.24882e-08
-4.62816e-09
1.39543e-06
-7.54453e-09
-2.42174e-05
-6.04847e-10
-9.52699e-10
-2.70587e-08
-2.24886e-11
-6.4202e-05
-0.000139221
-1.43783e-05
-6.44194e-06
-4.70588e-06
-4.88812e-08
-3.87708e-08
-7.93334e-09
-2.37104e-05
6.15682e-06
-4.80163e-10
-7.39313e-06
0.000110816
-3.76983e-07
-9.53233e-05
-2.09519e-05
-4.71203e-05
-4.78057e-11
-1.52896e-06
-6.79489e-05
-1.50323e-06
1.74861e-09
1.14669e-05
-5.52749e-08
-2.35349e-08
8.53107e-11
-3.59441e-08
3.76412e-06
-4.85437e-05
-3.06291e-08
-2.89902e-05
2.59998e-08
-4.33303e-06
-1.11041e-07
-1.80531e-07
-1.19879e-07
-2.90106e-10
-2.33644e-05
-1.73075e-12
-4.50581e-05
-0.00744465
2.70053e-06
-3.15034e-05
-1.35084e-08
3.91955e-07
-4.17995e-10
-0.000110706
6.2704e-08
-9.68708e-10
-6.35511e-05
-1.70547e-09
-2.94658e-07
-3.11318e-09
1.52564e-06
-0.000191604
-4.07972e-10
-1.19212e-08
2.23698e-06
-1.77702e-08
8.29614e-06
-2.53461e-08
-2.65903e-07
-4.3186e-09
-2.73376e-08
-9.66082e-10
-2.09028e-08
5.01085e-07
-1.2097e-05
-5.35818e-06
-1.14804e-06
-4.56118e-06
-4.62994e-09
-5.13877e-05
-2.89576e-09
-2.17038e-08
5.23155e-08
-2.95316e-05
-1.37986e-06
-6.20906e-05
-4.24656e-10
3.76833e-05
-2.23466e-08
-5.37845e-10
-6.5163e-10
-0.000130473
-0.000155444
-0.000160026
-9.92674e-08
-5.33807e-06
-7.30975e-06
-7.00611e-10
-6.54049e-05
-6.32315e-05
-2.03056e-08
1.50708e-05
1.45287e-06
-8.66507e-07
4.23984e-05
3.64272e-06
-2.65651e-09
-3.09846e-10
-1.95983e-08
-4.75658e-09
2.76945e-06
-1.20189e-12
-3.7487e-06
-6.32845e-10
-5.15029e-05
-2.09805e-07
-6.07845e-05
-1.88607e-05
-2.94625e-08
-2.43581e-05
-3.13004e-11
8.91678e-06
-4.15326e-06
-2.03293e-06
-1.7657e-08
-1.99275e-09
-0.000139137
-8.596e-05
-5.17349e-05
2.75245e-08
-4.20178e-09
-5.97729e-09
0.000162014
-0.000282685
-1.25122e-08
-2.98672e-08
-2.25756e-05
-4.28086e-10
1.76706e-06
-4.23836e-08
-1.94783e-05
1.46744e-08
-4.64538e-07
-5.55814e-05
-2.60843e-08
-4.2622e-09
-2.92536e-07
-4.40703e-09
-4.47763e-06
-2.65347e-08
-5.32003e-06
1.23069e-08
-6.95266e-05
1.8376e-09
1.93996e-07
-2.36501e-08
-0.000103246
-1.44603e-08
-1.54234e-05
-1.28319e-08
-3.76547e-06
-2.38159e-08
-1.43e-08
-5.76611e-08
-1.87385e-06
-2.00577e-05
0.00139125
-2.27117e-08
-3.74819e-05
-2.55845e-08
-2.29586e-08
-4.87068e-09
-6.18842e-05
-5.46072e-09
9.94507e-06
-2.08999e-09
-8.60887e-09
-5.44053e-05
-2.26267e-09
-3.42469e-10
-3.36129e-11
-0.000467743
-2.66956e-09
-2.97859e-05
-2.25291e-08
-3.95511e-06
-4.62114e-05
1.66364e-07
-3.79688e-10
-9.80083e-06
-1.35881e-08
-1.80354e-08
-1.0332e-08
-9.41282e-06
-1.53749e-09
-7.40944e-07
-4.99279e-10
2.1318e-06
-3.64899e-05
-1.61811e-08
-2.21704e-05
-3.92497e-05
6.92261e-06
-1.3106e-08
-7.2025e-06
-7.01087e-09
-0.000193628
-1.86129e-08
-1.36166e-08
1.16054e-07
-9.46891e-06
-3.40966e-09
-8.96261e-06
1.26602e-07
-1.17975e-08
3.41786e-06
-1.38961e-08
2.89434e-09
-1.7342e-08
-8.20805e-10
-7.40901e-09
-1.5315e-08
2.83247e-08
-2.76827e-09
-2.70157e-08
-3.8217e-07
-1.80343e-05
1.39173e-06
-4.74109e-05
-4.76239e-08
-3.51061e-10
2.76393e-07
-3.10644e-05
-4.43806e-10
-3.18855e-08
-2.78899e-09
-2.83509e-05
1.30054e-07
-1.46441e-05
-2.53824e-09
1.22479e-05
-3.13095e-10
-6.85174e-08
-6.61032e-05
9.17548e-06
-8.64387e-06
6.42562e-06
-5.75477e-07
-4.2785e-08
-1.0368e-08
-2.97382e-09
-6.55576e-05
-4.84477e-06
-6.08577e-06
5.8265e-06
-1.56619e-09
-4.92663e-07
-2.81827e-10
-1.863e-08
-1.73054e-08
-1.57999e-07
-1.27508e-08
1.09271e-05
-5.47497e-08
-3.72772e-08
1.58566e-06
-3.51223e-08
-4.77915e-05
-6.86584e-08
-1.8984e-08
-4.3635e-11
-1.24643e-08
-1.38778e-08
-2.02143e-08
1.1312e-07
-5.04639e-08
-1.09222e-08
-1.86838e-10
4.13713e-06
-5.59266e-08
-4.78033e-05
8.78175e-06
4.25263e-06
0.013608
9.61145e-07
-8.53078e-09
-2.59848e-05
-3.1576e-08
-9.57438e-09
5.59935e-08
-7.61564e-08
-1.67509e-08
-5.82205e-06
-5.10709e-08
1.07649e-05
-7.89248e-10
-2.34801e-07
-6.55967e-05
-1.87971e-08
-1.69643e-07
-3.40271e-10
-2.51493e-08
-9.1994e-05
-4.01188e-05
-5.13398e-05
-1.6665e-08
-2.28534e-09
-1.82766e-05
-1.61367e-09
-4.86791e-05
-1.01998e-05
-2.46961e-08
-0.000135869
-1.37473e-08
-4.59846e-08
-1.04879e-08
-1.33275e-08
-6.62581e-09
4.05227e-05
-0.000383112
-5.0933e-10
-7.30497e-08
-5.41049e-06
-6.81743e-09
-1.53504e-09
-4.1928e-08
-2.19213e-05
-5.89266e-05
-3.64405e-05
-7.689e-09
-1.0257e-08
1.78241e-06
7.23958e-06
-1.75435e-05
1.49396e-07
-8.69856e-09
-1.06237e-08
4.06293e-09
-3.39245e-08
-2.47151e-05
-1.53237e-05
-3.08393e-11
-2.01057e-05
-1.76573e-10
1.05318e-06
-3.91486e-08
-2.70271e-08
-2.37284e-05
-3.62055e-08
-6.62337e-05
-1.24901e-07
1.14041e-06
2.98718e-08
-1.03266e-08
-3.8938e-09
-2.83951e-09
-1.38652e-07
-1.65955e-05
-2.59586e-08
-7.22367e-05
-4.57056e-09
6.84637e-10
-1.37052e-08
-3.53329e-05
-1.61704e-09
-4.16654e-08
1.35551e-07
-1.88897e-05
-5.99602e-05
-5.59691e-05
-5.42821e-09
-4.95915e-08
5.18916e-09
-1.8091e-09
-3.16639e-09
-3.38483e-08
-1.0467e-08
-5.40242e-08
-2.77514e-08
-2.6312e-10
-5.04738e-09
-0.000122583
-3.81242e-10
-1.93729e-05
-6.17909e-09
-7.47575e-09
-6.05501e-09
-1.97458e-08
-4.47254e-06
-0.000163572
-2.00105e-08
-1.37787e-09
2.45099e-09
-4.01201e-11
1.47965e-05
-1.97527e-08
4.99152e-06
-5.06669e-05
-0.0017047
-1.24597e-07
1.35975e-07
-1.14219e-08
-1.79903e-05
-9.81605e-08
2.44116e-06
-6.09636e-05
4.37939e-08
-3.8549e-09
-6.00476e-05
2.88206e-06
-4.07767e-06
-1.18987e-06
-3.16049e-05
-4.245e-05
-5.34327e-05
-1.38522e-07
-2.20562e-05
-1.35267e-08
-5.88577e-05
-1.50152e-05
1.44533e-06
-2.85486e-09
1.1108e-07
-3.76598e-05
-2.10116e-08
-1.35126e-08
-9.65914e-05
-3.86704e-09
1.54607e-06
-6.04439e-05
-1.6508e-09
1.7345e-05
-2.16233e-07
-4.10078e-09
-4.1929e-08
-8.77042e-05
-8.43992e-10
-1.50015e-05
2.07146e-05
0.000517672
-3.94975e-09
-1.4165e-05
-1.99314e-09
1.74637e-05
-1.07054e-08
-4.73909e-05
-1.08135e-08
-2.42661e-08
-4.61916e-10
-2.5866e-06
-1.16951e-06
-7.5446e-05
3.23248e-06
-1.85243e-07
2.99984e-09
1.54082e-07
-4.87763e-05
-6.04483e-06
-1.0099e-06
2.46625e-05
-9.61604e-10
-1.17462e-09
-7.50651e-06
-2.62436e-09
-5.23178e-06
-5.68408e-05
-3.13809e-07
7.75791e-06
-7.54033e-05
8.86765e-08
-0.000103275
-1.96488e-08
5.68718e-08
3.30112e-05
1.68789e-08
-2.49713e-08
-1.00573e-07
-2.17677e-08
-1.11245e-09
-1.31602e-08
7.71546e-09
-4.32309e-09
-5.19971e-09
-2.37033e-06
-1.77188e-09
-7.98377e-09
-1.13412e-08
-3.16204e-10
3.78408e-09
-1.37411e-10
-5.03634e-05
-4.24927e-05
-6.53107e-05
-7.38169e-10
1.8401e-05
-4.56101e-06
-8.3846e-09
3.36907e-06
-1.06555e-08
-1.42054e-08
-2.81878e-08
1.31151e-07
-1.76754e-05
4.4736e-07
5.03489e-07
-1.27579e-08
-0.000187688
-1.86301e-08
-3.45762e-05
-2.28209e-08
-4.89717e-05
7.07266e-08
-0.00667064
-3.24798e-07
-1.02973e-08
8.88226e-06
9.13199e-06
-1.39496e-08
-8.19691e-09
-1.4855e-08
-2.10504e-09
-0.000180787
-4.62818e-06
2.35829e-06
-7.23858e-09
-0.0278511
-2.94389e-08
4.22669e-07
-1.28915e-07
-2.3243e-09
-5.58712e-09
-1.67198e-08
-1.01025e-08
-1.01299e-06
-2.07226e-08
2.44377e-06
-9.59018e-05
-8.664e-10
-1.52367e-07
-9.43841e-13
-2.06635e-05
1.29025e-07
-7.69294e-05
-4.03999e-05
-2.52293e-09
-7.29858e-09
-4.44598e-08
-4.68067e-05
-8.27828e-05
-4.08161e-07
-1.62107e-05
-3.13248e-09
7.90146e-06
-3.56672e-08
-8.39441e-09
-2.33548e-10
-2.79198e-08
-3.08595e-11
-1.62936e-05
-4.4768e-08
-1.78094e-09
-1.43356e-08
-7.55938e-05
-1.82545e-09
6.6858e-06
7.47546e-07
-1.17732e-08
-6.04185e-05
-6.45988e-09
-7.58965e-07
-9.40252e-09
-6.22181e-05
-1.35899e-08
-5.81867e-08
-2.08007e-08
3.69239e-08
5.76247e-10
1.8614e-05
6.88424e-06
-1.59776e-08
-6.86483e-12
-3.56288e-06
0.000427369
8.19841e-07
-5.45645e-05
-3.71597e-07
-8.88588e-09
-4.449e-09
-7.83005e-08
-3.76689e-09
-1.0518e-06
7.69001e-08
-2.77185e-08
-1.04426e-07
-7.28871e-05
-1.0099e-11
-5.4906e-05
-8.88131e-09
-3.84943e-08
-2.46196e-09
-2.34986e-09
-2.37101e-08
-5.39408e-09
-6.05162e-08
3.07439e-08
-1.34201e-05
-1.09775e-06
-7.45077e-06
6.18547e-06
-1.10822e-08
-2.54335e-08
-5.81748e-09
-0.000114053
-1.10977e-08
2.15433e-08
-8.43762e-10
-2.67103e-08
-1.99715e-08
-3.90011e-05
-5.18225e-05
-4.75816e-05
4.49541e-06
-4.77377e-09
-4.59933e-07
7.84499e-06
1.76988e-05
1.17106e-10
-3.84076e-09
5.82598e-08
-5.60205e-05
-5.05709e-09
-2.28318e-08
-8.58466e-09
2.51191e-07
-1.97776e-08
1.94589e-08
-9.29002e-09
-7.76418e-10
-1.1347e-05
3.10888e-07
-5.30336e-08
-1.47568e-08
-4.1305e-09
-2.32583e-09
-2.56287e-05
-1.09312e-07
7.68149e-07
-2.52898e-08
-1.70976e-08
5.90003e-06
-3.61191e-08
9.92339e-09
-6.09211e-05
-1.46801e-05
-6.03634e-07
-2.42058e-05
-3.23729e-05
1.39454e-06
-6.3523e-05
-6.12898e-08
4.07426e-06
-2.71972e-05
-3.75626e-08
-5.37046e-06
-1.79179e-09
-2.26558e-08
-1.51716e-05
-5.09884e-08
-6.17546e-05
-8.78806e-10
-2.30703e-05
-5.10378e-08
-3.52992e-05
5.07189e-08
-4.65062e-08
-1.3187e-08
-6.46177e-05
4.64076e-06
4.47359e-08
-8.13111e-05
-2.35079e-08
-3.20137e-09
2.50035e-06
1.34801e-07
-8.22299e-06
-5.6757e-07
-6.97212e-07
-3.55692e-05
-4.32973e-05
-4.18559e-08
4.56173e-06
-1.11661e-08
-5.5117e-09
-6.76782e-08
-2.24601e-08
-6.74422e-09
-8.8442e-09
-3.13666e-08
-2.26964e-07
1.33673e-07
2.13903e-05
-1.61107e-06
1.5463e-07
-2.70001e-09
-7.1607e-05
-2.59225e-08
-1.8852e-09
-1.44862e-05
2.77914e-05
-4.81418e-10
-1.30879e-08
-1.96933e-08
3.89268e-07
-4.0532e-08
-1.48892e-05
-1.10735e-05
3.44516e-08
-1.21321e-08
-8.13631e-05
-1.75991e-08
-2.88322e-08
-1.7885e-06
-6.91145e-09
1.22652e-06
-5.21101e-08
-6.38488e-09
-4.80773e-07
-3.46808e-05
-1.47039e-08
-3.20925e-10
-2.25361e-08
-1.35496e-10
-2.3745e-08
-1.58076e-05
-8.284e-09
-1.66973e-07
-1.83048e-05
-2.02106e-09
-3.03691e-05
-1.41557e-08
-1.5249e-05
1.19875e-06
-6.45109e-05
-6.7949e-06
-6.76326e-05
-2.19755e-08
-8.71753e-07
-6.65452e-10
2.42124e-06
-3.74543e-09
-1.72981e-06
-1.09074e-05
6.06488e-08
-6.40545e-05
-2.40552e-08
0.000224795
-1.60377e-05
-1.20603e-10
4.17143e-07
1.33224e-05
2.46502e-10
-5.92571e-05
-2.09245e-09
-1.66443e-05
1.54343e-05
2.91931e-07
-1.1865e-08
3.78867e-06
-5.50298e-05
-2.51351e-08
-4.61266e-10
-3.91918e-09
-1.56558e-08
1.71001e-05
1.86144e-05
-2.95194e-07
-2.82634e-09
2.73187e-08
-6.56685e-06
-1.35568e-08
-2.80654e-05
-1.46484e-09
-4.96694e-08
-6.31728e-07
-4.23245e-05
-5.48457e-09
-7.26116e-10
5.79352e-10
-1.35402e-05
-2.07853e-10
1.07053e-09
3.00774e-06
-2.16704e-09
-5.22077e-08
6.37434e-08
1.58178e-08
-1.1859e-05
-2.95273e-07
-7.11668e-05
-2.22865e-06
-4.51208e-08
-3.22483e-08
-1.70376e-05
-7.31068e-09
-2.34083e-08
-2.27943e-08
-1.73227e-09
-3.33676e-06
0.000153127
-9.5281e-09
-6.23902e-09
7.52095e-06
-9.89251e-06
-6.54323e-05
-1.20301e-07
-4.05799e-09
-1.69262e-05
-5.07171e-05
-5.70326e-09
-1.3445e-05
-2.05881e-05
-3.62401e-06
-0.000243179
-6.18575e-09
-1.18699e-08
-2.45288e-09
-6.68988e-09
-2.29763e-08
-1.04643e-11
6.63281e-08
-3.04893e-08
-1.51685e-05
-4.02081e-09
7.50554e-08
-1.68193e-09
-1.60822e-10
1.88709e-05
-7.76243e-08
-2.77041e-05
-7.82764e-05
-1.38788e-08
-9.68725e-09
2.97935e-09
3.09895e-06
0.00664465
-2.83443e-08
5.25556e-05
-5.12783e-08
-2.69128e-05
-1.51432e-08
-1.41058e-07
-7.10769e-06
-4.23391e-10
-4.52275e-06
6.81471e-07
3.65403e-06
-2.49304e-05
3.60611e-06
-9.31203e-09
-2.46628e-05
-1.21962e-07
-1.65944e-05
1.13222e-05
-6.7461e-06
-1.78228e-05
9.45375e-07
6.40375e-07
-3.3165e-05
-1.58677e-11
-5.35692e-06
-2.19469e-05
-1.86065e-05
2.82785e-06
-6.20413e-06
-2.06229e-08
-2.11603e-05
-2.84607e-08
2.08934e-08
-1.75298e-08
-4.99303e-05
-3.10688e-10
5.43141e-07
-2.43357e-09
-2.62725e-08
-1.95649e-05
-2.155e-09
-1.58492e-05
1.63209e-06
-1.15311e-08
-2.2565e-09
-1.45849e-08
-5.22939e-05
-8.6435e-05
-2.80533e-08
7.72865e-08
-1.94637e-08
-1.93624e-05
-5.25452e-05
-6.47387e-05
3.68923e-06
-3.24729e-08
-2.52542e-05
-4.99877e-05
-1.45579e-05
-2.47983e-08
-7.74092e-05
-6.53534e-05
-2.36865e-05
-3.59862e-10
-5.77349e-05
-7.79444e-09
-4.09143e-05
7.06366e-06
-5.9148e-09
-2.51929e-10
8.12369e-07
-1.54334e-08
-4.20567e-05
-1.47988e-09
-5.46152e-05
4.64089e-09
-7.69369e-06
-5.51781e-07
-2.92957e-05
1.52081e-06
-0.000174764
-2.47414e-09
-1.77437e-08
2.23283e-07
-8.48258e-06
-1.22756e-09
-1.06891e-06
-3.02627e-06
2.40936e-07
-8.08737e-05
-3.34843e-05
-6.6251e-09
2.13894e-08
-2.19444e-05
-6.01997e-05
-3.76537e-07
-5.60476e-05
-7.29483e-05
-4.09595e-05
-3.63476e-05
1.07608e-05
-8.29155e-09
-1.1481e-08
-2.41629e-09
-7.54408e-05
7.47034e-06
-1.05752e-09
-1.45166e-08
-2.38131e-05
-2.43938e-05
-2.18105e-08
5.08086e-06
-3.29252e-08
1.40167e-07
-2.40762e-08
-5.10096e-07
-3.77369e-09
-1.06125e-05
-5.44454e-05
8.70745e-06
-1.54087e-08
-2.70442e-05
-2.05203e-08
2.23062e-06
-5.79623e-05
-6.61616e-06
-2.45408e-05
-1.70315e-05
1.37635e-06
-2.92958e-06
-5.39273e-06
-1.00102e-06
1.60848e-06
-5.45877e-09
-2.24456e-05
-2.1734e-05
8.03955e-09
-7.70945e-09
-1.3749e-08
-2.74558e-08
-2.66458e-09
-1.11819e-05
-9.14505e-07
-1.79665e-09
-4.01954e-08
-5.14209e-10
-8.67807e-07
-1.61348e-09
4.02942e-06
-1.29548e-05
-2.86803e-07
-1.49386e-08
9.28209e-08
-3.79786e-05
-5.39582e-09
-1.9545e-09
5.62712e-06
-6.51057e-05
3.4913e-06
-4.00778e-05