/*--------------------------------*- C++ -*----------------------------------*\
| =========                 |                                                 |
| \\      /  F ield         | OpenFOAM: The Open Source CFD Toolbox           |
|  \\    /   O peration     | Version:  v2012                                 |
|   \\  /    A nd           | Website:  www.openfoam.com                      |
|    \\/     M anipulation  |                                                 |
\*---------------------------------------------------------------------------*/
FoamFile
{
    version     2.0;
    format      ascii;
    class       volVectorField;
    location    "100";
    object      ddtCorrDdt0(U);
}
// * * * * * * * * * * * * * * * * * * * * * * * * * * * * * * * * * * * * * //

dimensions      [0 1 -2 0 0 0 0];


internalField   nonuniform List<vector> 
15335
(
(0.000236467 1.64909e-05 0)
(-0.000354894 -0.000235826 -1.81987e-22)
(6.24648e-05 6.11627e-06 -1.05754e-22)
(-7.99303e-05 0.000167508 1.04006e-21)
(4.69845e-05 8.68439e-06 -5.56632e-22)
(-1.52804e-05 6.32595e-05 6.84179e-22)
(-0.000325289 -0.000162705 0)
(-0.000301733 0.000236681 -1.62203e-23)
(-0.000183142 4.67518e-05 -1.04782e-22)
(0.000230859 2.00713e-05 0)
(6.91127e-05 7.68116e-06 9.14565e-23)
(-6.17692e-05 -9.79165e-05 -9.72642e-22)
(5.89575e-05 7.85998e-06 3.96818e-22)
(0.000207416 5.78775e-06 4.31097e-22)
(0.000616154 1.2667e-05 0)
(0.000274148 6.21884e-05 -1.88605e-22)
(1.54367e-05 -1.64336e-06 6.55014e-22)
(0.000382685 5.09678e-06 -4.62003e-24)
(-4.99513e-06 -2.10504e-05 -1.0177e-21)
(0.000492466 -0.000151566 -1.88584e-21)
(0.000232581 5.91826e-05 0)
(0.000232958 5.97072e-05 0)
(-0.000323344 -0.000168315 1.69572e-22)
(-1.11674e-05 -9.02205e-06 2.31505e-22)
(-0.000368363 6.47171e-05 0)
(-0.000196613 0.000222057 1.49372e-22)
(-2.67718e-06 5.10266e-07 2.53343e-22)
(-0.000192574 0.000227123 -1.08293e-22)
(0.000249897 -2.22145e-05 2.76789e-22)
(-4.06007e-05 0.000120442 2.12258e-21)
(2.01544e-05 1.83549e-06 6.97669e-23)
(0.000500461 6.36195e-05 2.46869e-23)
(-2.12183e-08 4.61222e-06 -2.54139e-22)
(-4.5804e-05 5.13506e-05 1.07736e-21)
(-4.38296e-05 2.28395e-05 9.5279e-23)
(-0.000396837 0.00011385 3.02887e-23)
(-0.000402916 0.00011226 -5.05641e-23)
(-0.000738958 -0.0009774 -8.98168e-22)
(0.000286899 3.12492e-06 1.08634e-22)
(-0.000208336 0.000268532 0)
(-0.000267067 -0.00023987 8.04208e-23)
(2.41337e-05 5.40917e-05 -3.26654e-23)
(-2.44109e-05 5.1965e-05 0)
(-0.000102724 -0.000123968 3.49831e-22)
(0.000321769 1.78627e-05 -6.3909e-23)
(-8.00518e-06 1.62807e-07 0)
(7.94254e-05 -0.000137491 -9.76833e-23)
(5.89662e-06 -0.000133345 1.78803e-22)
(0.000179895 2.5461e-06 -8.38288e-23)
(-8.95172e-05 0.000100204 9.17154e-22)
(-1.07522e-05 -8.21354e-06 0)
(0.000544384 4.39648e-05 3.48605e-23)
(0.00012782 0.000112517 1.15059e-22)
(1.62972e-08 2.34468e-06 -6.39654e-22)
(-5.55447e-05 3.08622e-06 -4.00075e-22)
(-0.000318224 -0.000150102 0)
(-6.04808e-05 0.000243648 0)
(0.000565046 4.58803e-05 -7.73404e-26)
(-1.85467e-05 8.03979e-07 -1.4458e-21)
(7.24139e-05 8.08904e-06 1.77845e-22)
(0.000265384 -1.56086e-05 1.80647e-24)
(2.10477e-05 -0.000121523 1.89843e-22)
(-7.79496e-05 0.000184184 -7.35306e-22)
(-2.46523e-05 0.000151348 -6.22297e-22)
(-3.50419e-05 -1.45832e-05 0)
(-5.9234e-05 -9.4339e-05 -4.49535e-22)
(0.000459053 5.25968e-06 0)
(0.000496528 6.76964e-05 -4.82982e-23)
(-2.83621e-05 -2.60534e-05 -2.97867e-22)
(3.1148e-06 -5.10547e-06 8.11145e-22)
(-0.000218569 -1.78456e-05 -6.86759e-22)
(-9.50961e-05 6.92767e-05 0)
(-0.000365405 6.61198e-05 0)
(0.000231858 -2.51205e-05 0)
(0.000504482 4.03848e-07 -1.23056e-22)
(0.000297394 3.29818e-05 2.03716e-22)
(-0.000246429 -0.000241765 -1.62381e-22)
(-0.000309145 0.00010062 -4.26023e-23)
(0.000710305 -7.34528e-05 4.22132e-23)
(-2.69065e-08 5.3366e-06 -5.04888e-22)
(9.4861e-05 1.21601e-05 -1.63089e-22)
(-2.03607e-05 -1.27749e-06 0)
(8.67213e-05 1.53106e-05 3.07168e-23)
(-0.000372653 4.85242e-05 0)
(2.85291e-05 3.75415e-06 0)
(-7.82778e-06 1.12451e-07 6.99162e-22)
(-4.05324e-06 -1.98661e-05 4.64352e-22)
(-9.88699e-05 -0.000126062 0)
(-5.23409e-05 0.000112997 1.11965e-21)
(-0.00036102 -0.000289538 -2.0649e-22)
(0.00010455 1.08387e-05 3.91267e-22)
(-0.000276703 -0.000154926 -4.00618e-23)
(-6.71786e-05 -8.80502e-05 -1.03651e-21)
(0.000108799 0.00057067 -3.32981e-21)
(-7.77248e-06 3.54015e-06 0)
(-0.000113974 -2.33488e-05 -7.74593e-23)
(-8.07543e-06 4.67301e-07 0)
(-0.000156263 0.000114702 -4.52102e-22)
(-1.51082e-05 -1.90269e-06 0)
(5.41656e-09 3.96144e-06 0)
(-2.35917e-05 4.97777e-05 -2.22685e-22)
(0.000296674 3.36257e-05 -2.19352e-22)
(-0.000426886 7.4012e-05 -1.08186e-22)
(-0.000212578 -0.000198009 1.62138e-22)
(-7.76746e-05 -4.73669e-05 0)
(-0.000178685 4.81484e-05 0)
(-5.27373e-05 2.6079e-06 -3.55792e-22)
(-2.71141e-05 0.000184337 0)
(9.40199e-06 0.000294668 0)
(-0.000125528 0.000185259 -1.16983e-22)
(0.00017798 -9.1178e-06 3.77934e-22)
(-0.000344685 -6.1759e-05 -1.5123e-22)
(-9.67258e-06 2.10428e-05 0)
(-6.6292e-05 -9.83437e-05 3.02565e-24)
(0.000121426 7.76126e-05 0)
(-5.33205e-05 0.000110675 -1.0242e-21)
(-0.000218276 -2.12862e-05 8.73281e-25)
(-0.000146447 0.000668459 -1.71687e-21)
(8.99886e-05 9.04528e-06 -4.20172e-22)
(-0.000173947 7.82024e-05 2.8211e-23)
(0.000102439 7.76823e-06 1.85743e-22)
(6.4822e-06 -0.000212613 3.80669e-23)
(0.000222579 -2.60805e-05 0)
(-7.27647e-05 -0.000221646 0)
(-8.28676e-06 5.83157e-05 -8.9746e-22)
(-1.70103e-05 4.82379e-05 -9.86915e-22)
(-6.49769e-05 0.000242818 -8.51817e-22)
(-1.17964e-06 1.54893e-05 0)
(-0.000208374 -0.000198871 0)
(-5.81598e-05 1.53099e-05 0)
(0.000165026 3.23991e-05 9.9434e-23)
(0.000320962 1.97584e-05 0)
(-7.50687e-06 -3.47808e-07 0)
(-0.000103101 0.000213511 0)
(-0.000303353 9.91412e-05 -1.30463e-22)
(-6.75335e-06 1.55872e-06 7.79208e-22)
(9.42967e-05 1.60932e-05 0)
(0.000426013 -4.95513e-05 0)
(-7.68101e-05 0.000186673 -9.71704e-22)
(-0.00032576 0.000216027 2.8873e-24)
(-0.000274362 -0.000146405 -3.89944e-23)
(-0.000382694 -0.000319592 5.47992e-22)
(-0.000167056 0.000169223 -1.00872e-22)
(2.12115e-05 -2.30262e-06 -5.87085e-22)
(0.000302897 8.66497e-06 -1.41531e-22)
(-4.53941e-05 -0.000567008 1.56261e-21)
(0.000238969 -2.17744e-05 9.69112e-23)
(-5.37237e-05 0.000287597 2.20298e-21)
(-0.000245608 0.000196935 -4.37606e-24)
(9.85791e-05 1.96554e-05 1.15416e-23)
(-0.000128631 -8.21331e-06 -6.53071e-22)
(0.000550555 5.69122e-05 1.05784e-23)
(-1.74108e-05 4.72764e-05 -4.50729e-22)
(-0.00011072 -2.18412e-05 0)
(9.72733e-05 -1.51023e-05 1.50945e-22)
(1.05584e-07 4.51865e-06 1.69444e-21)
(0.000295782 -2.82297e-05 -2.13694e-23)
(0.000293095 5.90041e-06 0)
(2.51133e-05 0.000283621 2.00985e-21)
(0.000653144 -5.26257e-06 4.87522e-24)
(1.79876e-07 5.88875e-06 -2.39506e-21)
(-3.47525e-05 0.000163617 -7.35619e-22)
(-4.93871e-05 -0.000211337 4.94234e-23)
(-0.000243635 1.42664e-05 0)
(0.000292995 3.24771e-06 0)
(0.000355147 1.57011e-05 4.72617e-23)
(0.000349004 1.71758e-05 6.06155e-23)
(-1.09096e-05 -6.59005e-06 9.41112e-22)
(0.000136668 0.000336767 -4.18923e-21)
(0.000160995 2.84788e-05 1.38787e-22)
(0.00161523 0.000806686 -2.15814e-22)
(-0.000118979 0.000169331 -3.89716e-23)
(0.000290286 -8.34042e-06 8.6081e-23)
(2.90598e-06 0.000236746 6.25873e-22)
(-0.000343324 5.89548e-05 1.17706e-22)
(1.11485e-07 4.74575e-06 8.56226e-22)
(-5.06908e-07 4.4707e-06 0)
(-9.60598e-05 -0.000229414 -5.30558e-22)
(0.000435791 -0.000161813 -6.10311e-22)
(-9.61094e-06 -0.00024489 3.23286e-23)
(-0.000347859 6.03592e-05 -1.4532e-22)
(8.12153e-05 0.000527457 3.50534e-21)
(0.00025772 -2.05972e-05 0)
(-0.000198344 3.90351e-05 0)
(-0.000197472 3.60681e-05 0)
(0.000340402 9.67639e-06 -2.10901e-22)
(-0.000163064 -1.06175e-06 2.72147e-24)
(-7.8401e-05 0.000163673 -1.07763e-21)
(0.000231711 -2.25472e-05 0)
(0.000164899 3.34161e-05 -7.42348e-23)
(0.00014651 9.51734e-06 -2.5433e-23)
(-0.000217147 0.000222056 -2.53817e-22)
(-0.000116842 -0.000102691 -3.35575e-22)
(-0.000356413 6.23422e-05 1.46892e-22)
(-0.000260719 0.000100486 7.90868e-23)
(0.00020529 -4.35374e-05 0)
(-8.22852e-06 2.03084e-05 -3.01176e-22)
(0.000326611 1.90731e-05 0)
(-2.24809e-05 5.56592e-05 -5.21842e-22)
(8.80063e-05 1.28839e-05 6.75535e-22)
(-0.000153263 0.000117821 -2.34341e-22)
(-9.95322e-05 0.000214504 2.81595e-22)
(-0.000134399 0.000166551 -4.56395e-22)
(0.000140443 1.04001e-05 5.9608e-23)
(0.000110585 8.76029e-06 0)
(-0.000326225 7.14313e-05 0)
(-3.83019e-07 3.6996e-06 0)
(-1.91443e-05 0.00022883 2.96882e-23)
(-4.05341e-05 0.000172151 7.68671e-24)
(-8.65435e-05 0.000129388 6.33073e-22)
(-0.000188306 0.00017776 -2.35972e-22)
(-2.39691e-05 4.7061e-05 0)
(9.04214e-05 -1.70883e-05 -4.81081e-23)
(-3.97158e-05 0.000117471 -1.32487e-21)
(-0.000117622 0.000297873 0)
(-1.5991e-05 0.000244796 -8.87651e-22)
(6.69246e-05 6.89876e-06 -9.71172e-23)
(0.000535459 6.22834e-05 0)
(-0.000239103 -0.000206586 0)
(-2.81472e-05 0.0002742 -6.75214e-23)
(-8.79915e-06 5.67859e-05 0)
(-1.35891e-05 2.25153e-05 6.65941e-22)
(-0.000172357 6.3338e-06 -3.76892e-22)
(-9.63889e-05 -0.000112964 -4.90581e-22)
(-0.000260557 0.000202015 0)
(0.000158143 2.04009e-05 0)
(-2.19576e-05 -3.3768e-06 3.02117e-22)
(0.000227629 5.08819e-06 -1.76371e-23)
(-0.000237248 2.41361e-05 4.37366e-22)
(0.000337035 -4.37208e-05 0)
(-1.14395e-05 5.55111e-06 -5.76849e-22)
(-8.33625e-06 -7.82839e-07 -3.74484e-22)
(0.000168641 1.57775e-06 0)
(-4.59681e-05 0.000278867 -1.15019e-21)
(5.62068e-05 2.51783e-05 -2.51137e-21)
(-0.000186139 0.000156875 3.47661e-23)
(-0.000353805 6.30408e-05 -1.65534e-22)
(-0.000238984 -0.000204619 0)
(-8.82516e-07 6.13876e-06 -1.83999e-24)
(4.95694e-05 5.99787e-05 -2.62166e-23)
(0.00023364 -5.81814e-05 3.07167e-23)
(-0.000130266 0.000185312 0)
(0.000223381 -2.32121e-05 0)
(-0.000205389 9.30822e-06 0)
(0.00014396 1.1635e-05 -4.91775e-23)
(-1.40389e-05 4.25759e-06 0)
(-5.15392e-05 8.58241e-05 -7.51593e-22)
(0.000146687 1.1402e-05 0)
(-0.000139065 -7.83987e-05 -5.17382e-22)
(-0.000132887 -7.41772e-05 5.3238e-22)
(0.00010879 7.37093e-06 0)
(-0.000313971 -3.82562e-05 -2.17037e-24)
(-7.68101e-06 -3.92875e-07 7.92041e-22)
(-1.15118e-05 -7.31652e-06 -9.61052e-22)
(-0.00023903 1.50522e-05 1.34431e-23)
(-0.000185701 -8.4261e-05 0)
(-0.000285495 -0.000140278 4.46008e-23)
(0.000151478 3.03123e-05 4.45843e-23)
(2.6954e-06 -6.20522e-06 -8.43205e-22)
(-0.000331803 7.28105e-05 1.24072e-22)
(0.000204119 1.10535e-05 2.04798e-22)
(1.50069e-07 4.36472e-06 0)
(-1.65354e-05 -6.33667e-06 5.95017e-22)
(-1.41812e-05 6.08039e-05 0)
(-3.06592e-05 -2.59716e-05 -6.95975e-25)
(3.16424e-06 -8.67452e-06 -7.06064e-22)
(0.000639292 -1.80366e-06 3.29264e-24)
(0.000267058 4.71063e-07 3.15309e-23)
(0.00029778 6.20633e-06 -1.40991e-22)
(-4.12713e-06 7.27471e-05 0)
(0.000626842 6.97325e-06 -2.41593e-23)
(0.000349785 1.13011e-05 0)
(0.000276194 2.93951e-06 1.79193e-23)
(-1.1042e-05 5.1805e-06 1.01158e-21)
(0.000244801 3.33356e-06 7.16836e-22)
(-4.6558e-05 0.000108034 -5.61645e-22)
(-3.63724e-05 6.44575e-05 -1.3003e-21)
(-0.00037645 5.09368e-06 1.06932e-22)
(-2.4907e-05 0.000148474 6.35033e-22)
(-0.000235854 2.12349e-05 -4.42595e-22)
(0.000145046 2.808e-06 -1.99027e-22)
(0.000274105 4.55845e-05 0)
(-2.752e-05 -8.51136e-06 5.72382e-22)
(-0.00028639 -0.000131599 -1.59406e-22)
(-0.000120501 -8.16043e-05 7.68186e-22)
(0.000116481 2.07391e-05 -1.75275e-22)
(0.000288801 -2.90747e-05 0)
(-0.000127257 -4.5565e-05 0)
(-2.65715e-05 0.000110304 0)
(-6.79814e-05 3.57344e-05 0)
(0.000352375 1.65356e-05 3.07197e-25)
(-7.13114e-05 -8.7827e-05 8.53215e-22)
(-7.94197e-05 0.000214092 1.2278e-21)
(-0.000409036 -1.8961e-06 0)
(-0.000131836 4.28988e-05 4.55213e-22)
(-0.00486389 -1.20725e-05 -9.52202e-23)
(-1.70305e-05 -5.57191e-06 0)
(-0.000334281 -0.000222438 -2.26834e-22)
(-4.41604e-05 2.43907e-05 0)
(0.000149804 2.90368e-05 -7.42989e-23)
(-8.6338e-06 6.09196e-05 1.98876e-24)
(0.000236828 -5.88644e-05 0)
(-0.000224381 0.000204128 -4.44289e-23)
(0.000221393 -0.000127499 8.77068e-24)
(-5.81493e-06 1.39265e-06 5.9829e-22)
(0.000642185 -5.83919e-05 -1.85479e-22)
(0.000346472 1.72093e-05 -1.23707e-24)
(-6.50817e-07 5.48603e-06 0)
(0.000532854 9.46395e-06 1.07393e-22)
(-3.03377e-05 0.000136221 1.08546e-21)
(0.000138595 2.49856e-05 2.22691e-23)
(-3.37248e-05 -2.53427e-05 -1.96218e-22)
(-0.000376313 4.41527e-05 -7.41165e-24)
(-4.32239e-05 -0.000229215 -1.98787e-22)
(0.000566861 1.18898e-05 -5.44632e-23)
(-1.10792e-05 4.65748e-05 0)
(-2.29418e-05 7.15993e-05 1.94308e-21)
(0.00027644 4.35522e-05 -3.66914e-23)
(0.000172006 -9.47458e-05 0)
(-3.90777e-05 0.000269443 1.91727e-21)
(-0.000202703 0.000250194 1.04726e-22)
(-3.32542e-05 -1.44621e-05 7.70547e-22)
(1.59813e-06 -6.83796e-05 0)
(0.000177762 1.88481e-05 0)
(-0.000174793 6.10468e-05 -5.82267e-23)
(0.000101689 -1.62759e-05 0)
(0.000140673 2.59894e-05 -2.65187e-23)
(0.000337378 -4.55162e-05 0)
(-0.000119162 -6.66857e-05 3.17865e-22)
(-0.000126621 -6.28453e-06 0)
(-1.07387e-07 5.21256e-06 -9.77384e-22)
(-0.000229373 0.00020061 -2.9085e-23)
(-2.90801e-05 9.77012e-05 2.69064e-22)
(-0.000312156 -0.000270867 3.95513e-23)
(-0.0001109 0.000220177 0)
(-0.000360392 7.56433e-05 1.01516e-22)
(-0.000138627 0.000169964 4.76025e-22)
(0.000233231 1.26898e-06 -6.26317e-22)
(-3.29633e-06 1.81584e-06 0)
(0.000301331 2.10248e-05 0)
(-0.000323297 -0.000148982 0)
(-0.000252799 -0.000217931 -6.33096e-23)
(-7.36981e-06 1.61893e-05 0)
(-0.000253739 -0.000216912 2.18582e-22)
(-0.000113195 -0.000133487 0)
(-2.80978e-05 0.000136815 0)
(-4.62666e-05 5.34157e-05 5.78647e-22)
(-0.000287549 0.000221953 -4.48396e-23)
(-1.15327e-05 -1.44947e-06 -4.21851e-22)
(9.01963e-05 8.79287e-06 2.91654e-23)
(0.000305575 9.26258e-06 -1.7698e-22)
(0.000133315 2.33132e-05 -2.30361e-23)
(-9.81906e-05 7.08236e-05 0)
(0.00068188 -0.000634716 0)
(0.000115421 9.82143e-06 -2.21415e-24)
(-1.44351e-05 2.37814e-05 -1.60692e-21)
(-3.00839e-05 0.000169731 0)
(-0.000156716 0.000133271 3.3314e-22)
(-0.000195333 -0.000169994 2.9582e-22)
(-0.000308098 3.68906e-05 0)
(-0.000125593 -4.28132e-05 3.59147e-22)
(-0.000265746 -9.77959e-05 0)
(-0.000117304 -8.30968e-05 -6.47598e-22)
(0.000595335 4.95564e-06 -1.42838e-22)
(-3.82845e-05 0.000169284 6.95482e-22)
(0.000300701 -0.00041219 1.26547e-21)
(3.50175e-05 0.000295522 -9.97345e-22)
(-0.000261414 -0.000100011 -1.34747e-22)
(-0.000122632 1.57304e-05 6.7042e-22)
(-6.88487e-06 1.06465e-06 0)
(0.000191892 -0.000141211 0)
(-9.23317e-05 0.000102451 -1.34262e-21)
(-0.000168886 0.000120663 2.79552e-22)
(0.000560067 5.61949e-05 8.64298e-23)
(-1.18508e-05 4.86243e-05 0)
(-2.99872e-05 4.33641e-05 0)
(0.000609577 3.30069e-05 0)
(-0.000100157 -0.000110716 -2.38492e-22)
(5.22203e-05 8.15017e-05 -2.46307e-21)
(9.60192e-05 -1.85223e-05 9.37784e-23)
(-7.63329e-06 1.60108e-05 0)
(-0.000129215 4.42317e-05 0)
(7.29039e-05 1.60537e-05 1.06236e-22)
(0.000548766 -5.38381e-07 0)
(-0.000167433 3.62014e-07 -2.99114e-24)
(-1.15877e-05 4.85394e-06 -5.19921e-22)
(-0.000347303 -5.72474e-05 0)
(6.92796e-06 0.00023908 -6.19142e-22)
(-0.000218057 -0.000189533 3.73917e-22)
(0.000328122 1.77814e-05 0)
(-1.29508e-05 4.71313e-05 0)
(-4.71724e-05 0.000110272 -2.87508e-22)
(-1.12753e-05 4.45501e-06 0)
(-0.000234526 -0.000199468 0)
(0.000523923 9.27852e-06 0)
(-0.000239716 0.000225159 1.70961e-25)
(-0.00031122 0.000184108 2.93199e-23)
(-0.000115416 -0.000126277 -7.28329e-22)
(-6.25314e-05 0.000211314 -6.42022e-22)
(0.000101443 -7.6289e-05 -7.96226e-23)
(-0.000302978 4.00681e-05 -2.09407e-22)
(-0.000304493 4.37529e-05 2.89652e-22)
(0.000112803 5.40661e-06 -4.6393e-22)
(-0.000114619 -6.69778e-05 -3.03201e-22)
(-9.12386e-05 1.41539e-05 -1.58081e-22)
(-0.000307549 3.1786e-05 0)
(0.00075475 -2.92878e-05 -8.77955e-23)
(0.000564309 -2.00611e-05 -2.02888e-21)
(-1.59318e-05 0.000297441 0)
(-0.000407422 -9.99205e-07 -1.83721e-22)
(-0.000376931 3.59718e-05 1.27309e-22)
(-3.74577e-05 0.000165786 -1.69079e-22)
(0.000544995 7.91227e-06 0)
(0.000171139 -1.05609e-05 1.15723e-22)
(-0.000229091 -0.000208724 2.14693e-23)
(0.000301573 4.65082e-05 0)
(0.000158062 2.25164e-05 0)
(-0.000115865 1.50874e-05 0)
(-1.53412e-05 0.000254914 0)
(-0.000163859 0.00017234 0)
(-4.79855e-05 0.000156273 -1.16207e-21)
(0.000106125 8.61196e-06 1.03338e-23)
(-7.30864e-05 -0.00021768 4.1847e-22)
(-8.13025e-06 3.25491e-07 4.64679e-22)
(-0.000361301 -0.000221119 0)
(0.000254267 -7.92491e-05 1.23136e-22)
(-0.000251049 -0.000218784 -5.16075e-22)
(0.000299001 2.79827e-05 -6.41131e-23)
(-0.000135137 -3.60159e-05 0)
(3.53876e-05 2.05918e-06 -6.07267e-24)
(0.000336781 6.28536e-05 3.58794e-23)
(5.92952e-05 6.78247e-05 0)
(0.000193123 1.19238e-05 6.13305e-23)
(0.000331905 7.76349e-05 0)
(0.000166444 2.60091e-06 3.45228e-22)
(-0.000243876 0.000204429 -2.37146e-25)
(0.00022459 -6.17461e-05 -1.15839e-22)
(8.60158e-05 7.21974e-06 2.52067e-23)
(8.90289e-07 -7.62278e-06 9.77495e-22)
(-5.55152e-05 1.45036e-05 0)
(6.37e-05 3.99561e-05 -6.43005e-23)
(0.000146313 2.8251e-05 2.69407e-23)
(-4.45591e-05 1.58288e-05 -7.72311e-22)
(-0.000323612 -0.000259981 1.33867e-22)
(-0.000206537 -0.000146809 3.10825e-22)
(-4.44697e-05 0.000215681 0)
(0.000215437 0.000177236 3.02684e-22)
(-0.000250761 -0.000219636 4.82266e-22)
(-0.000243014 -0.000203251 -8.13045e-22)
(0.000679526 -1.4537e-05 -2.0994e-24)
(0.000111121 8.93971e-06 -2.09687e-24)
(0.000513159 6.49632e-06 1.41513e-22)
(-0.000190835 0.000158569 0)
(-8.96995e-05 9.67599e-05 4.80107e-22)
(0.000332424 4.50019e-05 -1.85804e-23)
(0.0003179 4.47277e-05 2.03605e-23)
(-2.72377e-05 5.56184e-05 1.51468e-22)
(0.0002267 5.75067e-05 0)
(0.000216131 -2.63047e-05 2.11493e-22)
(-0.000243263 -0.000201017 7.05169e-22)
(0.000225659 -6.52509e-05 -2.71751e-23)
(-0.000305461 0.000277827 0)
(-0.000198995 0.000273801 1.60831e-22)
(9.11809e-05 -8.01149e-05 1.41412e-22)
(-0.000194307 -0.000167389 -6.34754e-22)
(-0.000171533 5.76276e-05 5.47966e-23)
(-0.000152996 1.7862e-05 -3.77328e-22)
(-2.18014e-05 5.66828e-05 5.50413e-22)
(-0.000118832 0.000226015 0)
(-2.89897e-05 -0.000215307 2.03535e-22)
(-0.000232174 -0.000221129 1.52171e-22)
(-0.000329119 -0.00024188 1.63027e-22)
(0.000569528 -5.17583e-06 0)
(-1.40311e-05 4.79821e-05 -1.31625e-22)
(-3.55589e-07 3.81757e-06 4.82936e-22)
(-3.5265e-05 -2.44962e-05 0)
(1.41256e-05 0.000274106 -2.41479e-21)
(0.000600585 3.56814e-05 -2.16939e-23)
(0.000149047 2.95009e-05 0)
(-1.71005e-05 0.000301004 2.54749e-21)
(-0.000252369 0.000198012 -9.34544e-24)
(-3.70747e-05 0.000268575 -8.78961e-22)
(-0.00015314 -9.94637e-05 1.89183e-22)
(8.32766e-05 1.34795e-05 0)
(-2.54847e-05 0.000107167 0)
(-3.00272e-05 -1.07976e-05 0)
(-6.81314e-08 5.34318e-06 -1.06245e-21)
(-1.74537e-05 -0.000200502 -7.93932e-23)
(-4.11497e-05 1.35331e-05 0)
(0.00027935 -1.65467e-05 2.72577e-22)
(-2.13045e-06 -7.36828e-06 0)
(-2.0748e-06 0.000117343 -1.71644e-21)
(-2.38181e-05 -1.91677e-06 -7.81395e-22)
(0.000261368 -8.23604e-05 0)
(-0.000310674 0.000353737 -6.43294e-22)
(-7.21484e-08 4.26859e-06 -3.85199e-23)
(-0.000118119 -0.000124105 0)
(-0.000317761 -0.000155313 3.12097e-22)
(-5.0376e-05 0.000160061 0)
(-2.43084e-06 0.000159554 2.30819e-21)
(0.000322171 2.72199e-05 1.83909e-23)
(-0.000120169 -7.45484e-05 1.29475e-22)
(-0.000329912 -0.000229009 -2.60683e-22)
(-5.49295e-05 -9.41788e-05 9.92967e-22)
(0.000192247 1.44658e-05 -4.45969e-23)
(-9.62345e-05 1.97204e-05 1.00283e-22)
(-3.11326e-05 1.8671e-05 0)
(0.000104804 7.09424e-06 1.20117e-24)
(-8.79005e-05 3.57446e-05 -4.01565e-22)
(-8.41345e-05 0.000181469 7.6138e-22)
(0.000831447 -4.72238e-05 7.79269e-23)
(-7.08205e-06 9.7762e-07 0)
(-5.90077e-08 5.75365e-06 0)
(9.48149e-05 8.279e-06 3.58913e-23)
(-0.000395228 0.000109805 2.19017e-24)
(-0.000185971 5.98842e-05 1.00028e-22)
(-0.000107934 -1.7028e-05 -3.16166e-22)
(-0.000187018 4.82241e-05 1.72043e-22)
(-6.23969e-05 -1.94974e-05 -7.86863e-22)
(0.000524324 -0.000307427 8.38037e-22)
(0.000437688 7.25211e-06 -2.57554e-22)
(-7.28932e-08 5.17545e-07 8.08702e-22)
(0.000147465 2.87921e-05 1.60036e-23)
(0.000417979 -7.81597e-06 0)
(0.000258061 -2.20082e-05 9.71585e-24)
(0.000295812 3.35807e-05 0)
(-8.96807e-06 7.83335e-05 -8.26907e-22)
(1.83653e-06 -0.000223611 -2.65621e-22)
(0.000155758 -0.000129647 0)
(9.64279e-05 1.73718e-05 -6.37707e-24)
(9.13776e-05 8.50112e-06 1.043e-23)
(-0.000154583 -0.000102309 0)
(-5.83555e-05 -0.000128076 2.94113e-22)
(-6.58156e-05 0.000213742 1.55815e-21)
(-9.64891e-06 -0.000114085 -1.46822e-22)
(-0.000326839 -0.000258197 4.13104e-22)
(0.00023065 5.66429e-05 5.48062e-23)
(0.00014407 -2.76354e-07 1.44318e-21)
(0.000241805 5.46123e-05 0)
(0.000285302 -1.42523e-05 0)
(0.000265992 -1.36121e-05 -1.83956e-22)
(-0.000107866 0.000217361 0)
(-9.35956e-05 1.87514e-05 -7.3871e-23)
(-0.000134797 -4.90168e-05 0)
(-0.000176466 0.000109874 2.73883e-22)
(-2.80335e-06 9.87196e-07 7.68425e-22)
(-0.000195519 0.000259897 1.19549e-22)
(-0.000246368 0.000142909 -2.00306e-22)
(-8.51406e-06 -6.30946e-05 -6.70943e-22)
(-0.000347692 -4.64472e-05 4.26811e-23)
(-0.000306112 -8.85558e-05 8.31574e-23)
(-0.000394171 0.000189572 -2.7382e-22)
(-0.00012153 -7.76853e-05 0)
(0.000294646 -4.0179e-05 0)
(6.38602e-05 -1.34418e-05 6.7625e-22)
(-0.000383633 2.7214e-05 -3.10752e-22)
(-0.000122636 0.000298936 0)
(-2.21007e-07 2.62108e-06 -9.74786e-22)
(-0.000135573 -9.2196e-06 1.03142e-23)
(1.70327e-06 -8.82097e-06 -5.33882e-23)
(-0.00011131 0.000143473 0)
(-0.000126216 -8.28439e-05 -3.88058e-24)
(-6.12229e-05 -1.44754e-05 1.97622e-22)
(-0.000154808 -9.22916e-05 0)
(-0.000261066 0.0001265 -4.86944e-23)
(-5.11163e-05 0.000306762 6.14675e-24)
(0.000610165 -9.00051e-06 3.12866e-23)
(1.27526e-05 -7.3641e-06 0)
(-0.000282863 0.000175139 1.29844e-23)
(0.000261154 1.07567e-06 6.53749e-23)
(-4.53987e-05 2.20935e-05 -1.09587e-22)
(-2.7499e-05 9.59679e-05 -5.62637e-22)
(-1.71755e-07 6.05582e-06 3.1905e-22)
(-7.4201e-05 0.000162533 -4.45102e-22)
(0.000117766 1.62741e-05 -8.30684e-22)
(-0.000179248 0.000113956 0)
(-3.4262e-05 0.000263938 -5.60836e-23)
(-2.9362e-05 1.77246e-05 0)
(-0.000212504 -5.35855e-06 0)
(0.000128776 1.81763e-05 2.55432e-23)
(-2.62553e-05 -7.41861e-06 0)
(-0.000134157 0.000181812 0)
(0.000313107 6.25666e-05 1.13155e-22)
(0.000418442 1.39748e-05 6.6333e-23)
(0.000102273 8.48301e-06 0)
(-8.18472e-06 5.39849e-05 -1.11524e-21)
(-0.000125672 4.13115e-05 2.83031e-24)
(-1.14018e-05 0.000129335 8.45197e-22)
(0.000603641 1.37191e-05 0)
(0.000565138 1.24009e-05 4.95168e-23)
(-0.00013153 0.000124222 -6.42625e-22)
(2.03166e-06 -4.18821e-06 7.47262e-22)
(-6.41579e-06 1.39336e-06 -7.07579e-22)
(-2.03143e-07 7.61379e-06 1.14972e-21)
(-0.000169591 -0.000199206 3.95463e-22)
(-0.000273536 -0.00022296 2.22691e-22)
(2.99083e-06 0.000287782 -1.12018e-21)
(0.000246279 5.5718e-05 6.90352e-23)
(-0.000102833 2.73494e-05 -6.17427e-22)
(-0.0003209 0.000132348 0)
(-0.000117206 -0.000106193 3.17196e-22)
(-0.00011328 1.65641e-05 3.89132e-22)
(0.000387988 -2.35649e-06 4.22229e-22)
(-3.44624e-05 4.15342e-05 0)
(-0.000161315 -3.03649e-05 3.68215e-22)
(0.000308632 1.18533e-05 5.86894e-23)
(-2.38901e-05 -9.60045e-07 1.14265e-21)
(-0.000303396 3.22671e-05 0)
(0.000439569 5.84329e-06 2.07343e-22)
(-8.16399e-05 0.000183976 1.61424e-21)
(-0.000442358 7.54778e-05 -3.31442e-23)
(0.000546665 6.14158e-05 1.15675e-23)
(0.000140452 -0.000139696 0)
(-0.000194494 6.08762e-05 -1.06974e-22)
(-7.25304e-05 -0.000141077 -2.91188e-23)
(-0.000196025 0.000219585 -6.01581e-23)
(-0.00010456 8.56836e-05 0)
(-1.56759e-06 1.67105e-05 0)
(-0.000171462 0.000117085 3.47535e-23)
(-0.000232949 -0.000209653 0)
(0.000383069 -8.78453e-06 -1.40736e-22)
(-0.000224176 -1.51505e-05 0)
(-1.23182e-07 1.58974e-07 0)
(0.000193244 -0.000403101 2.60853e-21)
(-7.54493e-06 1.92958e-05 3.61248e-22)
(-0.000121816 -7.7068e-05 -4.50513e-23)
(0.000116081 1.84756e-05 1.01139e-22)
(-0.000343499 -5.0894e-05 0)
(-0.00026016 0.000128582 4.17249e-25)
(0.000186886 -9.93543e-06 0)
(-0.000169024 -5.90414e-05 3.76824e-22)
(-6.07827e-06 1.07261e-05 6.18864e-23)
(-2.61423e-05 -3.70791e-05 6.48886e-22)
(-9.12477e-05 0.000144377 0)
(-1.50598e-07 7.52298e-07 -8.16118e-22)
(0.000299975 7.6035e-05 0)
(-9.12842e-05 3.58839e-05 1.60262e-22)
(-0.000302042 -9.32551e-05 0)
(9.4618e-05 1.38195e-05 -4.05427e-23)
(-6.68052e-06 -2.40243e-06 0)
(-0.000119003 3.94362e-05 0)
(9.44927e-05 1.27888e-05 0)
(-8.66897e-05 0.000148787 4.1397e-22)
(-5.83771e-05 0.000193434 -9.20877e-22)
(0.000509545 6.26446e-05 1.90139e-22)
(-6.99091e-05 3.49959e-05 5.92992e-22)
(-0.000381135 3.38141e-05 -1.43765e-22)
(-1.17134e-06 7.70679e-06 0)
(0.00010641 -8.09691e-05 -1.65943e-22)
(-0.000217493 0.000253083 0)
(0.000422261 2.29858e-06 3.21176e-24)
(-0.000235743 0.000218072 0)
(8.95051e-05 1.15164e-05 1.19299e-22)
(0.00013608 2.47229e-05 3.20422e-23)
(-7.75829e-05 0.000218254 0)
(0.00048224 -3.91336e-06 -3.08695e-23)
(-2.9544e-06 -1.72819e-05 0)
(-0.000236477 -0.000209384 4.73574e-23)
(-6.32061e-05 0.000240755 2.52096e-21)
(0.00100969 0.00135426 3.08563e-21)
(7.21002e-07 0.000117655 1.12582e-21)
(0.00052818 -2.97835e-07 -1.75299e-22)
(-9.2889e-06 2.11828e-05 3.17624e-22)
(0.000773494 -3.24233e-05 3.91418e-23)
(-0.00014925 1.9519e-05 4.01189e-22)
(-0.000386341 0.000110437 -6.64753e-23)
(-2.30522e-05 -4.00836e-06 0)
(-6.02835e-05 -1.2039e-05 -6.89502e-22)
(-0.000224396 0.000226873 1.6159e-23)
(-0.000278339 0.000173743 0)
(-3.10241e-06 7.15329e-05 0)
(-0.000142558 -0.000133782 7.81454e-22)
(-5.75108e-05 -1.19093e-05 -2.18006e-22)
(-0.000203264 0.000224599 -1.06851e-22)
(4.9187e-07 -5.56559e-06 0)
(-0.000128881 0.000126399 6.13026e-22)
(7.84793e-05 7.95666e-06 -5.01989e-23)
(0.00030705 -0.000329515 0)
(0.000290094 -1.103e-05 -2.76137e-23)
(-1.07326e-06 7.46253e-06 7.14228e-25)
(0.000306402 -4.25862e-05 0)
(-5.20504e-05 8.60327e-05 5.35487e-22)
(-8.50503e-06 -1.05509e-06 -3.10358e-22)
(-0.000318529 0.000100555 0)
(-8.63129e-05 0.000132923 0)
(-4.94647e-05 0.000123095 1.66939e-21)
(0.000123843 2.50548e-05 0)
(-0.000156203 -3.12041e-05 1.57026e-25)
(-9.46027e-05 0.000145178 -5.30364e-22)
(-2.57154e-05 0.000171097 -9.11047e-22)
(-2.69863e-05 6.06955e-05 -1.03039e-21)
(-6.39539e-06 -2.7904e-06 -4.83475e-22)
(0.000116171 -7.53113e-05 2.15687e-22)
(0.000780791 -4.91563e-05 3.90126e-23)
(-1.59264e-05 -2.18794e-06 2.69892e-22)
(-1.12144e-05 -2.15294e-06 4.41147e-22)
(-0.000369572 9.21725e-07 -3.56257e-22)
(-1.92065e-05 3.21219e-06 8.02132e-22)
(0.00027197 3.03532e-06 0)
(-0.000133386 0.000177272 -8.29694e-22)
(0.000101247 1.33351e-05 1.19714e-22)
(0.000579494 5.08051e-05 0)
(-4.33755e-05 1.41126e-05 0)
(-0.000177766 0.0001289 -1.6854e-22)
(-5.2659e-05 -4.1642e-05 4.6028e-23)
(-0.000263648 -0.000110804 0)
(8.23993e-09 4.2158e-06 1.03727e-21)
(-8.74441e-05 0.000216328 1.84861e-21)
(-0.000216865 -6.93905e-06 1.74451e-23)
(-2.47333e-05 4.93466e-05 0)
(2.74266e-05 -0.000761172 -9.8516e-24)
(0.000122456 2.58312e-05 0)
(-0.000206458 1.36881e-05 0)
(0.000147435 -2.1832e-05 0)
(-0.000136064 5.66109e-05 0)
(-0.000202037 1.61549e-05 4.31872e-22)
(-4.38853e-06 1.71882e-05 1.44111e-22)
(0.000303627 -6.23054e-05 0)
(-4.79979e-06 1.75153e-05 -1.85739e-22)
(-0.000122854 4.22197e-05 3.11944e-24)
(-0.000257815 -0.000216143 0)
(-3.59104e-07 2.71314e-07 0)
(-6.43235e-05 -1.4598e-05 -4.6675e-22)
(-0.000319978 0.000104606 6.63517e-23)
(-0.000300108 0.000176233 0)
(-2.38496e-05 2.22102e-06 -7.16876e-22)
(0.000237732 5.38705e-05 -1.63849e-22)
(-0.000150735 -0.000218217 0)
(-1.44429e-06 1.03092e-05 0)
(0.000275297 4.40322e-05 -6.51131e-24)
(0.000114119 3.15915e-06 -1.3758e-21)
(-0.000222869 -7.11153e-05 2.53737e-22)
(-3.72605e-05 5.89575e-06 -2.45627e-22)
(-0.000292063 1.03439e-05 8.4504e-23)
(-0.000299556 -0.000249251 0)
(-0.000303664 -0.000256295 -1.9153e-23)
(-0.000260828 -0.000107539 2.75023e-22)
(0.000130803 2.02747e-05 0)
(-2.05573e-05 0.000189914 -2.78491e-21)
(-0.000249401 -3.82833e-05 0)
(-9.06524e-05 0.000215142 -1.34268e-21)
(-0.000179593 6.05765e-05 0)
(-9.14113e-05 0.000256361 4.76955e-22)
(-0.000228894 0.00022157 -1.83884e-23)
(0.000201652 1.69751e-05 -1.54918e-22)
(-5.11782e-05 -7.05221e-05 2.74507e-24)
(-0.00019211 0.000182975 0)
(0.000289077 -1.53923e-05 0)
(3.36059e-06 0.00016288 -2.89617e-21)
(-0.00015928 1.72701e-06 -2.43213e-23)
(7.16596e-05 -1.19978e-05 -5.16061e-22)
(-9.05874e-06 3.38194e-06 9.58469e-22)
(0.000160473 3.13781e-06 3.46546e-22)
(-2.41751e-05 7.08455e-05 -6.41015e-22)
(-0.000220245 0.000252694 0)
(0.000160958 3.15928e-05 0)
(1.13973e-05 -6.94794e-05 -2.9852e-22)
(0.000119201 1.01312e-05 -4.32668e-24)
(-6.52097e-05 3.74738e-06 -4.8405e-22)
(-0.000117046 -0.00013025 6.60147e-22)
(-0.000319513 0.000132805 5.73242e-23)
(0.000177684 3.48228e-06 0)
(0.000162586 3.14769e-06 0)
(-0.000187404 -3.12259e-05 -1.36407e-23)
(0.000124701 2.00511e-05 3.90979e-24)
(-7.32227e-06 4.05397e-07 -7.84038e-22)
(-2.84322e-06 0.000305052 0)
(-0.000146178 -0.000127324 0)
(-0.000101734 8.47032e-05 5.74076e-22)
(0.000427526 -4.40338e-06 9.60295e-23)
(-2.22976e-05 -2.44313e-06 -2.92239e-22)
(0.000180724 4.04626e-05 0)
(-0.000172926 -4.7971e-05 -2.25714e-22)
(-0.000114502 0.000226152 0)
(-4.41585e-05 0.00014749 -1.38245e-22)
(-3.19627e-05 0.000164063 5.65825e-24)
(-2.13889e-05 -6.6095e-07 -5.77514e-22)
(-1.05549e-06 1.59653e-05 0)
(-4.37804e-05 1.7064e-05 0)
(-3.09326e-05 4.14843e-06 9.47062e-22)
(0.00030848 1.98277e-05 1.36206e-22)
(-0.000156484 -9.55917e-05 -2.34727e-22)
(-1.31367e-05 3.92478e-06 0)
(-8.34051e-05 0.000126348 1.37519e-23)
(0.000344056 1.74136e-05 -1.93199e-22)
(-0.000302883 -0.000135847 -1.88355e-22)
(0.000324796 3.80046e-06 -1.78335e-22)
(0.00058685 4.77167e-05 0)
(-0.000173037 1.02229e-05 6.81235e-22)
(-2.22018e-07 8.84099e-06 1.85049e-23)
(0.000160052 -8.76581e-07 0)
(-8.58392e-05 0.000259753 1.97087e-22)
(0.000236381 5.6099e-05 1.32341e-22)
(-0.000164139 -5.8397e-05 -7.33396e-25)
(-2.74995e-05 0.00016852 0)
(-0.000266758 -0.000160595 -1.72648e-22)
(-2.64183e-05 5.33752e-05 5.69674e-22)
(2.41242e-06 -2.96461e-06 6.72192e-22)
(-0.000184318 -2.92234e-05 -1.92981e-22)
(0.000116889 -8.24503e-05 0)
(-8.45365e-05 0.000205378 -1.22607e-21)
(-0.000263586 -0.000215853 -3.10198e-22)
(-7.46485e-06 -5.87293e-07 -9.402e-23)
(8.95451e-05 7.25214e-06 -4.42103e-23)
(-0.000185727 -0.000200302 0)
(-1.03659e-05 7.66235e-05 4.02643e-22)
(-3.27589e-05 4.02388e-05 0)