/*--------------------------------*- C++ -*----------------------------------*\
| =========                 |                                                 |
| \\      /  F ield         | OpenFOAM: The Open Source CFD Toolbox           |
|  \\    /   O peration     | Version:  v2012                                 |
|   \\  /    A nd           | Website:  www.openfoam.com                      |
|    \\/     M anipulation  |                                                 |
\*---------------------------------------------------------------------------*/
FoamFile
{
    version     2.0;
    format      ascii;
    class       surfaceScalarField;
    location    "100";
    object      ddtCorrDdt0(phi);
}
// * * * * * * * * * * * * * * * * * * * * * * * * * * * * * * * * * * * * * //

dimensions      [0 3 -2 0 0 0 0];
oriented        oriented;


internalField   nonuniform List<scalar> 
22717
(
7.04267e-07
8.85656e-06
-9.56077e-06
2.77674e-05
-5.06972e-05
2.29294e-05
3.24445e-06
-3.7087e-06
4.64455e-07
-5.62835e-06
-2.2866e-05
2.84927e-05
-3.28196e-06
3.15755e-06
1.29177e-07
-1.09623e-05
2.3693e-05
-1.27301e-05
-5.67058e-05
3.08177e-05
2.58895e-05
-3.88811e-05
3.55594e-05
3.32139e-06
3.20926e-05
3.09306e-06
-3.51852e-05
1.05374e-05
-9.83334e-06
3.59876e-06
-3.54146e-07
3.70179e-05
-1.31951e-05
-4.35237e-07
-2.81875e-06
9.1169e-07
-9.52808e-06
8.61571e-06
-1.96065e-06
-4.04075e-05
4.2368e-05
9.14798e-06
-1.48927e-05
5.74464e-06
-1.14296e-05
2.9245e-05
-2.96681e-05
4.24039e-07
1.03573e-05
6.8916e-07
-1.10466e-05
2.49039e-05
-3.93921e-05
1.44874e-05
-1.82503e-05
7.12997e-06
1.11199e-05
-1.31841e-05
-5.06646e-06
-1.54573e-05
-4.12473e-05
8.65463e-06
-5.38358e-06
-3.27125e-06
4.66399e-05
-3.38803e-05
-1.27623e-05
3.77792e-05
-3.06838e-05
-7.09525e-06
3.71786e-08
-3.58144e-08
1.35077e-05
2.42689e-05
2.34279e-06
-1.52689e-05
1.29184e-05
-2.36893e-06
2.42729e-05
-2.19029e-05
-1.62039e-06
1.62001e-06
-3.13433e-05
3.95913e-05
-8.2484e-06
-2.01513e-07
-2.57233e-06
2.09648e-05
2.11076e-07
-2.11759e-05
1.99711e-05
-2.0897e-05
9.25999e-07
-4.55573e-05
3.26139e-05
1.29443e-05
-2.16448e-05
-2.39101e-05
-4.39758e-05
2.04679e-05
2.35109e-05
1.61358e-05
-1.60935e-05
-4.22731e-08
1.05923e-05
1.86784e-05
-2.92698e-05
-4.70483e-05
2.3469e-05
2.35787e-05
2.93617e-06
3.30152e-06
-6.23707e-06
-1.39631e-05
-9.97934e-06
2.39427e-05
-1.291e-05
3.94835e-05
-2.65731e-05
1.79851e-05
1.99165e-08
-1.80052e-05
7.4113e-07
2.50885e-06
-3.24994e-06
-4.53803e-06
8.31857e-06
-3.78172e-06
-1.14061e-05
6.16386e-06
5.24143e-06
9.05969e-06
-8.14837e-06
-3.27619e-06
-2.48463e-05
2.8123e-05
5.64595e-06
3.00867e-06
3.33668e-05
7.70717e-06
-4.10735e-05
2.40187e-05
-1.48706e-05
-1.13171e-06
6.17582e-06
-2.02128e-05
1.40366e-05
3.89196e-05
-5.80693e-05
1.91468e-05
-8.52438e-06
-1.27065e-05
2.12367e-05
-6.842e-06
4.02092e-05
-2.15818e-07
-8.34986e-07
1.05708e-06
-3.32437e-06
3.77893e-06
-4.54351e-07
2.30607e-06
1.24798e-05
-1.47862e-05
-6.11162e-06
-5.29463e-06
2.76819e-05
-2.80925e-05
4.09191e-07
-3.74303e-06
2.55855e-05
-2.18434e-05
1.20533e-05
-1.66887e-05
4.63473e-06
1.44643e-05
2.25541e-05
4.9951e-05
-4.48071e-05
-5.14744e-06
-4.13419e-05
9.99852e-06
-9.79562e-06
1.62572e-05
-6.46194e-06
-3.42858e-06
2.95585e-07
3.13285e-06
-4.74729e-05
1.09564e-05
3.65165e-05
-7.94385e-06
-2.13959e-05
2.93425e-05
1.24921e-05
3.41487e-05
-1.69353e-05
1.3671e-05
3.26391e-06
-4.03035e-05
4.72221e-05
-6.91858e-06
-1.74628e-05
1.82242e-05
-7.61547e-07
-1.97659e-05
-2.72825e-05
-9.17544e-06
3.84966e-05
-2.93213e-05
3.88971e-05
1.39015e-05
-5.27984e-05
2.60868e-06
-2.76787e-06
1.59138e-07
4.77241e-06
4.91401e-07
-5.26292e-06
1.14845e-06
-1.14721e-06
5.36307e-06
6.1004e-07
-5.97342e-06
-4.00188e-05
4.50828e-05
-5.06531e-06
-9.85584e-07
-6.38097e-07
-3.84703e-06
4.58813e-06
8.56495e-06
1.79264e-06
-3.21914e-05
3.12298e-05
9.60837e-07
1.56132e-05
3.07368e-05
-4.63496e-05
-5.01226e-06
5.97479e-06
-9.62098e-07
5.91394e-05
-4.45474e-05
-1.45972e-05
-3.13568e-06
-3.01173e-05
3.32529e-05
-3.11255e-05
2.6116e-05
4.99841e-06
-3.2551e-07
1.14057e-07
3.03715e-05
1.59293e-06
-3.19635e-05
-5.0843e-06
3.47068e-06
1.61366e-06
4.51817e-05
-2.33368e-05
-2.18457e-05
-5.6011e-06
-1.96909e-06
7.56989e-06
2.53194e-06
7.66772e-08
-2.12379e-05
7.27475e-06
-1.72748e-05
-1.87988e-07
4.35087e-05
-3.9049e-05
-4.45944e-06
-1.23924e-05
4.20192e-05
-2.96277e-05
-1.29095e-05
3.03834e-05
-1.74741e-05
4.04714e-05
-8.37884e-06
1.99793e-05
-1.38038e-05
-1.73852e-05
2.73363e-05
-9.95154e-06
-8.13246e-06
1.85751e-05
-1.04356e-05
-2.68091e-05
-1.46405e-06
2.82665e-05
1.05344e-05
-3.38647e-06
-7.14849e-06
3.24868e-05
1.08481e-05
-4.33362e-05
1.31741e-05
-8.70799e-06
-4.4663e-06
-3.85852e-05
2.53896e-05
-1.12852e-05
-3.60786e-06
-4.23636e-06
-2.79555e-05
-1.48675e-05
-3.26056e-05
4.20689e-06
-3.53294e-05
-5.96724e-06
9.55758e-07
1.11689e-05
-8.23258e-06
-5.19105e-06
-3.28103e-07
5.51922e-06
1.28182e-05
6.9804e-06
-1.97986e-05
-1.54788e-05
1.29214e-05
2.55718e-06
-1.43069e-05
-9.11163e-06
2.34196e-05
-1.97154e-05
8.06679e-07
1.89089e-05
-2.41178e-05
1.63788e-05
7.73903e-06
1.66595e-05
-2.5193e-05
7.07343e-06
1.83482e-07
-7.25662e-06
3.52575e-05
4.65866e-06
1.58945e-05
-2.05531e-05
-1.01697e-05
9.68435e-06
4.85461e-07
1.73342e-05
6.50756e-07
3.93478e-06
-3.89693e-06
-3.77281e-08
3.43572e-05
-1.44835e-05
-1.98718e-05
-3.7533e-05
2.83571e-05
2.71512e-06
-4.49233e-06
1.77711e-06
5.85166e-06
-4.8854e-07
2.85911e-05
-2.62493e-05
2.90312e-05
-1.35137e-06
-3.03086e-05
-8.57272e-06
3.85981e-05
2.05322e-05
4.60713e-05
-3.0458e-05
3.48594e-05
-1.80337e-05
-1.68253e-05
-2.75008e-06
-8.6796e-06
3.39716e-06
-1.9233e-05
1.58355e-05
4.65229e-05
-9.04972e-05
-2.06674e-06
-1.48691e-05
-2.10862e-05
2.10792e-05
3.48273e-05
-1.16462e-05
-2.31802e-05
-1.2052e-06
5.68967e-06
-4.4846e-06
3.65973e-05
-8.45181e-06
-2.81454e-05
4.16807e-05
-3.89335e-05
-2.74659e-06
-1.13013e-05
-1.28157e-05
2.99773e-05
3.94694e-07
-3.80715e-06
5.83615e-06
-2.02824e-06
2.52073e-06
-2.77517e-06
2.54529e-07
1.83216e-05
-2.1848e-05
3.52656e-06
-1.76363e-07
1.6312e-05
-1.62082e-05
1.54874e-05
7.14594e-07
4.85104e-05
-4.81283e-05
-3.81828e-07
3.27705e-06
-7.56321e-07
-2.49774e-05
3.06486e-05
-5.67078e-06
2.9167e-06
-1.72233e-05
2.91571e-05
-4.08434e-05
1.16865e-05
1.41431e-05
-1.57767e-05
1.63381e-06
-1.51083e-05
1.83822e-05
-3.27323e-06
-1.74176e-05
2.30976e-06
-7.05962e-06
4.92885e-06
2.13113e-06
2.42736e-05
-5.72502e-06
-1.85497e-05
-9.23817e-07
-3.59466e-06
8.7191e-06
5.50596e-05
-6.37778e-05
9.21716e-06
-2.05024e-05
2.15755e-05
-2.07925e-05
-7.83101e-07
3.01895e-05
-2.21439e-05
-8.0447e-06
1.78932e-05
-4.42494e-05
2.63574e-05
-1.70748e-06
-1.06041e-06
6.76486e-07
1.43294e-06
-2.10901e-06
-7.88705e-06
2.30784e-05
-1.51922e-05
-3.95351e-05
4.82558e-05
2.61946e-05
-1.33764e-05
-1.63281e-05
3.42225e-05
2.42717e-05
-1.27937e-05
1.50989e-05
-3.82413e-05
3.87479e-05
-5.06376e-07
-2.28058e-06
-3.59605e-05
-1.4158e-06
1.57529e-05
-1.43377e-05
-2.24081e-07
3.14626e-05
-3.12394e-05
2.61164e-05
-3.17476e-05
-1.80796e-06
-9.1096e-06
-1.06014e-06
-6.12271e-06
7.52387e-06
-1.40125e-06
3.89356e-05
-1.5816e-05
-2.30989e-05
-4.51691e-05
3.00396e-05
1.51282e-05
4.75437e-05
-3.50507e-05
6.62981e-06
2.18915e-05
-2.85243e-05
8.35045e-06
5.60832e-06
-1.39556e-05
-3.93854e-06
-6.60576e-06
1.05442e-05
-1.71335e-05
1.70357e-05
9.75967e-08
2.50349e-05
-1.81954e-05
-6.83926e-06
-7.09448e-06
6.66875e-06
3.1395e-05
1.37866e-05
1.74047e-05
1.69537e-05
-4.94753e-06
-2.40161e-05
2.89618e-05
5.48314e-06
-7.03121e-06
1.54819e-06
5.62428e-06
-5.54363e-06
-8.16668e-08
2.47255e-06
3.44036e-05
-3.68767e-05
1.95039e-06
-1.27403e-06
-1.59274e-05
2.41081e-05
-8.18307e-06
2.12194e-05
-2.92617e-05
8.04183e-06
2.8452e-05
2.26708e-06
-3.07196e-05
1.62599e-05
2.38109e-05
-4.00704e-05
1.22738e-05
8.16155e-06
-2.04353e-05
-5.60461e-06
1.79697e-06
-2.42846e-05
2.19166e-05
-2.32649e-06
2.51777e-05
-2.28313e-05
-2.53675e-05
9.43756e-06
2.74495e-07
-6.12341e-07
4.22938e-05
6.14526e-05
-3.98874e-05
-2.15648e-05
-5.35809e-06
1.92418e-05
-1.39062e-05
2.36001e-06
-2.20759e-05
5.41825e-06
-1.16807e-05
6.26233e-06
3.33026e-05
-2.48693e-06
-3.08169e-05
2.34945e-05
-4.74027e-05
2.39083e-05
1.14126e-05
-2.98984e-05
1.84804e-05
6.50802e-07
-9.89683e-06
9.24173e-06
-9.02822e-06
9.35347e-06
-3.25492e-07
-1.49138e-05
1.49152e-05
-3.64314e-05
4.00374e-05
-3.60621e-06
-2.27005e-05
2.8105e-05
-5.40477e-06
-5.1271e-06
6.41123e-06
-1.28411e-06
-4.15686e-06
-2.1796e-07
4.37439e-06
8.51717e-06
5.42212e-07
1.49993e-05
-2.11705e-05
6.16392e-06
-3.52088e-08
-8.16557e-06
3.50661e-05
-2.69012e-05
3.12167e-05
3.22126e-05
2.924e-05
1.59571e-06
1.42674e-06
-3.02198e-06
1.1109e-05
-4.48098e-06
-1.12857e-05
1.51131e-05
-3.82753e-06
-2.79823e-05
1.17301e-06
1.44128e-05
-1.49155e-06
3.66833e-05
-3.45999e-05
-2.0835e-06
7.50195e-06
-2.01882e-06
1.63468e-06
-7.5786e-06
5.94355e-06
-3.35323e-05
1.23161e-05
2.12178e-05
1.37925e-06
-1.472e-05
9.4971e-06
5.22336e-06
-1.17015e-05
-3.01764e-06
6.24868e-06
-6.23749e-07
-1.75534e-05
1.72933e-05
2.63218e-07
3.85717e-06
7.75757e-08
-1.41341e-06
4.06671e-05
-1.15101e-05
-1.20268e-05
9.83435e-06
2.19401e-06
5.82067e-05
-1.96078e-05
8.97265e-06
-8.73189e-06
-2.40612e-07
-2.86075e-06
-5.68143e-07
3.11347e-05
-2.86624e-05
1.35898e-05
-1.35898e-05
2.61897e-06
-2.70468e-06
8.54765e-08
6.64503e-06
9.6013e-07
-7.60514e-06
-2.05082e-05
9.5456e-06
5.83397e-06
-1.56292e-05
-3.83479e-06
4.96953e-06
-1.13524e-06
-5.81204e-06
5.43226e-05
-1.48103e-05
1.39119e-05
8.98108e-07
-1.95019e-06
2.22094e-05
-2.34679e-06
-1.98642e-05
4.38733e-05
-4.58341e-05
1.39669e-05
-1.53831e-05
-1.84382e-07
-1.4626e-05
-6.09139e-06
9.64179e-07
8.78758e-06
-1.14699e-05
2.68207e-06
1.34048e-05
-3.20994e-05
1.86946e-05
-2.02449e-05
-2.69979e-06
2.29443e-05
-5.85018e-06
-3.44251e-05
4.0276e-05
-2.29967e-05
1.92535e-05
4.23574e-06
-9.52812e-06
1.51982e-05
-5.14429e-07
-1.46837e-05
1.27493e-05
-3.35533e-06
-9.39397e-06
3.50155e-05
2.32013e-05
-1.0531e-05
2.98732e-05
-1.93424e-05
6.71914e-06
-7.9241e-06
2.23906e-05
-4.06887e-06
4.10465e-05
-1.03528e-05
-3.06939e-05
-7.5232e-06
-1.65291e-05
2.40531e-05
-2.68944e-05
7.01263e-06
1.98811e-05
-1.6916e-05
-5.00403e-07
-3.014e-05
2.70048e-05
2.64487e-05
-2.76733e-06
-2.36839e-05
1.02334e-05
2.54093e-05
-3.56427e-05
3.01883e-05
-6.34879e-06
-2.38396e-05
-9.94098e-05
7.4244e-06
-7.79502e-07
-2.87186e-05
4.71118e-05
-1.83934e-05
1.5209e-05
4.76196e-06
9.06974e-06
-9.72288e-08
-1.66951e-05
1.75013e-05
-1.62107e-05
4.92527e-06
-4.0996e-05
1.23497e-05
2.86459e-05
2.52099e-05
-1.62436e-05
-8.96584e-06
-2.14912e-06
-1.17657e-06
3.3257e-06
-8.82192e-06
4.77191e-05
-1.57602e-05
-1.15611e-06
3.0289e-06
-4.02778e-05
4.45693e-05
-4.29224e-06
3.15084e-05
-2.18394e-05
-9.66689e-06
-6.12309e-06
8.23496e-06
-2.11135e-06
2.54308e-06
1.05692e-05
-1.31116e-05
-4.33911e-05
3.37243e-06
-1.99789e-05
5.99535e-06
1.39837e-05
-4.43995e-05
4.12218e-06
-2.89231e-06
-1.48555e-05
1.77478e-05
-3.05756e-05
1.55626e-05
1.50123e-05
1.22907e-05
-1.84548e-05
6.16405e-06
1.5337e-05
-1.19174e-05
-3.41993e-06
-5.63514e-06
2.06306e-05
2.04966e-05
1.84421e-05
1.26134e-05
-5.60104e-07
-3.33864e-07
3.34473e-07
1.10722e-05
-9.76878e-06
-1.30276e-06
-1.42531e-05
-2.19125e-05
3.61641e-05
-4.57234e-06
-1.03227e-06
-7.54764e-06
-1.20544e-06
8.75379e-06
-2.76607e-05
4.9601e-06
1.09807e-05
-3.63968e-05
2.54159e-05
1.52401e-05
2.13572e-05
2.52702e-06
4.73115e-09
-9.07655e-06
-3.19196e-05
2.16162e-05
7.42032e-06
-2.90361e-05
4.21538e-06
2.74209e-05
-3.16367e-05
-1.32784e-05
-1.16935e-05
2.4978e-05
5.30495e-06
3.82049e-05
-2.90378e-05
2.40888e-05
-2.64198e-06
1.14294e-05
-2.74057e-07
3.11507e-07
1.62037e-05
-1.66563e-05
4.52475e-07
-8.77843e-06
4.76954e-05
5.44154e-05
-2.8177e-05
-2.62385e-05
-9.86739e-06
6.11951e-06
3.74812e-06
2.36153e-05
3.08003e-05
2.07546e-05
2.79527e-05
-4.87067e-05
1.59371e-05
1.55725e-05
2.49648e-05
-4.0001e-06
-4.3252e-05
2.72375e-05
1.60122e-05
-6.05626e-06
1.42671e-06
4.63034e-06
7.83993e-07
-1.17085e-05
1.51053e-05
-8.34415e-06
2.22132e-06
1.79572e-05
-2.58981e-05
-1.81334e-06
5.69224e-05
-5.33722e-06
5.9672e-06
-6.30695e-07
1.16961e-05
-6.27786e-06
-3.04483e-05
1.16341e-05
1.88139e-05
1.72214e-05
-3.65389e-05
1.93169e-05
5.46989e-05
-3.68755e-05
-1.78242e-05
3.76118e-05
-4.17521e-05
4.14029e-06
2.04981e-05
2.05487e-05
-1.5816e-05
3.92609e-05
-2.34463e-05
-3.17777e-05
2.12469e-05
-3.39468e-05
4.5972e-05
-1.20225e-05
-7.41315e-06
2.86326e-05
5.69594e-07
2.28213e-05
-1.4717e-05
-1.49124e-06
-4.04654e-05
2.46486e-05
-3.28511e-05
2.93785e-05
3.47296e-06
-4.66798e-06
2.23932e-06
2.42818e-06
9.68904e-06
1.55209e-05
2.17552e-05
-2.50313e-05
-3.8059e-05
2.31054e-05
1.49533e-05
4.06465e-05
-3.99507e-05
-6.95435e-07
-1.80017e-05
1.51093e-05
5.95552e-06
4.01265e-05
-4.48097e-05
4.683e-06
-1.95532e-05
4.30472e-05
-9.78676e-06
7.02959e-06
2.75307e-06
-6.05734e-06
1.48514e-06
-6.65864e-06
-3.20854e-06
1.26577e-06
2.89223e-05
4.07209e-06
-4.80985e-06
7.37639e-07
2.86203e-05
2.13273e-05
-3.03447e-05
3.01207e-05
-5.61028e-06
-4.81089e-07
4.09811e-05
-8.49518e-06
1.33844e-05
1.6804e-05
-8.39608e-06
-1.96876e-05
2.80836e-05
2.00597e-07
-2.03639e-05
1.58567e-05
4.50649e-06
-1.03575e-05
2.37621e-05
-6.25263e-06
6.42151e-07
-3.31141e-05
2.47181e-05
4.76484e-05
-4.5379e-05
-2.26951e-06
1.08455e-05
-3.37787e-05
2.29315e-05
-2.9847e-05
-1.34072e-05
3.21167e-05
-4.9413e-05
1.72967e-05
-2.24921e-05
-4.44405e-06
2.69349e-05
1.00732e-05
-5.58958e-06
-4.48372e-06
3.94795e-05
-1.86746e-06
4.10319e-05
-1.55252e-06
5.52997e-08
5.79168e-06
-5.84437e-06
3.53511e-05
-2.43712e-05
7.7195e-06
1.80074e-05
-2.57275e-05
-3.49323e-05
-6.81937e-06
5.71396e-05
-6.37472e-05
6.60751e-06
-1.04866e-05
-2.31858e-05
3.36913e-05
-1.11754e-05
-1.11496e-05
2.2322e-05
-2.68042e-05
3.70379e-05
-3.97361e-05
-3.65512e-06
-3.23902e-05
7.3449e-06
8.15077e-06
2.38318e-06
4.18222e-05
-2.71347e-05
-1.4688e-05
2.00346e-05
-7.74372e-06
9.39204e-06
1.68009e-06
3.10357e-05
-2.3754e-06
-2.86599e-05
4.93132e-07
1.536e-05
-1.58543e-05
1.98539e-05
1.50057e-05
-2.25188e-05
2.98381e-05
-7.31969e-06
5.66642e-06
-5.23903e-06
-4.27986e-07
-1.69985e-05
-2.57541e-06
-2.17646e-05
5.25015e-05
-2.64357e-05
1.80119e-05
8.42391e-06
-5.47352e-05
2.65582e-05
1.82003e-05
-2.02656e-05
2.06529e-06
3.58759e-05
-2.68626e-05
-9.01325e-06
2.33016e-06
-2.33013e-06
2.50117e-06
1.86739e-05
-2.11752e-05
1.72821e-05
-7.90687e-06
-9.37444e-06
-6.71347e-06
-2.05462e-06
8.76815e-06
7.53413e-06
-2.47125e-05
1.71783e-05
-9.06292e-06
8.36691e-06
6.95798e-07
2.14052e-05
1.34204e-05
-7.91746e-06
1.46882e-05
-6.77137e-06
4.81431e-06
1.17137e-07
-4.93103e-06
-1.4369e-06
4.05189e-06
-2.61512e-06
-1.54568e-05
2.01154e-05
-6.48161e-06
7.64226e-06
-1.16538e-06
8.87749e-06
-1.39268e-06
-7.48429e-06
-1.2447e-05
2.03716e-05
-7.92475e-06
-3.30323e-05
3.72475e-05
3.07257e-05
-5.04024e-05
1.96752e-05
2.41536e-05
-3.6143e-06
-2.05381e-05
1.70657e-06
2.31739e-05
-3.50904e-05
-1.96452e-05
5.87516e-05
-2.65393e-05
5.96624e-05
-5.86757e-05
-9.86787e-07
9.12142e-07
-3.52963e-05
1.34969e-06
-2.75667e-05
1.94007e-05
6.63853e-06
-3.14848e-05
5.1531e-06
-2.22115e-05
1.70583e-05
-1.28898e-05
1.80429e-05
-1.17004e-05
2.31424e-05
-1.1442e-05
-1.52875e-05
2.10334e-06
6.05077e-06
8.36166e-06
2.66764e-05
3.20751e-05
7.19551e-06
2.35436e-05
-3.64787e-05
1.29113e-05
-2.13757e-05
3.19714e-05
2.99075e-06
7.08248e-06
3.46426e-05
2.00561e-05
2.32169e-05
-3.74702e-05
2.7164e-05
5.0318e-06
-3.21954e-05
1.04504e-05
1.45844e-05
3.50355e-05
-2.99679e-05
-5.06309e-06
-1.21746e-05
-7.8044e-06
2.20562e-05
4.86674e-05
-2.09001e-05
-4.68878e-05
2.07758e-06
7.07305e-08
-2.04354e-05
1.70037e-07
-2.20258e-06
2.03257e-06
1.20068e-05
-9.46357e-06
6.32182e-06
-1.54729e-05
9.16404e-06
4.58614e-05
-5.73498e-06
9.13738e-06
-7.80241e-06
-1.33421e-06
1.76062e-05
-1.1294e-05
3.33804e-05
-2.19669e-05
1.62887e-05
-2.12077e-06
-1.41835e-05
-4.75023e-05
2.64467e-05
2.1055e-05
5.12917e-06
-3.56732e-07
1.84926e-05
-2.60163e-05
-1.46821e-05
1.18016e-05
2.88076e-06
-2.70692e-08
-2.58632e-06
2.61318e-06
-2.40492e-05
7.89578e-06
1.61527e-05
-5.65766e-06
-1.2895e-05
1.85523e-05
-1.6549e-05
3.19627e-06
1.33523e-05
3.51693e-07
2.82013e-06
-3.17133e-06
2.9848e-05
-1.63805e-05
-1.34686e-05
1.16142e-05
-8.58806e-07
-1.07557e-05
-9.98457e-06
-1.64512e-05
-2.47848e-05
-1.38868e-06
2.60518e-05
7.05039e-08
2.45632e-06
-1.15713e-06
3.32735e-05
-2.72503e-05
-2.91652e-05
6.64598e-06
-3.09298e-05
2.03353e-05
1.0596e-05
-4.03821e-07
1.86045e-05
-4.56243e-05
3.1938e-05
1.36855e-05
1.99487e-05
3.67006e-05
-8.81821e-06
2.10483e-06
-4.93684e-06
2.12804e-05
-1.63442e-05
-6.62767e-07
-1.3274e-05
1.39371e-05
1.23145e-07
-9.7572e-06
-1.49625e-05
2.47213e-05
2.85695e-05
-2.79874e-05
-5.80518e-07
5.87817e-05
-1.64199e-06
-2.79096e-06
-1.87714e-06
-1.56178e-07
-4.66385e-06
4.89174e-06
-2.27363e-07
-4.19061e-05
1.17088e-05
3.01976e-05
-3.24912e-06
1.0892e-05
-7.64347e-06
-2.64864e-05
-2.12091e-06
2.86074e-05
2.34224e-05
-2.0329e-05
3.13339e-06
1.87463e-05
-2.18803e-05
-3.92158e-05
-3.17833e-07
-3.30011e-05
3.63581e-05
-3.35695e-06
-5.4945e-08
-2.11157e-07
2.6605e-07
4.05493e-07
-3.06627e-05
-6.68599e-06
3.73489e-05
-1.48199e-05
2.0257e-06
-1.88751e-05
1.60031e-06
-2.49886e-05
7.82574e-07
2.42055e-05
-1.64576e-05
-7.59183e-06
1.94668e-05
-1.17876e-05
-7.67975e-06
-1.17086e-06
-4.54696e-06
5.7179e-06
4.79014e-06
2.46114e-08
-3.5411e-05
-1.20921e-05
1.21038e-05
-3.7706e-06
-8.33274e-06
5.24742e-06
-2.77409e-05
1.43466e-05
9.90096e-07
-2.32763e-05
-2.97738e-06
1.01069e-05
6.05955e-06
-6.09459e-06
9.66727e-06
-1.30094e-05
3.34185e-06
-1.58346e-05
1.54692e-05
3.65184e-07
-1.85797e-06
1.43374e-05
-2.77639e-05
-2.52136e-05
2.02765e-05
-2.50201e-05
3.69319e-05
-1.1912e-05
1.79873e-05
-3.65245e-05
1.8537e-05
-1.21942e-06
-5.77646e-07
1.79707e-06
1.15879e-05
-3.29623e-05
2.77929e-05
-4.07485e-05
1.29554e-05
1.55884e-07
2.20955e-06
-2.79126e-05
4.15444e-05
-1.36326e-05
-3.00494e-05
4.04569e-05
-1.04095e-05
-2.31265e-05
4.66729e-05
1.44015e-05
-4.90408e-06
-8.34013e-06
-1.04839e-05
1.8824e-05
2.97769e-06
1.00859e-06
-3.98622e-06
3.97248e-05
-3.29104e-05
-6.81513e-06
2.36524e-05
-2.59596e-05
1.27743e-06
-1.10753e-06
-3.2358e-05
3.47236e-05
-2.36532e-06
-5.2717e-06
2.31468e-05
8.03965e-06
-3.11864e-05
6.86021e-06
7.54149e-06
2.25527e-05
-1.18742e-05
-1.0679e-05
-4.35964e-05
1.88124e-05
2.47838e-05
3.84452e-05
-1.29288e-05
-2.55184e-05
1.48773e-05
1.40575e-06
-4.94808e-05
5.30158e-05
-3.53442e-06
-3.82455e-07
9.67852e-07
-5.76223e-07
-2.07767e-05
-1.50107e-05
3.57861e-05
-1.41175e-05
1.50816e-06
1.2609e-05
-5.5609e-06
-1.53361e-05
-4.09933e-06
2.57152e-05
7.04673e-07
-1.30112e-06
2.74157e-05
-1.77494e-06
-5.30844e-06
3.65931e-05
-1.86056e-05
-1.94546e-05
1.40828e-05
-1.26436e-05
1.19808e-05
-3.32397e-05
-4.95973e-06
3.81996e-05
7.6461e-06
-6.77048e-07
-6.96858e-06
1.00996e-06
1.1739e-05
-2.07119e-05
-7.27265e-06
1.83549e-05
-1.58538e-05
6.5209e-06
2.27224e-05
-4.42386e-07
5.37105e-06
-4.92885e-06
1.88771e-05
-1.65171e-05
3.06293e-05
-2.93639e-05
-3.45605e-05
1.18509e-05
2.27085e-05
1.73343e-06
-4.21408e-05
5.03294e-05
-4.61766e-05
-4.1525e-06
4.08281e-05
-2.0546e-05
-2.02815e-05
2.37029e-06
-2.07454e-06
3.70744e-06
-9.92709e-07
4.11428e-06
-4.14136e-06
-9.45589e-06
2.4249e-05
-1.47935e-05
4.70793e-05
-2.13361e-05
-2.57429e-05
1.41603e-05
-3.18693e-06
-1.09697e-05
-5.79111e-06
1.54581e-05
-8.76455e-06
2.89753e-05
-2.02107e-05
-3.9427e-05
2.31219e-05
1.63056e-05
-1.90418e-05
-2.61278e-05
8.94349e-06
2.20924e-05
3.44987e-05
-1.87589e-05
-1.574e-05
3.06203e-06
1.54904e-05
-1.85524e-05
8.22267e-06
-3.83362e-05
3.01139e-05
-2.16706e-05
9.96163e-06
7.31695e-06
4.29693e-06
-1.47269e-05
1.74e-05
-2.66845e-06
-1.17771e-08
-3.29894e-05
4.76877e-07
-4.07558e-05
3.75066e-05
1.71303e-06
5.89955e-06
1.35671e-05
-4.3052e-05
1.43466e-05
2.87047e-05
-3.97744e-08
1.21445e-05
-1.07626e-05
-1.99204e-05
1.00924e-05
1.61967e-05
-2.62942e-05
7.75996e-06
-6.868e-07
-1.7292e-05
-2.0767e-05
8.19658e-06
-3.87976e-05
3.06016e-05
1.6826e-05
1.76725e-05
-3.03534e-05
4.131e-05
5.96447e-08
7.19878e-08
-1.3167e-07
-2.86936e-05
1.82015e-05
-8.57117e-06
4.6327e-06
-1.57509e-05
6.47546e-06
1.3069e-05
1.34475e-05
2.49993e-05
-1.70393e-05
1.43763e-05
2.55951e-05
-3.9972e-05
3.26533e-06
2.88443e-06
-6.14999e-06
-1.50336e-05
1.99403e-05
-4.90705e-06
-2.93279e-05
2.92236e-05
9.99458e-08
3.90324e-07
-4.4532e-07
-1.11209e-05
1.8655e-05
-2.53203e-05
1.55633e-05
-4.11666e-05
1.11163e-05
6.05265e-06
-5.33815e-06
-7.14569e-07
-4.10369e-06
1.47177e-06
2.63164e-06
-1.17638e-06
3.03457e-05
-2.91697e-05
1.41995e-06
4.63277e-06
-3.01396e-05
3.97798e-06
2.61576e-05
2.29891e-05
-1.88228e-05
-4.17076e-06
3.52057e-05
-3.88622e-05
3.65671e-06
-2.03718e-05
-6.52273e-06
-1.11725e-08
-4.51606e-06
2.01785e-06
2.49819e-06
-1.16454e-05
6.05598e-06
2.56117e-06
2.35906e-05
-2.61501e-05
5.69551e-06
-1.9736e-05
3.05815e-05
-5.79442e-06
-1.72377e-07
6.87591e-07
-9.06951e-07
2.73542e-05
-4.61791e-05
-9.33083e-06
2.38745e-06
6.94352e-06
-3.16909e-05
2.23812e-05
-6.3242e-06
-1.60586e-05
-8.66472e-05
6.98068e-05
1.68265e-05
1.26417e-05
4.07043e-05
-3.41822e-05
6.56818e-06
-4.0846e-06
-3.77644e-06
3.09405e-05
-9.29151e-06
-9.29818e-06
2.69973e-07
1.25347e-05
1.00179e-05
-3.40287e-05
1.07098e-05
2.33203e-05
2.07311e-05
-4.15088e-05
-6.05574e-07
2.28149e-05
-5.1629e-05
2.38073e-05
2.78219e-05
2.14583e-05
-8.92382e-06
2.30559e-05
-1.08415e-07
-2.66997e-07
2.47391e-05
1.60888e-05
4.14713e-06
-4.00628e-06
-1.40771e-07
-2.03723e-05
-1.72198e-05
1.38497e-06
-3.08933e-06
-2.04062e-05
1.20662e-05
-1.22604e-05
-2.12706e-05
5.77975e-07
-4.735e-06
4.03092e-05
-3.02674e-05
-1.00416e-05
-6.34625e-06
3.4797e-05
-9.82075e-06
2.85084e-05
-1.8689e-05
-8.99823e-06
5.31187e-06
3.68659e-06
3.56536e-05
-2.7431e-05
-3.18681e-05
2.53899e-06
1.18995e-05
-3.19436e-05
2.00446e-05
-2.46136e-05
2.0943e-05
3.67047e-06
-2.94742e-06
-1.15643e-06
-8.36432e-06
-3.28108e-06
-5.53384e-05
-6.45659e-06
6.17949e-05
-7.66119e-06
2.05997e-06
-7.59883e-07
-5.29608e-06
3.94844e-05
-4.53341e-05
1.0173e-05
-6.90836e-06
-3.26524e-06
-2.05709e-07
9.6291e-06
-3.03438e-05
-5.51479e-06
-2.79938e-07
-3.83715e-05
4.2566e-05
-4.19378e-06
-1.81048e-05
-2.37341e-05
-4.44327e-06
2.81776e-05
-2.42871e-06
-2.32962e-06
4.75811e-06
4.68849e-05
-4.10897e-05
-5.79722e-06
-1.60896e-07
-2.42571e-06
-3.0477e-05
1.62781e-05
1.41995e-05
-4.07171e-05
7.47738e-06
-8.9638e-06
2.36142e-05
-2.54301e-05
-6.65465e-06
-2.34353e-06
3.55502e-05
1.13298e-06
-7.21741e-07
9.07399e-06
-5.00902e-06
-1.47304e-06
3.89391e-05
-3.38873e-06
-8.87892e-06
7.32597e-06
1.55276e-06
-3.88244e-06
-1.86925e-05
2.25748e-05
-7.67836e-06
-1.20049e-06
2.94528e-05
-5.02434e-05
2.29851e-05
2.7259e-05
2.94739e-07
-2.88663e-07
-6.0862e-09
-2.37355e-05
1.18608e-05
3.43842e-05
5.92514e-06
2.48368e-05
-1.58585e-05
-8.98199e-06
-9.50314e-08
1.24449e-06
-1.41241e-05
1.11439e-06
1.99759e-06
-2.19923e-05
1.99897e-05
6.52478e-06
-3.28586e-06
-3.23885e-06
1.5878e-05
-6.79789e-07
6.05964e-06
1.40427e-05
-4.15904e-05
2.75474e-05
-1.8485e-06
6.48396e-07
1.19292e-06
6.66236e-06
1.27038e-05
-1.93665e-05
7.26372e-06
-3.57638e-05
2.85003e-05
-2.57683e-05
6.41911e-06
5.80898e-06
-7.13511e-06
1.32645e-06
1.74933e-05
1.00684e-05
-2.75612e-05
-1.48223e-05
1.48247e-05
-1.2549e-08
-2.08051e-05
-9.67102e-06
-3.72587e-05
1.53437e-05
2.28381e-05
-2.31709e-05
3.36614e-07
-7.5292e-06
-2.64987e-05
-3.44845e-05
4.11415e-05
-6.65374e-06
-1.30437e-05
-2.00309e-05
3.30731e-05
3.20485e-05
-1.57887e-05
3.63064e-06
1.79449e-05
-2.24027e-05
-9.39728e-06
5.69852e-07
3.08939e-05
-9.70076e-07
8.08877e-07
-3.15847e-07
-4.89931e-07
-8.82045e-06
2.81645e-07
-1.15731e-05
-1.90036e-05
1.20566e-06
-2.31876e-05
2.19815e-05
-1.09654e-05
1.85566e-06
5.47853e-06
-2.8315e-06
-2.64801e-06
-5.77698e-06
2.33026e-08
5.7529e-06
2.45232e-05
-1.01743e-05
-1.43489e-05
-2.86583e-05
-2.49648e-05
-1.44616e-05
-5.45944e-07
-8.38617e-06
8.12059e-06
2.6548e-07
3.85112e-05
-3.87661e-05
2.55135e-07
6.84675e-06
-1.03754e-06
2.70121e-07
-3.80104e-06
3.53081e-06
-1.86602e-05
7.48274e-06
-4.85941e-05
2.9712e-05
1.88827e-05
-1.60212e-05
2.61134e-05
-1.04938e-05
-1.91728e-05
8.49461e-06
2.93436e-06
-1.0833e-05
7.89855e-06
-2.63598e-05
3.77265e-05
-1.13676e-05
2.33437e-05
2.72049e-06
2.53706e-05
-2.80925e-05
9.65986e-06
2.09895e-05
-1.8219e-07
-9.63083e-07
6.51098e-06
1.24871e-06
1.21128e-05
8.25871e-06
6.45586e-07
-1.35077e-06
7.02584e-07
1.05063e-06
1.51529e-05
-1.71499e-05
6.67701e-06
-5.04252e-06
2.76485e-05
-2.53782e-05
-2.44165e-08
1.63612e-05
-1.6337e-05
-5.49984e-05
3.4647e-05
2.03661e-05
-4.47524e-06
-1.04393e-05
4.40798e-05
-3.54014e-05
-8.6777e-06
3.22463e-05
1.0558e-06
-1.14968e-07
4.22939e-06
1.0198e-05
-1.01432e-05
2.10439e-05
1.7987e-06
-1.2896e-06
-1.28348e-05
-2.48209e-05
3.91964e-05
-1.85489e-05
1.78126e-05
-4.11655e-05
2.33495e-05
-2.16797e-05
-1.11363e-07
2.48169e-06
3.34798e-05
5.03142e-06
-1.92381e-05
7.32052e-06
2.17485e-05
1.23684e-06
-4.42983e-05
2.00092e-05
2.429e-05
-3.6903e-06
-2.06529e-07
1.26422e-07
1.02572e-05
-1.9713e-05
-2.49548e-05
2.26797e-05
2.27324e-06
-1.23459e-05
1.5408e-05
-2.47298e-05
-2.76198e-06
2.74914e-05
1.27518e-06
-9.98336e-06
2.29817e-05
2.42406e-05
-4.63807e-05
5.30428e-05
-6.27619e-06
1.28081e-05
-6.53199e-06
-1.07473e-05
1.89087e-05
-5.76451e-06
5.94816e-06
-2.02721e-05
3.4879e-06
1.67842e-05
3.20524e-06
6.82685e-06
-1.00325e-05
3.81057e-06
-3.45882e-06
4.31816e-05
-1.51785e-07
-4.30294e-05
-1.99156e-05
3.74141e-05
-1.74992e-05
-6.48218e-06
2.96291e-05
7.25743e-07
8.38973e-08
8.79722e-06
-2.28623e-06
-4.24865e-05
1.23685e-05
-4.60342e-06
-2.42319e-05
2.88352e-05
-4.12279e-05
4.44586e-05
-3.22972e-06
-1.91406e-05
1.10283e-05
-1.2564e-05
-2.72421e-06
1.18544e-05
-3.37053e-05
2.18511e-05
4.10536e-07
-6.17507e-06
-1.19638e-06
1.96136e-05
-1.94024e-05
-5.80624e-06
4.58827e-06
1.21854e-06
2.7237e-05
-3.10135e-05
-2.17687e-05
-1.72603e-05
3.90313e-05
7.50709e-06
3.66209e-06
1.81261e-05
-1.71724e-05
-9.54062e-07
-2.46554e-05
1.16685e-05
1.29865e-05
-1.9108e-05
6.70945e-06
1.23978e-05
-8.09759e-07
3.98607e-06
1.49216e-06
-3.61208e-05
3.32156e-05
2.90514e-06
7.42e-06
-3.07991e-05
2.33792e-05
-7.65983e-07
5.5375e-06
-3.84483e-05
-3.20228e-05
-1.9606e-05
-3.6886e-05
7.64491e-07
2.4015e-05
-2.82512e-05
-1.09076e-06
3.91102e-06
3.64583e-06
1.44801e-05
3.77242e-05
-2.28296e-05
-1.48945e-05
-5.31281e-06
4.55447e-06
1.01649e-05
-8.967e-06
-1.19791e-06
-7.31086e-08
-1.03634e-06
1.1169e-06
3.22634e-07
-3.20227e-07
1.90017e-07
1.0669e-05
3.35661e-05
3.89511e-06
-3.22238e-06
-6.73241e-07
-3.81007e-06
-4.27466e-05
8.32169e-06
2.11291e-05
3.70964e-06
-1.2066e-05
3.52827e-05
-2.22836e-05
-2.67356e-05
-2.38132e-05
3.12338e-05
2.16833e-06
-1.50871e-06
1.65823e-05
-4.55036e-05
2.89227e-05
1.55831e-06
3.87693e-05
2.38858e-07
-3.9008e-05
2.70198e-05
1.85335e-05
-4.55534e-05
-1.22821e-05
-9.34528e-06
2.16273e-05
-4.77046e-06
-1.63265e-05
2.75058e-05
-1.12029e-06
-2.6385e-05
9.29191e-06
1.87769e-05
-2.80702e-05
1.6519e-05
3.51563e-06
-1.46164e-05
1.13138e-06
1.34846e-05
-8.17686e-06
-1.64367e-05
1.60834e-06
4.75036e-06
-6.35863e-06
3.43914e-05
-0.000121039
-8.92608e-06
2.26751e-06
-2.5352e-05
-2.4867e-06
2.78387e-05
1.3318e-05
-4.62174e-05
3.28993e-05
-4.78228e-06
1.49467e-05
3.55595e-06
4.49428e-06
-6.46357e-06
-3.70649e-06
3.78658e-05
-3.41593e-05
-4.11869e-05
3.91314e-05
2.05558e-06
6.24433e-06
-1.17569e-05
5.51326e-06
7.39439e-06
1.08299e-05
-3.7602e-08
-3.66744e-06
3.71273e-06
2.31036e-05
1.04918e-06
1.90928e-05
5.43069e-06
1.3048e-06
3.49112e-06
-2.98631e-05
1.70799e-05
1.27823e-05
1.14327e-05
-2.55291e-05
1.40972e-05
-5.45679e-06
-9.67695e-06
1.01698e-05
-1.38875e-05
2.17888e-06
-2.08617e-06
-9.26994e-08
-4.01682e-05
1.38077e-05
2.39831e-05
1.67221e-05
-1.04485e-05
-3.58397e-05
4.62874e-05
1.49655e-05
4.74584e-06
-2.14414e-05
3.66192e-07
7.42543e-06
-7.79161e-06
1.40952e-05
-1.21845e-06
-1.28765e-05
3.14522e-06
1.61874e-05
-1.93339e-05
1.57964e-06
2.36105e-05
1.40762e-06
4.39681e-06
-5.80463e-06
1.35656e-05
3.1479e-06
-1.67139e-05
-1.82172e-05
3.07748e-05
-3.02042e-05
3.34735e-06
1.96823e-05
-2.30295e-05
-7.53779e-05
-0.000167466
0.000242863
-2.62185e-05
5.97336e-06
-3.16017e-05
1.93469e-05
1.22523e-05
-5.76497e-06
-2.93246e-05
-2.62758e-05
-6.57527e-06
-4.2784e-05
6.48701e-06
3.62981e-05
3.22487e-05
-3.80131e-05
-1.45262e-05
2.63656e-05
-1.18405e-05
-1.26329e-05
6.35667e-06
5.90191e-06
1.45381e-05
9.40044e-07
-1.54784e-05
2.29372e-05
-3.50033e-05
-7.26704e-06
1.0472e-05
-1.14322e-05
-1.02387e-05
2.65554e-07
8.52321e-07
-1.12449e-06
8.77861e-06
1.19348e-05
-2.07137e-05
-4.96307e-06
-7.20578e-06
1.2175e-05
-3.09888e-07
-1.23336e-05
-2.05641e-05
-1.10384e-05
2.7182e-05
-1.44733e-05
-1.27111e-05
1.41242e-07
1.53724e-05
-1.5514e-05
-6.32866e-06
-7.46833e-07
7.07464e-06
-1.97816e-05
-5.20815e-06
2.87014e-05
-1.60294e-05
-1.26722e-05
-1.91055e-05
1.84874e-05
6.19224e-07
-4.45904e-06
-3.9975e-05
2.7044e-05
-2.64804e-05
1.35711e-05
3.48801e-06
2.24689e-05
-2.59578e-05
-1.21074e-05
-1.29629e-05
2.50713e-05
1.2024e-05
-3.53613e-05
4.65307e-06
-2.28485e-05
-1.26143e-05
3.45064e-05
3.30606e-06
6.37831e-06
-1.74943e-05
-3.37034e-05
3.37916e-05
-8.84541e-08
-1.0799e-06
9.25872e-06
2.10866e-05
-3.01039e-06
3.13267e-06
-1.21992e-07
-6.54929e-06
2.38296e-05
1.49342e-05
2.55368e-05
-9.50083e-06
7.73646e-06
1.76532e-06
-1.01953e-06
-1.80858e-05
3.4155e-05
-1.31194e-05
-2.10202e-05
-1.41102e-05
1.47731e-06
2.50539e-05
1.1556e-05
-3.66097e-05
1.56083e-05
2.44391e-05
1.71235e-05
-4.15624e-05
1.36221e-06
-9.12442e-06
7.76243e-06
4.64502e-07
-5.22219e-07
5.76589e-08
5.45316e-06
1.14213e-05
-1.68747e-05
-2.49618e-06
-1.16141e-05
9.14168e-07
-1.83662e-07
-4.18689e-06
-2.13081e-05
2.54956e-05
-1.95341e-05
2.97911e-05
5.23562e-06
-1.9352e-08
2.89756e-06
9.97363e-07
1.78653e-05
-1.3463e-06
-7.02356e-06
1.31108e-05
-6.08681e-06
1.07968e-05
-3.58172e-05
1.02474e-05
1.08406e-05
-5.27558e-06
1.46808e-06
3.80737e-06
1.4865e-05
4.29149e-06
-1.91566e-05
-1.62823e-06
-2.10803e-06
1.14982e-05
-9.39052e-06
-2.26759e-05
-4.51758e-07
2.31272e-05
-1.76679e-06
-1.48895e-05
-2.06368e-05
1.6754e-05
-1.45731e-05
-2.31638e-05
1.00893e-05
1.30742e-05
-3.43648e-05
4.32299e-05
-8.86462e-06
2.08046e-05
-3.33853e-05