/*--------------------------------*- C++ -*----------------------------------*\
| =========                 |                                                 |
| \\      /  F ield         | OpenFOAM: The Open Source CFD Toolbox           |
|  \\    /   O peration     | Version:  v2012                                 |
|   \\  /    A nd           | Website:  www.openfoam.com                      |
|    \\/     M anipulation  |                                                 |
\*---------------------------------------------------------------------------*/
FoamFile
{
    version     2.0;
    format      ascii;
    class       volScalarField;
    location    "100";
    object      k;
}
// * * * * * * * * * * * * * * * * * * * * * * * * * * * * * * * * * * * * * //

dimensions      [0 2 -2 0 0 0 0];


internalField   nonuniform List<scalar> 
15335
(
0.0189702
0.000249305
0.0138495
0.000161988
0.017482
0.000149212
0.000204266
0.0002479
0.000164201
0.02478
0.0169989
0.000156717
0.0185754
0.0121676
0.0901652
0.0115571
0.000173004
0.0606395
0.000146164
0.0115136
0.0638234
0.0651672
0.000204222
0.000146224
0.000221286
0.000184595
0.00476929
0.000184427
0.0332409
0.000153536
0.0056492
0.0915297
0.000149753
0.000149951
0.000149413
0.000433518
0.000371755
0.00210588
0.0246034
0.000207954
0.000229841
0.00696505
0.00014914
0.000162013
0.0202801
0.000146732
0.00656348
0.0786664
0.0213639
0.000155236
0.000146222
0.0922332
0.00638665
0.000149855
0.000150407
0.000200834
0.000178293
0.0924956
0.00567671
0.0172427
0.0464619
0.0785487
0.000163742
0.000156534
0.000149314
0.000156241
0.0286005
0.0920986
0.00014915
0.000145267
0.000170023
0.000154062
0.000221373
0.0511138
0.0410713
0.053508
0.000234744
0.000198987
0.073525
0.000149725
0.0315836
0.0030434
0.0321391
0.000222391
0.00514361
0.000147142
0.000146054
0.000161802
0.000153569
0.000251622
0.0291735
0.000193926
0.000156202
0.000499129
0.00799356
0.000155872
0.000146718
0.000165034
0.000146749
0.000149805
0.000149066
0.0557832
0.0007782
0.00018981
0.000154048
0.000163722
0.000150172
0.000161174
0.000477674
0.000167543
0.0388409
0.000198141
0.000148502
0.000156925
0.00553873
0.00015346
0.000170028
0.000437155
0.026963
0.00337907
0.0302975
0.0204288
0.0508056
0.0549525
0.000148981
0.000148938
0.000175596
0.000149252
0.000189535
0.000150321
0.0481891
0.0237746
0.000147479
0.000169076
0.000196169
0.000147183
0.0339448
0.0445902
0.000163762
0.000244754
0.000193551
0.00025295
0.000171084
0.000173396
0.0602306
0.00858866
0.049179
0.000459333
0.000195565
0.0357223
0.000156797
0.0922
0.000148947
0.000155493
0.0459962
0.000149761
0.0823646
0.0204709
0.000447282
0.0854574
0.000149682
0.000158531
0.0600859
0.000174994
0.0252409
0.0184671
0.0233749
0.000146232
0.000627332
0.00877816
0.0152167
0.00296808
0.0761836
0.00016821
0.000206887
0.00014973
0.00014953
0.0546178
0.0373574
0.015931
0.000208444
0.000630688
0.050178
0.000166735
0.00016675
0.0277245
0.000160913
0.000161142
0.0487833
0.050318
0.0150465
0.000227769
0.000161078
0.000213573
0.00192667
0.0278269
0.000148604
0.0235127
0.000149221
0.0217625
0.000164683
0.000168987
0.000166542
0.016199
0.0183369
0.000200374
0.000149592
0.000168582
0.000159837
0.000158179
0.000175083
0.000149032
0.048094
0.00015316
0.000210431
0.000168972
0.0139927
0.0924479
0.000198884
0.00021923
0.000148955
0.000148333
0.000162022
0.000160448
0.000202425
0.00865327
0.000147297
0.00779059
0.000174284
0.0558337
0.000147301
0.000146341
0.0242002
0.000215107
0.0235145
0.000172708
0.000213698
0.000198507
0.000149419
0.00632054
0.0745018
0.000167698
0.0486328
0.000167429
0.0198911
0.000147122
0.000151527
0.018397
0.0726478
0.0721532
0.0143174
0.0182426
0.000147099
0.000146264
0.000174577
0.0198273
0.000193531
0.0490634
0.000145071
0.000202741
0.00806922
0.00014978
0.000146742
0.000149135
0.000149531
0.000145007
0.0870538
0.0245106
0.0210872
0.000149172
0.0886466
0.0218659
0.0209858
0.000147291
0.019026
0.00015273
0.000149917
0.000211276
0.000156097
0.000173972
0.00687088
0.0557226
0.000147978
0.000193189
0.000159573
0.0389126
0.080589
0.000158105
0.000151941
0.000151075
0.0200366
0.000156328
0.000168241
0.000234691
0.000157005
0.00264863
0.00014682
0.000225898
0.000149389
0.0469297
0.000149036
0.0760521
0.00018777
0.0554287
0.000147347
0.0722686
0.0235888
0.000149442
0.0404032
0.000154846
0.0478038
0.000149867
0.000223288
0.0512301
0.0489735
0.000148833
0.000149699
0.0759081
0.0127877
0.000203427
0.000236038
0.00014903
0.00347911
0.0466859
0.000163692
0.0465871
0.0481878
0.05213
0.00015857
0.000156602
0.000149724
0.000187761
0.000151151
0.000251064
0.000170398
0.000814915
0.000167316
0.0235965
0.00431496
0.0235251
0.000200703
0.000210019
0.000148516
0.000209532
0.00016412
0.00015478
0.000149969
0.000235178
0.000146506
0.0281389
0.056985
0.0455348
0.000154352
0.0104892
0.0185404
0.000148352
0.000159684
0.000166483
0.000180149
0.000190546
0.000157848
0.000183868
0.00015955
0.0332706
0.000159521
0.0145712
0.000410838
0.000183487
0.000155847
0.000147092
0.050565
0.000155771
0.000167265
0.0922111
0.000148881
0.00661
0.0915798
0.000160465
0.000239967
0.0483985
0.000148469
0.000156834
0.0294904
0.0335964
0.000161407
0.000147212
0.000198916
0.000168516
0.00025334
0.0191601
0.000148877
0.000152972
0.000147201
0.000250865
0.0419526
0.000200163
0.000236097
0.000163502
0.000167556
0.071406
0.000189481
0.000190073
0.0275646
0.000158158
0.000152911
0.000190192
0.0442717
0.0271334
0.000214021
0.000228252
0.00022344
0.000158907
0.0489257
0.0400863
0.000235997
0.0788141
0.0450054
0.000155105
0.000221104
0.000170609
0.000158476
0.0181339
0.0581059
0.000146654
0.000234359
0.051
0.000209633
0.0738671
0.000158504
0.0050977
0.0839358
0.00679075
0.0154506
0.0840603
0.0237724
0.000196002
0.0739079
0.0151858
0.000145156
0.000150157
0.00606385
0.0490059
0.000149426
0.000244075
0.000178495
0.000167716
0.0160479
0.000210337
0.000198607
0.0333747
0.0158551
0.0274012
0.000173459
0.000155286
0.0836404
0.0809588
0.00014932
0.0629236
0.0499947
0.000198253
0.0757069
0.000273064
0.000200332
0.0724916
0.000179556
0.000162901
0.000159468
0.000149235
0.000171929
0.0578553
0.000230201
0.000233806
0.0366856
0.000148909
0.000149646
0.000149979
0.000401507
0.0922279
0.049246
0.000499191
0.000199002
0.000273356
0.000164722
0.029886
0.000151704
0.000148372
0.000149715
0.0290727
0.000149188
0.0525411
0.000145437
0.000151563
0.000147495
0.0509247
0.000222653
0.000149773
0.000163454
0.000200894
0.000158716
0.000156611
0.076388
0.000159226
0.000232388
0.000156061
0.0192874
0.000153201
0.00014855
0.0148116
0.000152584
0.000163846
0.0500114
0.000147026
0.000149706
0.0176113
0.000394111
0.00333489
0.000155053
0.000165094
0.000151649
0.0351418
0.0562217
0.000149699
0.047351
0.0515563
0.0521109
0.0538208
0.000149485
0.0374611
0.0828382
0.0347774
0.017664
0.000164974
0.0766587
0.000167961
0.0084005
0.000249928
0.0607455
0.00936748
0.0585329
0.0525641
0.0444228
0.00017018
0.000153033
0.000159087
0.000167642
0.00014814
0.000196345
0.00018366
0.0211861
0.000198909
0.000191198
0.000314441
0.0727696
0.0837229
0.0464372
0.000223783
0.000200119
0.000149745
0.000157648
0.000145135
0.000161818
0.073291
0.000151329
0.000164328
0.00018571
0.000243266
0.0338361
0.0100948
0.000206526
0.0241517
0.000149444
0.00015103
0.000149684
0.000160897
0.0234962
0.000168373
0.000212552
0.000148437
0.000168823
0.0393546
0.000147793
0.000167736
0.0811035
0.0637014
0.0177905
0.000148888
0.000156222
0.00015315
0.0898836
0.0210861
0.000162504
0.000145502
0.000147223
0.000149624
0.0538179
0.000213778
0.000403447
0.0606998
0.000153807
0.000232294
0.000161348
0.000154891
0.0864162
0.000149231
0.000161433
0.0541814
0.00014753
0.0164728
0.0524805
0.000163922
0.000288448
0.0926011
0.0824303
0.000167047
0.0753773
0.000184869
0.00015585
0.000149202
0.000167221
0.000198742
0.0860197
0.000171283
0.000149591
0.0255512
0.000148632
0.000159294
0.0379677
0.000197943
0.000186272
0.0285781
0.000163769
0.000148373
0.000150019
0.000160156
0.00014959
0.0808942
0.000152864
0.000190721
0.0296587
0.000145937
0.000155501
0.0280153
0.000160143
0.000176428
0.0921747
0.000151123
0.000224029
0.000149221
0.0728239
0.000217482
0.0587465
0.000195619
0.0263768
0.0462029
0.000168173
0.0214503
0.000145795
0.000199259
0.000177464
0.00280252
0.00015171
0.0708435
0.000148568
0.0442655
0.000158971
0.000318389
0.000147422
0.000151182
0.000193127
0.000202115
0.000149122
0.000167135
0.000150986
0.000222934
0.00814535
0.000162181
0.0167806
0.0088415
0.0504361
0.000149283
0.0853159
0.00015177
0.000146291
0.000203172
0.000158261
0.000154493
0.0419703
0.000160849
0.000160328
0.000159198
0.000149469
0.000145893
0.0713556
0.0491979
0.000146776
0.000146447
0.000207924
0.000147274
0.0203046
0.00016758
0.0280704
0.0920671
0.000149331
0.000169293
0.0651
0.000184471
0.000149782
0.000168833
0.00016937
0.000149074
0.0281995
0.0414535
0.000167543
0.0221577
0.00446519
0.000166907
0.000148891
0.0835561
0.000148849
0.000156043
0.000209468
0.000149342
0.000151604
0.000203975
0.000456516
0.0030682
0.0583798
0.0522027
0.000149263
0.0535457
0.00816499
0.000172884
0.00363684
0.00223799
0.000242267
0.000245702
0.000183865
0.0451864
0.000161537
0.00949578
0.000169087
0.000164495
0.000177585
0.00019291
0.000326879
0.000153971
0.000175926
0.0778959
0.00015725
0.000160369
0.0446864
0.00698086
0.0234249
0.00014972
0.00143619
0.0481747
0.0695367
0.0189006
0.000150967
0.000163991
0.000231542
0.0207006
0.0236231
0.000164974
0.0431099
0.000147182
0.000211866
0.000166793
0.000155394
0.0635868
0.000147355
0.0561657
0.000163756
0.0001717
0.00015693
0.000158472
0.00354713
0.000149243
0.00014936
0.00338016
0.0195885
0.000164653
0.000147096
0.00015738
0.0231541
0.000192792
0.00841185
0.0920963
0.000162131
0.000149556
0.0315823
0.000178317
0.0604555
0.000163073
0.000159806
0.00019381
0.000149219
0.000147568
0.000164681
0.0116908
0.000176739
0.000208869
0.000146925
0.0141674
0.0515007
0.000149522
0.000149126
0.000158153
0.000148494
0.0431497
0.000128771
0.000148617
0.000148953
0.000149307
0.000149978
0.000148645
0.000145483
0.0908834
0.000171405
0.000162
0.00560992
0.000149185
0.000156327
0.00015483
0.0650924
0.000373224
0.0649196
0.000159387
0.000149359
0.0045645
0.000149802
0.0476889
0.000158476
0.000181807
0.00544227
0.038365
0.00014931
0.000147161
0.0491495
0.0714631
0.000161978
0.000160902
0.000145889
0.000225791
0.000167407
0.000162296
0.000152911
0.000145296
0.0362385
0.000160847
0.000146387
0.000362145
0.00491097
0.00558127
0.0154976
0.000198902
0.000145785
0.0238196
0.000213343
0.00125459
0.00016208
0.000159188
0.00019441
0.000160172
0.00423541
0.000737552
0.000147306
0.000184547
0.000194008
0.000149495
0.000474459
0.000154851
0.000153399
0.0790335
0.0832165
0.000149444
0.0486382
0.00311059
0.000148485
0.000151059
0.000222715
0.000309227
0.000177432
0.000146683
0.000175806
0.000169899
0.0717704
0.0544577
0.0148321
0.00016884
0.000150896
0.0326126
0.000155427
0.000164193
0.000153218
0.0717137
0.000248018
0.000153012
0.000147966
0.000163503
0.0712691
0.0488239
0.000149308
0.000149057
0.0469931
0.000148523
0.000204354
0.000217588
0.000146598
0.000148662
0.0811079
0.000159827
0.0835868
0.00983886
0.000150009
0.000155485
0.000210574
0.000155877
0.000186188
0.0002099
0.000161802
0.000148607
0.000146649
0.052968
0.000161626
0.000148669
0.054332
0.0152927
0.000149936
0.000221249
0.000148354
0.00015553
0.000149591
0.0285082
0.0424917
0.000149528
0.000151203
0.0723794
0.00015904
0.000184683
0.000154214
0.000168494
0.000149337
0.000165702
0.000149276
0.00170731
0.0492743
0.00015302
0.000166275
0.0508207
0.000155294
0.0664722
0.0148951
0.000163664
0.000148942
0.0745271
0.000236817
0.000148574
0.000249719
0.000149566
0.000355917
0.0246767
0.000149596
0.0837092
0.000148566
0.0062679
0.000182427
0.0434838
0.00016699
0.0203274
0.000145817
0.0764319
0.000148721
0.000159017
0.000521163
0.047525
0.000163631
0.0917433
0.0282011
0.000230861
0.0206727
0.0863698
0.000164003
0.0859249
0.0143969
0.000152999
0.000192432
0.000222369
0.000147474
0.000163119
0.000165297
0.000162024
0.00822182
0.000197101
0.000150726
0.000209027
0.000148995
0.000301663
0.000148529
0.0628952
0.000147125
0.0217564
0.0468711
0.00023306
0.000224477
0.0736552
0.000161547
0.000146735
0.000174046
0.00950281
0.000179831
0.000147183
0.000167674
0.000154131
0.000162187
0.000171381
0.0433028
0.080957
0.000149763
0.0351045
0.000165883
0.000232279
0.0470314
0.0835782
0.000266469
0.000147223
0.000169714
0.0924519
0.000153321
0.0074036
0.00014734
0.000148895
0.000148652
0.000148437
0.000160891
0.000199095
0.000158534
0.0207215
0.000156425
0.000148735
0.000149429
0.0450332
0.000347185
0.000153798
0.00019794
0.0201491
0.0178459
0.0863798
0.000160166
0.00017522
0.0219982
0.000148613
0.000153822
0.000534861
0.000150027
0.0228879
0.000146754
0.000147941
0.0227387
0.000165355
0.000208837
0.0545187
0.000157531
0.000145907
0.000151783
0.000160312
0.0505836
0.0418391
0.0239122
0.000145166
0.000148637
0.000154621
0.000149429
0.000153221
0.000149494
0.000146336
0.000149304
0.000187441
0.000148862
0.000149345
0.000451891
0.0444505
0.000154104
0.0472919
0.0001502
0.000153969
0.0247404
0.000233568
0.000157718
0.0499105
0.0199189
0.000196204
0.000146766
0.00299014
0.013988
0.000164833
0.0732085
0.0499378
0.0594803
0.000308116
0.000167723
0.000165276
0.0606048
0.000178506
0.000152016
0.00014681
0.0252536
0.000190774
0.0774075
0.000149387
0.000149234
0.071546
0.000168615
0.0765477
0.000174751
0.000148455
0.000242091
0.0925241
0.000153815
0.000253922
0.00166369
0.000295335
0.00380418
0.000151184
0.00016706
0.000191277
0.0321087
0.000206774
0.0170002
0.000149182
0.000204068
0.045785
0.00512615
0.000149349
0.00014843
0.00023809
0.000187963
0.000149579
0.018733
0.000153097
0.000150042
0.000144221
0.0438763
0.00962057
0.0610742
0.000149797
0.000149596
5.13426e-05
0.000197318
0.000192887
0.000207586
0.000183972
0.000166471
0.000148783
0.0470699
0.000246454
0.081832
0.0242878
0.000171127
0.000269511
0.000167393
0.0817786
0.000164092
0.0459704
0.0216848
0.000149944
0.000178022
0.000183671
0.0751664
0.000151956
0.000148949
0.00676442
0.000166545
0.0861599
0.0406521
0.0180427
0.000162614
0.0560175
0.0739299
0.000167143
0.0420545
0.0048071
0.000151391
0.023769
0.021491
0.000211515
0.0580825
0.0451294
0.000150128
0.0218497
0.000163142
0.0139201
0.000188832
0.0524213
0.000236455
0.000284368
0.000163291
0.000148846
0.000148761
0.000149653
0.000149892
0.0206209
0.000226176
0.000146572
0.000148735
0.0831511
0.000147485
0.0109363
0.0502553
0.00424093
0.000224209
0.000149948
0.0542365
0.000150316
0.0194667
0.000147609
0.0673349
0.0137926
0.000193093
0.0546107
0.000152753
0.0638085
0.0594106
0.0117761
0.0427215
0.0270637
0.0551908
0.049259
0.0234375
0.0001636
0.0116869
0.000151177
0.000149608
0.000210065
0.0252646
0.0558986
0.00015035
0.000150705
0.000146318
0.000177977
0.000223765
0.000165817
0.000148579
0.000307674
0.000166951
0.000148559
0.000149405
0.000182552
0.000378639
0.0800733
0.000150023
0.000223336
0.000147793
0.000157634
0.0269001
0.000149155
0.0641654
0.0290614
0.000166751
0.000175139
0.000177075
0.000149254
0.000149466
0.000200471
0.000202443
0.000179373
0.000145214
0.000167104
0.0146439
0.0201582
0.00596794
0.000153774
0.000160139
0.000245575
0.000178337
0.0459796
0.000149536
0.000148532
0.000183164
0.0812981
0.000165158
0.0311289
0.00020997
0.000164106
0.000151422
0.000147138
0.000198568
0.000152569
0.00016009
0.00019593
0.000149866
0.0593021
0.000148392
0.000148908
0.00016095
0.000149544
0.0822142
0.038314
0.0192884
0.0200762
0.0189998
0.000193292
0.000172972
0.000154708
0.0215865
0.00024378
0.000147399
0.0205684
0.00396882
0.000332728
0.0498903
0.0322398
0.0511615
0.000149622
0.000355491
0.0879556
0.000181282
0.000153837
0.0440286
0.00017213
0.000159821
0.000166127
0.000155997
0.0306591
0.0526931
0.00604692
0.0810843
0.000187759
0.000354959
0.014439
0.000218775
0.000182789
0.000149492
0.0220675
0.000149505
0.0618109
0.00135104
0.00808241
0.0553638
0.000183164
0.000230059
0.000147812
0.0544408
0.000163445
0.000172021
0.073623
0.000146807
0.0002062
0.000149821
0.0131478
0.00863977
0.000147459
0.000159733
0.00681662
0.000160406
0.000219069
0.000166183
0.000174566
0.000147435
0.000167362
0.000148494
0.000162063
0.000457764
0.0526346
0.00705169
0.000477767
0.0191819
0.000158382
0.0521564
0.000149306
0.000161874
0.000181258
0.0594431
0.0143105
0.0558954
0.000147244
0.0438031
0.000183458
0.000147395
0.000148374
0.0571035
0.0581415
0.00041082
0.000168994
0.0166284
0.0194975
0.000148415
0.0749788
0.0812254
0.000161469
0.0452945
0.000228727
0.000193338
0.00574438
0.0121205
0.000148863
0.000149579
0.000161576
0.000148643
0.00890678
0.000149715
0.0120179
0.000146898
0.081899
0.000161458
0.0543335
0.0795173
0.000173294
0.0576185
0.000149806
0.000309518
0.018708
0.0278242
0.000159816
0.000148811
0.0250732
0.0497756
0.0817419
0.000171919
0.000149781
0.000157259
0.011677
0.0083153
0.000153437
0.000173064
0.0223435
0.000148521
0.00493898
0.000184666
0.0293795
0.000218485
0.000278664
0.0626048
0.000166147
0.000175243
0.0757024
0.000148242
0.000428199
0.000175186
0.045965
0.00015512
0.0759563
0.000152906
0.000178027
0.000159815
0.0519942
0.000158068
0.0149457
0.000159785
0.0231048
0.000162976
0.000172366
0.000194613
0.0147291
0.021599
0.000345789
0.000172259
0.0667956
0.000167773
0.000164071
0.00014761
0.0546072
0.000150299
0.0260895
0.000159817
0.000157387
0.0610335
0.00014895
0.00014509
0.000149751
0.000194242
0.000150085
0.0790069
0.000159007
0.00615555
0.0655761
0.000199369
0.000148547
0.0775826
0.000159753
0.000157661
0.00015105
0.0329548
0.000148864
0.000205569
0.000147849
0.0106835
0.0649721
0.000157976
0.0386852
0.0613327
0.0426795
0.000158159
0.0851664
0.000179584
0.0307018
0.0001593
0.000155544
0.00019314
0.0572849
0.000148881
0.0219238
0.000237435
0.000155624
0.000778931
0.000154232
0.000188579
0.000157238
0.000146265
0.000156441
0.000155263
0.000175048
0.000149265
0.000169809
0.000176493
0.0173172
0.00016278
0.0780559
0.000192281
0.000148611
0.000169187
0.000230976
0.000147415
0.000192306
0.000149257
0.0785362
0.000157069
0.000844049
0.000149425
0.000201902
0.000148322
0.000160206
0.0887065
0.068476
0.0187945
0.0185245
0.000198467
0.000177555
0.000151979
0.000166185
0.0866016
0.00827711
0.0240632
0.0101213
0.000148135
0.000374661
0.000148334
0.000158202
0.000157324
0.000172469
0.0001525
0.0474835
0.000298752
0.000191275
0.01327
0.000190159
0.0780157
0.000205943
0.00015844
0.00014956
0.000152227
0.000157443
0.000160286
0.000177672
0.000184883
0.000151402
0.000149748
0.0138599
0.000202869
0.0657395
0.0718462
0.007913
0.0030652
0.000161158
0.00016212
0.023781
0.000164342
0.000150843
0.000156025
0.000196926
0.000154543
0.0214789
0.000186784
0.0178409
0.000148825
0.000167963
0.0787831
0.000161127
0.000213038
0.000148847
0.000158411
0.0495931
0.0354199
0.0611678
0.00016015
0.000147298
0.077436
0.000148708
0.0609643
0.0537268
0.000165493
0.0524951
0.000158634
0.000199415
0.000155336
0.000152684
0.00015565
0.0485065
0.00898067
0.000148427
0.000198765
0.000692315
0.00014818
0.000146304
0.000179811
0.0296591
0.0604162
0.0571147
0.00015463
0.000151893
0.000167408
0.000208322
0.0603494
0.000168012
0.000150789
0.000153702
0.00022435
0.000167742
0.0628466
0.00120554
0.000149614
0.0226003
0.000149713
0.011532
0.000167567
0.000171803
0.0369024
0.000169342
0.0921103
0.000168378
0.000191562
0.00019963
0.000156795
0.000148047
0.00015015
0.000163214
0.0358722
0.000173057
0.092077
0.000152779
0.000149883
0.000159073
0.0653005
0.000150743
0.000191875
0.000485041
0.053129
0.0799253
0.0553805
0.00015081
0.000173252
0.00017357
0.000145662
0.000150525
0.000167599
0.000152566
0.000173009
0.000186736
0.000148232
0.000176151
0.0145678
0.000149878
0.0474647
0.000149566
0.000150115
0.000152488
0.000189334
0.00048885
0.0294177
0.000165954
0.000173095
0.00015751
0.000149548
0.0370777
0.000161808
0.0118293
0.092599
0.00221406
0.000171762
0.000179062
0.000151893
0.0189937
0.000213204
0.00704814
0.0737422
0.000225803
0.000152315
0.0762724
0.0681875
0.000190568
0.000319764
0.0881641
0.0650768
0.0611059
0.000169736
0.0498661
0.000160099
0.0765654
0.05305
0.000168913
0.000148747
0.000196142
0.0594535
0.000156888
0.000152612
0.0658498
0.000149388
0.000216856
0.0518087
0.000188698
0.000203288
0.000174753
0.000149431
0.000166582
0.053981
0.000148875
0.0319534
0.00020475
0.000422884
0.000153142
0.0187914
0.000148242
0.0640255
0.000152101
0.0504077
0.000152106
0.000168088
0.000147124
0.0277349
0.000194932
0.0729301
0.00968179
0.000205255
0.000149224
0.00019805
0.092573
0.0166473
0.017191
0.0528053
0.000149216
0.000147648
0.000192567
0.000148909
0.0187307
0.0571059
0.000178769
0.0304568
0.0711293
0.000155676
0.0588405
0.000157676
0.000193824
0.0459945
0.000153667
0.000165767
0.000209389
0.000156722
0.000147102
0.000152584
0.00016519
0.000147498
0.000151308
0.000500461
0.00014869
0.000150124
0.000160859
0.000148209
0.000163582
0.000149735
0.0503463
0.0605193
0.0774457
0.000146188
0.000201628
0.000619437
0.000150465
0.009154
0.000161827
0.000159508
0.000169823
0.000159785
0.0563538
0.00610518
0.000161198
0.000152731
0.0365285
0.000192544
0.0618825
0.000157594
0.0402605
0.0216735
0.000602955
0.014152
0.000150954
0.000444172
0.0140427
0.000151159
0.000162402
0.000153847
0.000155027
0.00387226
0.0159379
0.0277529
0.000148402
0.00247005
0.000174742
0.000208291
0.000175221
0.000146797
0.000149805
0.000165918
0.000155046
0.0725226
0.0001664
0.014148
0.0553476
0.000148958
0.000166428
0.000149699
0.0211075
0.0001653
0.011373
0.000245878
0.000147311
0.000149742
0.000176126
0.0623463
0.0864769
0.000168907
0.0166896
0.000149284
0.000242968
0.000184239
0.00014822
0.000145012
0.000169692
0.000148857
0.0529745
0.000196645
0.000145813
0.00015134
0.0744608
0.000146488
0.00943681
0.000167711
0.000166515
0.0496697
0.000149577
0.00016226
0.000149065
0.0554715
0.00015277
0.000156136
0.000158117
0.00017131
0.00014444
0.0639409
0.0270052
0.000160997
0.000149764
0.0159978
0.00351186
0.000210298
0.0556163
0.00016747
0.000150883
0.000149075
0.00020703
0.00020598
0.000229582
0.000189684
0.000170065
0.000167698
0.0776331
0.000149198
0.0467988
0.000153556
0.000192991
0.000148824
0.000148
0.000157438
0.000151679
0.000197564
0.000156524
0.000403537
0.000208911
0.032202
0.0402753
0.000153441
0.000159893
0.000149109
0.0245673
0.000151666
0.000171869
0.000147078
0.000169614
0.000182501
0.0620837
0.0576612
0.0576578
0.0131906
0.00015963
0.000167999
0.000215643
0.0342971
0.000191062
0.000149417
0.000161086
0.0527557
0.000151698
0.000157667
0.000149963
0.000173087
0.000159905
0.00361973
0.000153884
0.000148741
0.0542112
0.0265729
0.00022567
0.000152187
0.000149362
0.000179663
0.0629776
0.000171404
0.000216365
0.000160489
0.000156669
0.000208921
0.000173737
0.000155849
0.0773979
0.0120617
0.000177455
0.0363328
0.0293714
0.000293542
0.0592825
0.000194746
0.0342641
0.0570649
0.000175452
0.000224463
0.00014819
0.000160074
0.0197574
0.00019849
0.0596179
0.000149574
0.0228806
0.000220956
0.0588557
0.000185255
0.000194674
0.000152894
0.0907637
0.0758318
0.000164935
0.0892145
0.000164575
0.000150829
0.00929673
0.00017323
0.0568104
0.000166645
0.000337953
0.0588236
0.0870146
0.000180305
0.0114156
0.000149493
0.00015125
0.000205582
0.00015681
0.000151046
0.000161018
0.000172204
0.000190581
0.00023867
0.0574395
0.0147403
0.000166972
0.000148815
0.0919822
0.000166472
0.000148897
0.0550105
0.00204795
0.000147889
0.000149552
0.000156382
0.000178174
0.000179062
0.0866151
0.000352714
0.000210318
0.000155024
0.0203733
0.000154475
0.000169985
0.0295106
0.000149836
0.000195691
0.00019699
0.000149648
0.000339271
0.0599922
0.000155631
0.000145623
0.000162364
0.000148104
0.000157651
0.0236905
0.000149768
0.000204373
0.0317696
0.000148196
0.0560291
0.000153655
0.0401408
0.000307716
0.0905579
0.0195077
0.0843517
0.000180851
0.0239396
0.00014733
0.00966386
0.00015078
0.000169963
0.000213912
0.000160507
0.0843092
0.000157667
0.000346537
0.0193789
0.000149863
0.000210157
0.0338318
0.00014917
0.0750073
0.000171308
0.0557169
0.000281134
0.000147603
0.00017564
0.0166289
0.0452669
0.000187359
0.000194559
0.000150584
0.000187983
0.0499056
0.0403898
0.000172116
0.000149236
0.000167722
0.00057827
0.000153214
0.0277011
0.000149453
0.000165038
0.000173709
0.0623059
0.000149091
0.000148796
0.000158486
0.0124473
0.000145272
0.000149716
0.000212354
0.000148254
0.000196028
0.000190083
0.00016543
0.0470286
0.000234846
0.0771831
0.049894
0.000192156
0.000222549
0.0790413
0.000153916
0.000157542
0.000183621
0.000148132
0.0148341
0.000684266
0.000151436
0.000150829
0.0411829
0.0518297
0.0853636
0.000237352
0.000148155
0.0619624
0.0522005
0.000150938
0.0550246
0.0831565
0.0250664
0.0488231
0.00014943
0.000155635
0.000148776
0.00015636
0.000157581
0.000149526
0.000183714
0.000177949
0.0478532
0.000151966
0.000168211
0.00014642
0.000149683
0.0414667
0.00015653
0.0786949
0.087675
0.000159785
0.000149407
0.000190725
0.000322584
0.000931408
0.000167169
0.018706
0.000197676
0.0482133
0.000156282
0.000165994
0.0583614
0.000147971
0.0254823
0.000199547
0.0110454
0.0514462
0.0169345
0.000151234
0.0513479
0.0001688
0.0411371
0.0117959
0.0521881
0.0215916
0.000197173
0.000186452
0.0613848
0.000149895
0.02581
0.0220001
0.0575106
0.0185428
0.0260731
0.00015772
0.0378288
0.000170513
0.000166709
0.000165899
0.0578666
0.000148805
0.000290414
0.00014898
0.000183066
0.000696895
0.000148776
0.0525959
0.0198582
0.000149139
0.000146729
0.000150745
0.055963
0.0841365
0.000161373
0.000195837
0.000158708
0.0425254
0.0628335
0.0576467
0.0285064
0.000173406
0.029022
0.0627429
0.0804021
0.000159345
0.091483
0.0925507
0.047232
0.00014553
0.0519198
0.000180714
0.0816606
0.0153925
0.000151096
0.000148884
0.00017027
0.000150816
0.0816241
0.000149305
0.06274
0.000151626
0.0264212
0.0217877
0.0299321
0.000228969
0.0082549
0.000172243
0.000154085
0.000172157
0.0265381
0.000148583
0.000169489
0.0228194
0.0233828
0.0825325
0.0302475
0.000155516
0.00017842
0.0436286
0.0619312
0.00515652
0.0814214
0.0719089
0.0624189
0.0670982
0.0209534
0.000150823
0.000154372
0.000148022
0.073363
0.0479034
0.000147631
0.000160119
0.0320591
0.0645931
0.000232206
0.0103459
0.000514708
0.000212973
0.000220529
0.000226532
0.000150834
0.027087
0.0574023
0.0299882
0.000154065
0.0310164
0.000156606
0.0193878
0.0566151
0.000255468
0.0391449
0.0254227
0.0204482
0.000214593
0.0325896
0.0275301
0.00437238
0.000150966
0.0589016
0.0476397
0.00015562
0.000191409
0.000153315
0.000159823
0.00015191
0.0270314
0.000182022
0.000156504
0.000190802
0.000148572
0.00020784
0.0132771
0.0149251
0.02697
0.00021363
0.000155974
0.000176503
0.0617162
0.000159326
0.000147992
0.0498109
0.00486782
0.000207928
0.00379406
0.000156778
0.0332048
0.000161612
0.000175899
0.000157524
0.000156795
0.0838151
0.0611958
0.000189933
0.00033893
0.000203613
0.000157215
0.071725
0.0314941
0.0267984
0.0849681
0.000150114
0.000149068
0.000187456
0.0317856
0.00017387
0.00016063
0.000188747
0.000149602
0.0588735
0.00014903
0.000149934
0.00014593
0.000153784
0.0778168
0.000192625
0.000149292
0.000154501
0.0001667
0.000188903
0.000184445
0.0518012
0.000158909
0.0878172
0.000149357
0.0831488
0.000179024
0.0297702
0.0544857
0.000149481
0.00014552
0.000149584
0.00014977
0.0399394
0.00015538
0.00016135
0.00417496
0.000228936
0.000149951
0.000154794
0.00015066
0.000190011
0.000206341
0.0535704
0.000331661
0.0498952
0.000178897
0.0904074
0.00304268
0.000148905
0.000147265
0.0674091
0.000205093
0.0328199
0.00014962
0.0024018
0.0170264
0.000230519
0.0590283
0.0195232
0.073916
0.000152326
0.0383998
0.000193115
0.000164101
0.000160311
0.000148894
0.000255811
0.000217322
0.000242411
0.0294161
0.000279826
0.000157101
0.0580661
0.000155602
0.0553072
0.000153242
0.0365662
0.000217292
0.056059
0.0547031
0.000165111
0.000164841
0.000160627
0.0242686
0.00015233
0.0260306
0.028995
0.0289562
0.0192786
0.000162684
0.000170273
0.000201974
0.0405963
0.000156025
0.000203016
0.00017049
0.000156378
0.000186274
0.0301858
0.000167915
0.0201304
0.0183611
0.00020968
0.000148977
0.000216905
0.000153237
0.0292755
0.000151351
0.000145006
0.000160685
0.0557568
0.000160057
0.0795577
0.0363431
0.000225878
0.000179841
0.000266339
0.0474478
0.000147789
0.000187859
0.072983
0.000145652
0.00014869
0.0301528
0.0217328
0.000151403
0.000161236
0.000173562
0.0298496
0.0570537
0.00016254
0.050387
0.0239423
0.000152123
0.000317832
0.000157525
0.00951306
0.000225444
0.000217459
0.000166945
0.000300423
0.0469763
0.00014949
0.000153625
0.000157076
0.000201343
0.000160071
0.000158811
0.0262735
0.000236688
0.0655763
0.000160314
0.0529849
0.0305785
0.000197101
0.030732
0.0307659
0.000152223
0.0304721
0.0748423
0.00019967
0.000206301
0.0315705
0.0871043
0.0577862
0.0313572
0.000185858
0.000163518
0.000198832
0.0264102
0.0293522
0.0313291
0.0728085
0.0185574
0.00014982
0.0244693
0.000185079
0.0710276
0.000160826
0.000147112
0.000225701
0.000262481
0.0867397
0.000232929
0.0169686
0.000174631
0.000241723
0.000162985
0.000160164
0.000153913
0.000151877
0.000171247
0.000225807
0.000225002
0.058751
0.0316159
0.0368293
0.00014813
0.000159134
0.000163671
0.000166536
0.000150697
0.024899
0.000167204
0.00604231
0.0279706
0.000147987
0.0786468
0.0309806
0.0347268
0.000147068
0.000200871
0.031167
0.0802717
0.000180492
0.00016414
0.000197187
0.000170951
0.000204808
0.000203219
0.000164866
0.000189556
0.0318936
0.0318212
0.0333827
0.000171988
0.000149609
0.000149078
0.0541083
0.0307821
0.0314099
0.000156254
0.0317128
0.0600346
0.060966
0.000153577
0.0374137
0.0349507
0.0352656
0.000196773
0.0836515
0.0338797
0.000148049
0.036262
0.0338798
0.000147981
0.0623469
0.0341882
0.0356528
0.0607938
0.0365609
0.000147728
0.000196013
0.000210592
0.00020906
0.00020063
0.000219379
0.000160453
0.0847031
0.000206649
0.0415214
0.000209506
0.0316589
0.0807325
0.000208466
0.0228365
0.092489
0.0327828
0.00014944
0.0344653
0.0893517
0.000209709
0.0318737
0.000156684
0.0571906
0.0857946
0.000182697
0.00855942
0.000175521
0.000148606
0.000160269
0.0820958
0.0891551
0.066135
0.0647223
0.000195805
0.000163997
0.066044
0.000151283
0.000155199
0.0598399
0.000159146
0.000183431
0.0882146
0.0885077
0.000152449
0.00562279
0.0652794