/*--------------------------------*- C++ -*----------------------------------*\
| =========                 |                                                 |
| \\      /  F ield         | OpenFOAM: The Open Source CFD Toolbox           |
|  \\    /   O peration     | Version:  v2012                                 |
|   \\  /    A nd           | Website:  www.openfoam.com                      |
|    \\/     M anipulation  |                                                 |
\*---------------------------------------------------------------------------*/
FoamFile
{
    version     2.0;
    format      ascii;
    class       volScalarField;
    location    "100";
    object      k_0;
}
// * * * * * * * * * * * * * * * * * * * * * * * * * * * * * * * * * * * * * //

dimensions      [0 2 -2 0 0 0 0];


internalField   nonuniform List<scalar> 
15335
(
0.0189704
0.000249314
0.0138495
0.000161988
0.0174819
0.000149212
0.000204267
0.000247927
0.000164202
0.0247802
0.0169989
0.000156718
0.0185753
0.0121677
0.0901658
0.0115588
0.000173004
0.0606392
0.000146164
0.0115153
0.0638238
0.0651676
0.000204223
0.000146224
0.000221293
0.000184599
0.00476928
0.000184437
0.0332405
0.000153536
0.00564919
0.0915308
0.000149753
0.000149951
0.000149413
0.000433543
0.000371747
0.00219767
0.0246037
0.000207951
0.000229842
0.00696597
0.00014914
0.000162013
0.0202803
0.000146732
0.00656351
0.0786673
0.0213642
0.000155237
0.000146222
0.0922338
0.00638722
0.000149854
0.000150407
0.000200834
0.000178296
0.0924963
0.00567668
0.0172427
0.0464625
0.0785497
0.000163744
0.000156534
0.000149315
0.000156241
0.0286027
0.0920995
0.00014915
0.000145267
0.000170024
0.000154063
0.00022138
0.0511146
0.0410735
0.0535085
0.000234745
0.000198986
0.0735252
0.000149725
0.0315835
0.00304338
0.032139
0.000222382
0.0051436
0.000147142
0.000146054
0.000161802
0.000153569
0.000251631
0.0291733
0.000193927
0.000156203
0.000498833
0.00799352
0.000155873
0.000146718
0.000165038
0.000146749
0.000149805
0.000149066
0.0557837
0.000778248
0.00018981
0.000154048
0.000163722
0.000150172
0.000161171
0.000477672
0.000167543
0.0388416
0.000198141
0.000148502
0.000156925
0.00553931
0.00015346
0.000170029
0.000437439
0.0269629
0.00337947
0.0302973
0.0204297
0.0508064
0.0549529
0.000148981
0.000148938
0.000175591
0.000149252
0.000189535
0.000150321
0.0481893
0.0237748
0.000147479
0.000169077
0.000196169
0.000147183
0.0339447
0.0445896
0.000163764
0.000244809
0.000193552
0.000252959
0.000171082
0.000173396
0.0602312
0.0086047
0.0491797
0.000459332
0.000195576
0.0357222
0.000156798
0.092201
0.000148947
0.000155493
0.045997
0.000149762
0.0823654
0.0204712
0.00044728
0.0854585
0.000149682
0.000158531
0.0600864
0.000174995
0.0252413
0.0184673
0.0233752
0.000146232
0.000626767
0.00877814
0.0150945
0.00296784
0.0761844
0.000168209
0.000206891
0.00014973
0.00014953
0.0546182
0.0373674
0.0159321
0.00020845
0.000630737
0.0501787
0.000166736
0.00016675
0.0277249
0.000160913
0.000161142
0.048784
0.0503183
0.0150465
0.00022777
0.000161078
0.00021358
0.00192697
0.0278267
0.000148604
0.0235129
0.000149221
0.0217623
0.000164683
0.000168989
0.000166545
0.0161991
0.018337
0.000200373
0.000149592
0.0001686
0.000159838
0.000158179
0.000175078
0.000149032
0.0480948
0.00015316
0.000210435
0.00016898
0.0139927
0.0924488
0.000198885
0.000219142
0.000148955
0.000148333
0.000162022
0.000160448
0.000202406
0.00865443
0.000147297
0.00779072
0.000174285
0.0558356
0.000147301
0.000146341
0.0242006
0.000215097
0.0235148
0.000172713
0.000213705
0.000198508
0.000149419
0.00632146
0.0745027
0.000167696
0.0486336
0.00016743
0.0198912
0.000147122
0.000151527
0.0183971
0.0726489
0.0721543
0.0143175
0.0182427
0.000147099
0.000146264
0.000174577
0.0198274
0.000193532
0.0490636
0.000145071
0.000202739
0.00806931
0.00014978
0.000146742
0.000149135
0.000149531
0.000145007
0.0870547
0.024511
0.0210875
0.000149172
0.0886474
0.0218662
0.0209861
0.000147291
0.0190263
0.00015273
0.000149917
0.000211276
0.000156097
0.000173973
0.006871
0.055723
0.000147979
0.00019319
0.000159573
0.0389125
0.0805898
0.000158105
0.000151941
0.000151075
0.0200369
0.000156328
0.000168228
0.000234684
0.000157005
0.00258407
0.00014682
0.000225899
0.00014939
0.0469299
0.000149036
0.0760529
0.000187775
0.0554301
0.000147347
0.0722686
0.0235891
0.000149442
0.0404055
0.000154846
0.0478039
0.000149868
0.000223282
0.0512306
0.0489758
0.000148833
0.000149699
0.0759083
0.0127896
0.000203406
0.000236071
0.00014903
0.00347914
0.0466857
0.000163693
0.0465879
0.048188
0.0521318
0.00015857
0.000156602
0.000149724
0.000187768
0.000151151
0.000251057
0.000170391
0.00081497
0.000167318
0.0235969
0.00431495
0.0235253
0.000200703
0.000210021
0.000148516
0.000209533
0.00016412
0.00015478
0.000149969
0.000235217
0.000146506
0.0281387
0.0569857
0.0455349
0.000154352
0.0104043
0.0185404
0.000148352
0.000159683
0.000166482
0.00018015
0.000190547
0.000157848
0.000183869
0.000159551
0.0332729
0.000159522
0.0145711
0.00041084
0.000183487
0.000155847
0.000147092
0.0505665
0.000155771
0.000167263
0.0922121
0.000148881
0.00661077
0.0915806
0.000160465
0.000240489
0.0483993
0.000148469
0.000156834
0.0294904
0.0335989
0.000161407
0.000147212
0.000198917
0.000168509
0.000253295
0.0191603
0.000148877
0.000152972
0.000147201
0.00025083
0.0419549
0.00020024
0.00023608
0.000163503
0.000167553
0.071407
0.000189482
0.000190074
0.0275644
0.000158158
0.000152911
0.000190193
0.044274
0.0271337
0.000214064
0.00022825
0.000223437
0.000158908
0.048928
0.040087
0.000235991
0.0788143
0.0450053
0.000155105
0.000221056
0.000170608
0.000158476
0.0181339
0.0581064
0.000146654
0.000234364
0.0510016
0.000209635
0.0738672
0.000158504
0.0050977
0.0839364
0.00679139
0.0154507
0.0840608
0.0237728
0.000196005
0.0739088
0.0151858
0.000145156
0.000150157
0.00606479
0.049006
0.000149426
0.000244085
0.000178495
0.000167718
0.0160468
0.000210339
0.000198607
0.033377
0.0158551
0.0274034
0.000173462
0.000155286
0.083641
0.0809595
0.00014932
0.0629239
0.0499955
0.000198254
0.0757078
0.000274251
0.00020033
0.0724926
0.000179557
0.000162902
0.000159469
0.000149235
0.000171924
0.0578559
0.000230205
0.000233805
0.0366881
0.000148909
0.000149646
0.000149979
0.000401521
0.0922287
0.0492462
0.000499182
0.000198995
0.000273383
0.000164722
0.0298859
0.000151704
0.000148372
0.000149715
0.0290737
0.000149188
0.0525418
0.000145437
0.000151563
0.000147495
0.0509264
0.000224993
0.000149773
0.000163454
0.000200895
0.000158716
0.00015661
0.0763881
0.000159226
0.000232387
0.000156061
0.0192875
0.000153201
0.00014855
0.0148117
0.000152584
0.000163846
0.050014
0.000147026
0.000149706
0.0176113
0.000394129
0.00333531
0.000155053
0.000165094
0.000151649
0.0351435
0.0562237
0.000149699
0.0473512
0.0515583
0.0521116
0.0538213
0.000149485
0.037462
0.0828391
0.0347774
0.0176641
0.000164974
0.0766597
0.000167953
0.00840159
0.000249929
0.0607459
0.00936761
0.0585333
0.0525648
0.0444235
0.000170178
0.000153034
0.000159087
0.000167644
0.00014814
0.00019635
0.00018366
0.0211863
0.000198909
0.000191199
0.000311815
0.0727707
0.0837237
0.046438
0.000223786
0.000200118
0.000149745
0.000157649
0.000145135
0.000161818
0.073292
0.000151329
0.000164328
0.000185711
0.000243265
0.0338383
0.0100948
0.000206542
0.024152
0.000149444
0.00015103
0.000149684
0.000160897
0.023496
0.000168374
0.000212381
0.000148437
0.000168824
0.0393545
0.000147793
0.00016773
0.081104
0.0637011
0.0177905
0.000148888
0.000156222
0.00015315
0.0898841
0.0210882
0.000162504
0.000145502
0.000147223
0.000149624
0.0538183
0.00021378
0.000403447
0.0607002
0.000153807
0.000232307
0.000161348
0.000154891
0.0864174
0.000149231
0.000161434
0.054182
0.000147531
0.0164729
0.0524825
0.000163923
0.000288472
0.092602
0.0824312
0.000167048
0.0753782
0.000184868
0.00015585
0.000149202
0.000167222
0.000198742
0.0860209
0.000171284
0.000149591
0.0255532
0.000148632
0.000159294
0.0379676
0.000197943
0.000186272
0.0285778
0.000163769
0.000148373
0.000150019
0.000160156
0.00014959
0.0808946
0.000152864
0.000190722
0.0296588
0.000145937
0.000155501
0.0280154
0.000160143
0.000176425
0.0921753
0.000151123
0.000224026
0.000149221
0.0728249
0.000217477
0.0587484
0.00019563
0.0263767
0.046203
0.000168155
0.0214525
0.000145795
0.00019926
0.000177461
0.00280254
0.00015171
0.0708433
0.000148568
0.0442678
0.000158971
0.00031841
0.000147422
0.000151183
0.000193127
0.000202124
0.000149122
0.000167136
0.000150986
0.000222985
0.00814531
0.000162181
0.0167806
0.0088414
0.0504367
0.000149283
0.0853167
0.00015177
0.000146291
0.000203173
0.000158261
0.000154493
0.0419702
0.00016085
0.000160328
0.000159198
0.000149469
0.000145893
0.0713566
0.0492003
0.000146776
0.000146447
0.000207923
0.000147274
0.0203049
0.000167571
0.0280703
0.0920681
0.000149331
0.000169289
0.0651011
0.000184471
0.000149782
0.000168845
0.000169371
0.000149074
0.0282627
0.0414534
0.000167543
0.0221575
0.00446573
0.000166907
0.000148891
0.0835573
0.000148849
0.000156044
0.000209469
0.000149342
0.000151604
0.000203974
0.000458423
0.00306819
0.0583802
0.0522031
0.000149263
0.0535461
0.0081651
0.000172885
0.00363683
0.00223844
0.000242283
0.000245715
0.000183866
0.0451864
0.000161539
0.00949568
0.000169103
0.000164496
0.000177587
0.000192915
0.000329517
0.000153971
0.000175926
0.0778967
0.00015725
0.000160369
0.0446872
0.00698082
0.0234253
0.00014972
0.00143657
0.048175
0.0695377
0.0189007
0.000150967
0.000163992
0.000231556
0.0207009
0.0236234
0.000164975
0.0431099
0.000147182
0.000211919
0.000166794
0.000155394
0.0635864
0.000147356
0.056166
0.000163757
0.000171691
0.000156931
0.000158472
0.00354712
0.000149243
0.00014936
0.00338015
0.0195887
0.000164653
0.000147096
0.00015738
0.0231544
0.000192792
0.00841197
0.0920972
0.000162131
0.000149556
0.0315821
0.000178319
0.0604559
0.000163074
0.000159806
0.00019381
0.000149219
0.000147568
0.000164681
0.011692
0.000176724
0.00020887
0.000146925
0.0141674
0.0515011
0.000149522
0.000149126
0.000158154
0.000148494
0.0431519
0.000128752
0.000148617
0.000148953
0.000149307
0.000149978
0.000148645
0.000145483
0.0908843
0.000171404
0.000162
0.00560989
0.000149185
0.000156327
0.00015483
0.065092
0.000373231
0.0649199
0.000159388
0.000149359
0.00456448
0.000149803
0.0476897
0.000158476
0.000181806
0.00544291
0.0383653
0.00014931
0.000147162
0.0491518
0.0714642
0.000161979
0.000160902
0.000145889
0.000225798
0.000167408
0.000162296
0.000152911
0.000145296
0.0362388
0.000160847
0.000146387
0.000362033
0.00491094
0.00558129
0.0154976
0.000198902
0.000145785
0.0238197
0.000213342
0.00124912
0.00016208
0.000159188
0.000194411
0.000160173
0.0042354
0.000737695
0.000147306
0.000184547
0.000194008
0.000149495
0.000474457
0.000154851
0.0001534
0.0790337
0.0832174
0.000149444
0.048639
0.00311064
0.000148485
0.000151059
0.000222714
0.000309241
0.000177428
0.000146683
0.000175807
0.000169899
0.0717715
0.0544582
0.014832
0.000168847
0.000150896
0.0326125
0.000155427
0.000164193
0.000153218
0.0717147
0.000248106
0.000153012
0.000147966
0.000163503
0.0712688
0.0488242
0.000149308
0.000149058
0.0469931
0.000148523
0.000204282
0.000217544
0.000146598
0.000148662
0.0811087
0.000159827
0.0835872
0.0105003
0.000150009
0.000155486
0.000210576
0.000155877
0.000186189
0.000209901
0.000161804
0.000148607
0.000146649
0.0529686
0.000161626
0.000148669
0.0543326
0.0152927
0.000149936
0.000221375
0.000148355
0.00015553
0.000149591
0.0285086
0.0424917
0.000149528
0.000151204
0.0723794
0.000159041
0.000184684
0.000154214
0.000168492
0.000149337
0.000165703
0.000149276
0.00170753
0.0492746
0.00015302
0.000166275
0.0508214
0.000155294
0.0664733
0.0148966
0.000163664
0.000148942
0.074527
0.000237256
0.000148574
0.000249705
0.000149566
0.000355726
0.0246768
0.000149596
0.0837101
0.000148566
0.00626787
0.000182401
0.0434841
0.00016699
0.0203277
0.000145817
0.0764321
0.000148721
0.000159017
0.000521156
0.0475258
0.000163633
0.0917441
0.0282015
0.000230944
0.0206729
0.0863709
0.000164004
0.0859258
0.0143967
0.000152999
0.000192736
0.000222364
0.000147474
0.000163098
0.000165296
0.000162026
0.00822178
0.00019692
0.000150727
0.000208791
0.000148995
0.000301665
0.000148529
0.0628962
0.000147125
0.0217567
0.0468712
0.000233065
0.000224477
0.0736562
0.000161547
0.000146735
0.000174052
0.00950288
0.000179814
0.000147183
0.000167671
0.000154131
0.000162187
0.000171382
0.0433026
0.080957
0.000149763
0.0351043
0.000165884
0.000232281
0.0470318
0.0835791
0.000266417
0.000147223
0.000169706
0.0924527
0.000153321
0.00740367
0.00014734
0.000148895
0.000148652
0.000148437
0.000160892
0.000199011
0.000158535
0.0207235
0.000156426
0.000148735
0.000149429
0.0450332
0.000347117
0.000153798
0.00019794
0.0201495
0.0178464
0.0863807
0.000160166
0.000175222
0.0219983
0.000148613
0.000153822
0.000534884
0.000150027
0.0228882
0.000146754
0.000147941
0.022739
0.000165355
0.000208876
0.0545195
0.000157531
0.000145907
0.000151783
0.000160312
0.0505842
0.0418387
0.0239122
0.000145166
0.000148637
0.000154621
0.000149429
0.000153221
0.000149494
0.000146336
0.000149304
0.000187441
0.000148862
0.000149345
0.000451888
0.0444508
0.000154104
0.0472921
0.0001502
0.000153969
0.0247405
0.000233553
0.000157718
0.0499111
0.019919
0.000196165
0.000146766
0.00299026
0.0139882
0.000164832
0.0732095
0.0499384
0.0594808
0.000308333
0.000167723
0.000165276
0.0606058
0.000178499
0.000152016
0.00014681
0.0252535
0.000190774
0.0774083
0.000149387
0.000149234
0.071547
0.000168614
0.0765477
0.000174751
0.000148455
0.000242071
0.0925248
0.000153815
0.000254735
0.00166634
0.000295342
0.00380417
0.000151184
0.000167061
0.000191277
0.0321106
0.000206774
0.0170001
0.000149182
0.000204068
0.0457857
0.00512614
0.000149349
0.00014843
0.000238091
0.000187964
0.000149579
0.0187331
0.000153097
0.000150042
0.000144221
0.0438763
0.00962055
0.0610744
0.000149797
0.000149596
5.09667e-05
0.000197277
0.000192888
0.000207381
0.000183972
0.000166471
0.000148783
0.04707
0.000246449
0.0818329
0.024288
0.000171126
0.000269734
0.000167394
0.0817788
0.000164092
0.0459703
0.0216848
0.000149944
0.000178022
0.000183672
0.0751673
0.000151956
0.000148949
0.00676439
0.000166545
0.0861609
0.0406521
0.0180428
0.000162615
0.0560179
0.073931
0.000167144
0.0420552
0.00480786
0.000151391
0.0237693
0.0214912
0.000211491
0.058084
0.0451295
0.000150128
0.0218499
0.000163137
0.0139207
0.000188832
0.0524219
0.000236457
0.000284453
0.000163292
0.000148846
0.000148761
0.000149653
0.000149892
0.0206212
0.000226174
0.000146572
0.000148735
0.083152
0.000147485
0.0109364
0.0502554
0.00424095
0.000224208
0.000149948
0.0542378
0.000150316
0.0194667
0.00014761
0.0673355
0.0137926
0.000193111
0.0546116
0.000152753
0.0638091
0.0594108
0.0117761
0.0427216
0.027064
0.0551913
0.0492591
0.0234378
0.0001636
0.0116868
0.000151177
0.000149608
0.000210066
0.0252646
0.055899
0.00015035
0.000150705
0.000146318
0.000177975
0.000223766
0.000165817
0.000148579
0.000307696
0.000166952
0.000148559
0.000149405
0.000182552
0.000383996
0.0800737
0.000150023
0.000223302
0.000147793
0.000157634
0.0269005
0.000149155
0.0641664
0.0290618
0.000166752
0.00017514
0.000177075
0.000149254
0.000149466
0.00020047
0.000202432
0.000179374
0.000145214
0.000167104
0.014644
0.0201583
0.00596794
0.000153774
0.000160139
0.000245573
0.000178337
0.0459804
0.000149536
0.000148532
0.000183165
0.0812985
0.000165159
0.0311288
0.00020997
0.000164107
0.000151422
0.000147138
0.000198566
0.000152569
0.00016009
0.000195922
0.000149866
0.0593025
0.000148392
0.000148908
0.00016095
0.000149544
0.0822151
0.038316
0.0192886
0.0200763
0.0189998
0.000193292
0.000172972
0.000154708
0.0215869
0.000243599
0.000147399
0.0205685
0.00396719
0.000332733
0.0498916
0.0322401
0.0511622
0.000149622
0.000355512
0.0879565
0.000181302
0.000153837
0.0440285
0.000172131
0.000159821
0.000166127
0.000155997
0.030659
0.0526938
0.00604692
0.0810847
0.000187759
0.000355017
0.014439
0.000218777
0.000182791
0.000149492
0.0220679
0.000149505
0.0618115
0.00148927
0.00808237
0.0553643
0.000183164
0.000230057
0.000147812
0.0544424
0.000163444
0.000172021
0.0736239
0.000146807
0.000206204
0.000149821
0.0131478
0.00864231
0.000147459
0.000159733
0.00681659
0.000160406
0.000218945
0.000166184
0.00017457
0.000147435
0.000167362
0.000148494
0.000162063
0.000457757
0.0526347
0.00705177
0.000477783
0.019182
0.000158382
0.0521571
0.000149306
0.000161874
0.000181258
0.0594435
0.0143106
0.0558963
0.000147244
0.0438025
0.000183458
0.000147395
0.000148374
0.0571053
0.0581437
0.000412152
0.000168995
0.0166285
0.0194976
0.000148415
0.0749797
0.0812263
0.000161469
0.0452943
0.000228705
0.00019335
0.0057457
0.0121204
0.000148863
0.000149579
0.000161576
0.000148643
0.00890674
0.000149715
0.0120179
0.000146898
0.0818997
0.000161461
0.0543344
0.0795175
0.000173294
0.0576189
0.000149806
0.000309359
0.0187081
0.0278242
0.000159817
0.000148811
0.0250753
0.0497768
0.0817426
0.000171919
0.000149781
0.000157259
0.0116756
0.00831917
0.000153437
0.000173065
0.0223438
0.000148521
0.00493895
0.000184667
0.0293798
0.000218485
0.000278671
0.0626056
0.000166147
0.000175244
0.0757024
0.000148242
0.000428256
0.000175186
0.0459651
0.00015512
0.0759573
0.000152906
0.000178024
0.000159816
0.0519957
0.000158068
0.0149459
0.000159785
0.0231048
0.000162977
0.000172366
0.000194613
0.0147291
0.0215999
0.000320608
0.00017226
0.0667961
0.000167773
0.000164071
0.00014761
0.0546081
0.000150299
0.0260894
0.000159817
0.000157387
0.0610342
0.00014895
0.00014509
0.000149751
0.000224415
0.000150085
0.0790074
0.000159007
0.00615561
0.0655768
0.000199366
0.000148547
0.0775828
0.000159753
0.000157661
0.00015105
0.032955
0.000148864
0.000205581
0.000147849
0.0106835
0.0649726
0.000157976
0.0386855
0.0613333
0.0426794
0.000158159
0.0851665
0.000179584
0.0307044
0.0001593
0.000155544
0.00019314
0.0572851
0.000148881
0.021924
0.000237437
0.000155624
0.000778854
0.000154232
0.000188579
0.000157238
0.000146265
0.000156441
0.000155263
0.000175048
0.000149265
0.000169809
0.000176497
0.0173174
0.000162762
0.0780566
0.000192281
0.000148611
0.000169186
0.000231405
0.000147415
0.000192307
0.000149257
0.0785366
0.000157067
0.000844253
0.000149425
0.000201742
0.000148322
0.000160207
0.0887074
0.0684758
0.0187946
0.0185244
0.000198475
0.000177556
0.000151979
0.000166185
0.0866025
0.00827717
0.0240633
0.0101212
0.000148135
0.000374668
0.000148334
0.000158203
0.000157324
0.000172471
0.0001525
0.0474834
0.000298753
0.000191275
0.0132699
0.00019016
0.0780164
0.000205944
0.000158441
0.00014956
0.000152228
0.000157443
0.000160287
0.000177671
0.000184884
0.000151402
0.000149748
0.0138598
0.00020287
0.0657402
0.0718461
0.00791294
0.00286091
0.000161145
0.000162121
0.0237813
0.000164343
0.000150843
0.000156024
0.000196927
0.000154543
0.021479
0.000186785
0.0178408
0.000148825
0.000167966
0.0787841
0.000161127
0.000213041
0.000148847
0.000158412
0.0495944
0.0354204
0.0611686
0.00016015
0.000147298
0.0774362
0.000148708
0.060965
0.0537269
0.000165494
0.052497
0.000158635
0.000199416
0.000155336
0.000152684
0.00015565
0.0485059
0.00898073
0.000148427
0.000198766
0.000692383
0.00014818
0.000146304
0.000179811
0.0296594
0.060417
0.0571153
0.00015463
0.000151893
0.000167384
0.000208223
0.0603497
0.000168009
0.000150789
0.000153702
0.00022435
0.000167743
0.062847
0.00120575
0.000149614
0.0226006
0.000149713
0.011532
0.000167568
0.000171803
0.0369027
0.000169342
0.0921112
0.00016838
0.000191547
0.000199637
0.000156796
0.000148047
0.00015015
0.000163214
0.0358724
0.000173057
0.092078
0.000152779
0.000149883
0.000159073
0.065301
0.000150743
0.000191875
0.000485039
0.0531293
0.0799262
0.0553813
0.00015081
0.000173252
0.00017357
0.000145662
0.000150525
0.000167599
0.000152566
0.00017301
0.000186737
0.000148232
0.000176151
0.0145689
0.000149878
0.047465
0.000149567
0.000150115
0.000152488
0.000189334
0.000488913
0.02942
0.000165955
0.000173095
0.00015751
0.000149548
0.0370775
0.000161808
0.0118292
0.0925997
0.00224573
0.000171764
0.000179059
0.000151894
0.018994
0.000213205
0.0070481
0.073743
0.000225803
0.000152315
0.0762732
0.0681875
0.00019063
0.000319779
0.0881645
0.0650774
0.0611066
0.000169737
0.0498664
0.000160099
0.0765662
0.0530502
0.000168893
0.000148747
0.000196142
0.059454
0.000156889
0.000152612
0.0658511
0.000149388
0.000216814
0.0518095
0.000188698
0.000203058
0.000174757
0.000149431
0.000166582
0.0539822
0.000148875
0.0319536
0.000204459
0.000433943
0.000153142
0.0187916
0.000148242
0.0640252
0.000152101
0.0504083
0.000152106
0.000168088
0.000147124
0.0277349
0.000194962
0.0729311
0.00968175
0.000205258
0.000149224
0.000198047
0.0925737
0.0166473
0.017191
0.052805
0.000149216
0.000147648
0.000192695
0.000148909
0.0187308
0.0571067
0.000178772
0.0304567
0.0711303
0.000155674
0.0588419
0.000157676
0.000193823
0.045994
0.000153667
0.000165768
0.00020939
0.000156722
0.000147103
0.000152584
0.00016519
0.000147498
0.000151308
0.000500493
0.00014869
0.000150124
0.000160859
0.000148209
0.000163582
0.000149735
0.050347
0.0605199
0.0774466
0.000146188
0.000201381
0.000619493
0.000150465
0.00915396
0.000161827
0.000159508
0.000169823
0.000159783
0.056354
0.00610517
0.000161191
0.000152731
0.0365312
0.000192544
0.061883
0.000157594
0.0402612
0.0216735
0.000593103
0.014152
0.000150954
0.000444062
0.0140425
0.000151159
0.000162403
0.000153847
0.000155027
0.00387602
0.015938
0.0277527
0.000148402
0.00207651
0.000174742
0.000208284
0.000175223
0.000146797
0.000149805
0.000165919
0.000155046
0.0725226
0.0001664
0.014148
0.055349
0.000148958
0.00016643
0.000149699
0.0211078
0.000165298
0.0113741
0.00024618
0.000147311
0.000149742
0.000176127
0.0623469
0.086478
0.000168912
0.0166898
0.000149285
0.000242686
0.00018424
0.00014822
0.000145012
0.000169692
0.000148857
0.0529747
0.000196645
0.000145813
0.00015134
0.0744619
0.000146488
0.00943672
0.0001677
0.000166515
0.0496706
0.000149577
0.000162272
0.000149065
0.0554724
0.00015277
0.000156137
0.000158117
0.00017131
0.00014444
0.0639407
0.0270051
0.000160997
0.000149764
0.0159978
0.00350495
0.000210296
0.0556171
0.000167475
0.000150883
0.000149075
0.000207031
0.00020598
0.000229592
0.000189683
0.000170065
0.000167699
0.0776341
0.000149198
0.0467996
0.000153556
0.000192992
0.000148824
0.000148
0.000157438
0.000151679
0.000197564
0.000156523
0.000403725
0.000208912
0.0322021
0.0402752
0.000153441
0.000159894
0.000149109
0.024569
0.000151666
0.000171869
0.000147078
0.000169614
0.000182501
0.0620842
0.0576619
0.0576585
0.0131905
0.00015963
0.000168005
0.000215534
0.0342969
0.000191062
0.000149417
0.000161085
0.0527565
0.000151698
0.000157667
0.000149963
0.000173084
0.000159906
0.00361973
0.000153884
0.000148741
0.0542114
0.0265729
0.000225671
0.000152187
0.000149362
0.000179663
0.062978
0.000171405
0.000216358
0.000160489
0.000156669
0.000208826
0.000173738
0.000155849
0.0773988
0.0120619
0.000177462
0.0363331
0.0293719
0.000293529
0.0592834
0.000194746
0.0342641
0.0570653
0.000175453
0.000224508
0.00014819
0.000160074
0.0197576
0.000198491
0.0596188
0.000149574
0.0228809
0.000220957
0.0588562
0.000185254
0.000194674
0.000152895
0.0907646
0.0758318
0.000164934
0.0892156
0.000164575
0.000150829
0.0092967
0.000173229
0.0568105
0.000166655
0.000337963
0.0588241
0.0870152
0.000180306
0.0114156
0.000149494
0.00015125
0.000205583
0.00015681
0.000151046
0.000161018
0.000172204
0.000190584
0.000238668
0.0574392
0.0147403
0.000166969
0.000148815
0.0919833
0.000166473
0.000148897
0.0550107
0.00204994
0.000147889
0.000149552
0.000156382
0.000178167
0.000179063
0.0866154
0.000352869
0.000210316
0.000155024
0.0203745
0.000154476
0.000169985
0.0295107
0.000149836
0.000195674
0.000196991
0.000149648
0.000339279
0.0599927
0.000155631
0.000145623
0.000162364
0.000148104
0.000157652
0.0236907
0.000149768
0.000204376
0.0317699
0.000148196
0.0560295
0.000153655
0.040141
0.000307694
0.0905588
0.0195078
0.0843527
0.000180851
0.0239396
0.00014733
0.00966383
0.00015078
0.000169988
0.000214044
0.000160505
0.0843101
0.000157667
0.000344769
0.0193792
0.000149863
0.000210144
0.0338316
0.00014917
0.0750081
0.000171308
0.0557171
0.000280927
0.000147598
0.000175641
0.0166288
0.0452677
0.000187359
0.000194559
0.000150584
0.000187983
0.0499053
0.0403895
0.000172119
0.000149236
0.000167722
0.000578367
0.000153215
0.0277015
0.000149453
0.000165038
0.000173717
0.0623065
0.000149091
0.000148796
0.000158486
0.0124475
0.000145272
0.000149716
0.000212306
0.000148254
0.000196029
0.000190082
0.00016543
0.0470287
0.000234851
0.0771841
0.049894
0.000192156
0.000222549
0.0790415
0.000153916
0.000157542
0.000183621
0.000148132
0.0148341
0.000681704
0.000151436
0.000150829
0.0411828
0.0518298
0.0853645
0.000237353
0.000148155
0.0619627
0.0522012
0.000150938
0.0550248
0.0831568
0.0250665
0.0488244
0.00014943
0.000155635
0.000148776
0.000156361
0.000157581
0.000149526
0.000183713
0.00017795
0.0478534
0.000151966
0.00016821
0.00014642
0.000149683
0.0414664
0.000156531
0.0786953
0.0876761
0.000159785
0.000149407
0.000190725
0.000322542
0.000867249
0.000167169
0.0187069
0.000197677
0.0482136
0.000156282
0.000165996
0.0583615
0.000147971
0.0254824
0.000199535
0.0110454
0.0514466
0.0169344
0.000151234
0.0513482
0.000168802
0.0411374
0.0117957
0.0521882
0.0215918
0.000197161
0.000186444
0.0613853
0.000149895
0.0258101
0.0220004
0.0575108
0.0185428
0.0260731
0.000157721
0.0378291
0.000170514
0.000166709
0.0001659
0.0578673
0.000148805
0.000290417
0.00014898
0.000183066
0.00069727
0.000148776
0.0525962
0.0198582
0.000149139
0.000146729
0.000150746
0.0559638
0.0841377
0.000161373
0.000195836
0.000158708
0.0425257
0.0628342
0.0576476
0.0285064
0.000173407
0.0290224
0.0627436
0.0804023
0.000159345
0.0914841
0.0925516
0.0472324
0.00014553
0.0519206
0.000180714
0.0816612
0.0153924
0.000151096
0.000148884
0.000170258
0.000150816
0.0816247
0.000149305
0.0627407
0.000151626
0.0264213
0.0217877
0.0299326
0.000228949
0.00825683
0.000172243
0.000154086
0.000172154
0.0265382
0.000148583
0.000169502
0.0228195
0.0233827
0.0825336
0.030248
0.000155516
0.00017842
0.0436289
0.061932
0.00515653
0.0814222
0.0719099
0.0624194
0.0670987
0.0209532
0.000150823
0.000154372
0.000148022
0.073364
0.0479033
0.000147631
0.000160119
0.0320595
0.0645934
0.000232206
0.0103458
0.000514709
0.000212971
0.00022053
0.000226533
0.000150834
0.0270871
0.0574031
0.0299881
0.000154065
0.0310167
0.000156606
0.0193877
0.0566159
0.000255559
0.0391453
0.0254229
0.0204481
0.000214632
0.0325896
0.0275301
0.00437236
0.000150966
0.0589019
0.04764
0.00015562
0.000191409
0.000153315
0.000159823
0.00015191
0.0270315
0.000182035
0.000156504
0.000190803
0.000148572
0.000207831
0.0132774
0.0149251
0.0269701
0.000213634
0.000155974
0.000176501
0.0617167
0.000159326
0.000147992
0.0498108
0.00486874
0.000207886
0.00379464
0.000156779
0.033205
0.000161613
0.000175902
0.000157524
0.000156795
0.0838161
0.0611962
0.000189934
0.000338929
0.000203613
0.000157215
0.0717253
0.0314945
0.0267986
0.0849691
0.000150114
0.000149068
0.000187457
0.0317859
0.000173877
0.00016063
0.00018875
0.000149602
0.0588736
0.00014903
0.000149934
0.00014593
0.000153784
0.0778169
0.000192625
0.000149292
0.000154501
0.000166699
0.000188903
0.000184444
0.0518012
0.00015891
0.0878178
0.000149357
0.0831489
0.000179024
0.0297707
0.0544878
0.000149481
0.00014552
0.000149584
0.00014977
0.0399391
0.00015538
0.00016135
0.00419993
0.000228937
0.000149951
0.000154795
0.00015066
0.000190332
0.000206298
0.0535705
0.000331607
0.0498955
0.000178897
0.0904083
0.00304328
0.000148905
0.000147265
0.0674097
0.000205097
0.0328197
0.00014962
0.00240341
0.0170265
0.00023052
0.0590285
0.0195233
0.073917
0.000152326
0.0383997
0.000193107
0.000164102
0.000160312
0.000148894
0.000255806
0.000217325
0.000242392
0.0294162
0.000279822
0.000157101
0.0580664
0.000155602
0.0553081
0.000153243
0.0365667
0.000217222
0.0560589
0.0547031
0.000165112
0.000164841
0.000160632
0.0242687
0.00015233
0.026031
0.028995
0.0289567
0.0192789
0.000162684
0.000170273
0.000201974
0.0405988
0.000156025
0.000202962
0.000170491
0.000156378
0.000186268
0.0301859
0.000167916
0.0201305
0.0183609
0.00020965
0.000148977
0.000216908
0.000153237
0.029276
0.000151351
0.000145005
0.000160685
0.0557568
0.000160058
0.0795579
0.0363429
0.000225875
0.000179842
0.000266349
0.047448
0.000147789
0.000187864
0.0729839
0.000145652
0.00014869
0.0301533
0.0217351
0.000151403
0.00016124
0.000173563
0.0298497
0.057054
0.000162539
0.0503877
0.0239425
0.000152123
0.000317832
0.000157525
0.00951303
0.000225447
0.00021744
0.000166945
0.000300657
0.0469771
0.00014949
0.000153625
0.000157077
0.000201344
0.000160071
0.000158812
0.0262771
0.000236698
0.0655769
0.000160311
0.0529851
0.030579
0.000197095
0.0307322
0.0307661
0.000152223
0.0304722
0.0748423
0.000199658
0.000206303
0.031571
0.0871044
0.0577864
0.0313577
0.000185859
0.000163518
0.000198752
0.0264103
0.0293526
0.0313293
0.0728101
0.0185575
0.00014982
0.0244693
0.00018508
0.0710274
0.000160826
0.000147112
0.000225704
0.000262319
0.0867409
0.000233201
0.0169705
0.000174635
0.000241743
0.000162986
0.000160164
0.000153913
0.000151877
0.000171244
0.000225806
0.00022527
0.0587511
0.031616
0.0368292
0.00014813
0.000159134
0.000163672
0.000166536
0.000150697
0.0248991
0.000167208
0.00607111
0.0279438
0.000147987
0.0786476
0.0309807
0.0347273
0.000147068
0.000200872
0.0311674
0.0802716
0.000180492
0.00016414
0.000197177
0.000170952
0.000204809
0.000203221
0.000164867
0.000189556
0.0318938
0.0318217
0.0333831
0.000171989
0.000149609
0.000149078
0.0541087
0.0307826
0.0314101
0.000156254
0.031713
0.0600355
0.0609663
0.000153577
0.037414
0.0349512
0.035266
0.000196785
0.0836525
0.0338802
0.000148049
0.0362624
0.0338801
0.000147981
0.0623472
0.0341887
0.0356532
0.0607946
0.0365612
0.000147728
0.000195999
0.000210591
0.000209073
0.000200631
0.000219381
0.000160453
0.0847033
0.000206649
0.0415216
0.000209508
0.031659
0.0807335
0.000208466
0.0228388
0.0924899
0.0327833
0.00014944
0.0344658
0.0893529
0.000209709
0.0318739
0.000156684
0.0571913
0.0857954
0.000182698
0.00856048
0.000175511
0.000148606
0.00016027
0.0820968
0.0891564
0.0661357
0.0647227
0.000195811
0.000163997
0.0660447
0.000151283
0.000155199
0.059842
0.000159146
0.000183431
0.088216
0.0885091
0.000152449