/*--------------------------------*- C++ -*----------------------------------*\
| =========                 |                                                 |
| \\      /  F ield         | OpenFOAM: The Open Source CFD Toolbox           |
|  \\    /   O peration     | Version:  v2012                                 |
|   \\  /    A nd           | Website:  www.openfoam.com                      |
|    \\/     M anipulation  |                                                 |
\*---------------------------------------------------------------------------*/
FoamFile
{
    version     2.0;
    format      ascii;
    class       volScalarField;
    location    "100";
    object      nut;
}
// * * * * * * * * * * * * * * * * * * * * * * * * * * * * * * * * * * * * * //

dimensions      [0 2 -1 0 0 0 0];


internalField   nonuniform List<scalar> 
15335
(
0.00292453
0.00104019
0.00214513
0.000289493
0.00579957
0.00318101
0.000876489
0.000598166
0.000730584
0.00548205
0.00351992
0.00272234
0.00585195
0.00101003
0.0131217
0.00171765
0.00269995
0.0110916
0.0058736
0.00128697
0.023061
0.0232182
0.00093278
0.00586047
0.000686209
0.00016838
0.000179836
0.000143793
0.00426429
0.000741831
0.000187215
0.0160046
0.00583595
0.00241665
0.00341516
0.000601848
0.000586366
0.000240307
0.00480638
0.000135879
0.00120797
0.00171595
0.00345215
0.00199332
0.00311516
0.00584325
0.00103997
0.0205674
0.00386596
0.0007905
0.00585842
0.0154106
0.00110255
0.00583632
0.0030997
0.000908529
6.03081e-05
0.0164588
0.00129103
0.00357446
0.0178732
0.0207926
0.000215036
0.000454217
0.00564458
0.00281178
0.00525771
0.017872
0.0059355
0.00585105
0.000887916
0.00114509
0.000747416
0.0203997
0.00797871
0.0208233
0.0011993
0.000419717
0.00712416
0.00583689
0.0105323
0.000121443
0.0114416
0.000759304
0.000354134
0.00585122
0.00587232
0.0019848
0.000782272
0.00102551
0.00907024
0.000877348
0.00276479
3.06298e-05
0.00231883
0.00174827
0.00583991
0.000445235
0.00585423
0.0058366
0.0034049
0.0216408
0.000632542
0.00115673
0.00264381
0.000707432
0.0035378
0.000220139
6.23721e-05
0.000200643
0.0141749
0.000745829
0.00584285
0.00270092
0.00104768
0.000828335
0.000889259
2.81214e-05
0.00880023
0.00115795
0.00956887
0.00554805
0.0203247
0.0142006
0.00353131
0.00409761
6.55095e-05
0.00583784
0.00131275
0.00289873
0.0183817
0.00438595
0.00586746
0.00012896
0.000408431
0.00583593
0.011922
0.00465891
0.00019132
0.000608183
0.000974523
0.00101937
0.000254698
0.00601785
0.0231788
0.000517255
0.0194472
4.7171e-05
0.000211408
0.0127246
0.00138731
0.015409
0.00448428
0.00158621
0.0191291
0.00583618
0.022562
0.00313707
3.99124e-05
0.0127137
0.00583593
0.000325888
0.0148526
0.000695145
0.00516355
0.00257022
0.00434437
0.00585561
3.07888e-05
0.00104718
0.00110713
0.000713157
0.0249894
8.57405e-05
0.000551257
0.00583704
0.00583638
0.0147253
0.00190729
0.00437262
0.000519678
6.78828e-06
0.0198049
0.000718281
0.000779309
0.00645028
0.00105499
0.000296109
0.019319
0.0191574
0.00213003
0.000275179
0.00189707
0.0005824
0.000867118
0.00275294
0.00584161
0.00421336
0.00321018
0.00567663
0.000454903
0.000130927
0.000274744
0.00208037
0.00346656
0.000492957
0.00583633
8.55807e-05
0.000266927
0.000514419
0.000231421
0.0037642
0.0201607
0.000828213
7.59321e-05
7.92681e-05
0.00225775
0.0178812
0.00108607
3.90768e-05
0.00369902
0.00584656
0.000913604
0.00212775
0.000251506
0.00196574
0.00587069
0.000350192
0.000629542
0.0124871
0.00584236
0.00584311
0.00531831
4.16241e-05
0.00277323
0.00029047
0.000697093
0.00129913
0.00583648
0.00155202
0.0252817
0.000204371
0.0193097
0.000769088
0.00386829
0.00584734
0.00124632
0.00304698
0.0211452
0.0230854
0.00208756
0.00222583
0.00585681
0.00585727
0.000614979
0.00237464
0.000898258
0.0186089
0.00584738
0.00049529
0.00025143
0.00583626
0.00586415
0.00317099
0.00594456
0.00584892
0.0134377
0.00482785
0.003456
0.00267636
0.0138181
0.00364348
0.0033384
0.00584107
0.00256323
0.000893887
0.00212618
0.000678571
0.000459729
0.000677331
0.000329736
0.0214396
0.00589355
0.000929351
0.00154776
0.0132606
0.0247344
0.00163484
0.00104532
0.00181059
0.00303204
0.00241088
0.000130217
0.000954838
0.000933314
0.000150188
0.00586468
0.00112079
0.0038951
0.0178258
0.00369286
0.025217
0.000200267
0.0133319
0.0058341
0.00772784
0.00438795
0.00583641
0.00752503
0.000584409
0.0180002
0.00594695
0.000765777
0.0140767
0.00895877
0.00477055
0.00216161
0.0212382
0.00328664
3.65283e-05
0.000321711
0.00592278
0.000111236
0.0131186
0.000682722
0.0193698
0.0181682
0.0116033
0.00168257
0.00132294
0.00583639
0.000210722
0.00124649
0.00105172
0.000128351
0.000627135
0.000243093
0.00468146
0.000328413
0.00426737
0.000800749
0.0011639
0.00583989
0.00125577
0.00192752
0.000568492
0.00233261
0.000499127
0.00584716
0.00927233
0.0222111
0.0172011
0.00091627
0.00074226
0.00348016
0.00584789
0.000264633
0.000372267
0.00138236
0.000542479
0.00153563
0.000776558
0.00181819
0.00572513
0.000288965
0.00223961
4.13845e-05
0.000852971
0.00129658
0.00583727
0.0122605
0.000674778
0.000445497
0.0150567
0.00439357
0.00196145
0.0138314
0.00189164
3.13583e-05
0.0202364
0.00583992
0.00100456
0.0106143
0.00604509
0.000974433
0.00584242
0.00073524
9.35612e-05
0.00116073
0.00270777
0.00431768
0.000935863
0.00584185
0.00116339
0.00794965
0.000208488
0.000584764
0.00181251
0.000115231
0.0252077
0.000547836
0.000485045
0.00766538
0.00177936
0.00173862
0.000540688
0.00524464
0.000898553
3.44964e-05
0.000882798
0.000775036
0.000300433
0.00927792
0.0150351
0.00119796
0.0195349
0.0135801
0.00136398
2.47711e-05
0.00025789
0.000380076
0.00343119
0.0161573
0.00584067
0.00113027
0.0118522
0.00137791
0.0190699
0.00146063
0.000136396
0.0234101
0.00158142
0.00202918
0.0227875
0.0051588
0.000208188
0.0252934
0.00245937
0.00584886
0.00290851
0.00155678
0.0185222
0.00386727
0.00106169
0.00124099
9.86522e-05
0.00111041
0.00113409
0.00112361
0.00397981
0.00223469
0.00479562
0.000260195
0.000774571
0.0241608
0.0226292
0.00303526
0.0228438
0.0199929
0.00119978
0.0251114
0.000394652
0.000116633
0.0245417
0.00143304
0.000712634
0.00101067
0.00307006
0.00012182
0.0148232
0.0012064
0.00101122
0.0064182
0.00452415
0.00583657
0.00594938
5.44987e-05
0.0149953
0.0186397
7.13114e-05
0.0002335
4.73388e-05
0.00140063
0.0103977
0.00102451
0.00590499
0.00583635
0.00791016
0.00424807
0.020749
0.00584963
0.00112839
0.00587296
0.0117615
0.000172887
0.00583658
0.00178912
0.000884085
0.000336847
0.000459778
0.0163958
0.00177657
0.00114093
0.00294158
0.00306834
0.00157234
0.00518527
0.00223708
0.0014839
0.000215447
0.00592022
0.00583624
0.00583617
0.0032981
0.000563703
0.00139399
0.00169535
0.000655933
0.00325367
0.00178491
0.011737
0.00583566
0.017978
0.0109433
0.0206661
0.0209085
0.0026235
0.0100453
0.021307
0.0122921
0.00340738
0.00150074
0.0181589
9.99408e-05
0.00253904
0.0010451
0.0182205
0.000504996
0.0220938
0.0207378
0.0167226
0.000166712
0.00176653
0.00147089
0.000455127
0.00583253
0.000112135
0.000307522
0.00246176
0.000615692
0.000764513
0.00031691
0.0234885
0.020905
0.0196842
0.00075148
6.33411e-05
0.0058366
0.0013068
0.00584909
0.000386047
0.0207831
0.00325332
0.00140774
0.000343743
4.0452e-05
0.00527595
0.00284141
0.000314023
0.00464269
0.00356071
0.00129612
0.00583595
0.00029974
0.00495612
0.000439693
3.95606e-05
0.00567362
0.000766533
0.0125568
0.00588784
0.000229836
0.0228372
0.0091702
0.00332671
0.00405296
0.00105257
0.000756981
0.0131394
0.00261748
0.00043962
0.00585385
0.0058349
0.00583636
0.0154422
0.00107075
4.76459e-05
0.0226472
0.0013583
0.000734427
0.00180888
0.00123519
0.0199485
0.00329047
0.00115425
0.0212378
0.00587242
0.00202592
0.0109049
0.000202622
0.000271177
0.0168815
0.0185222
0.000663605
0.0181659
0.000147964
0.000837942
0.00583763
0.00042775
0.0011973
0.0199744
0.000721235
0.00583529
0.000806072
0.0058409
0.00176202
0.0127488
0.0006784
0.000328331
0.00460732
0.00120245
0.00583706
0.0059623
0.000395966
0.00583544
0.0215371
0.00150041
0.000792033
0.00992319
0.00584654
0.00109403
0.00894216
0.000361673
5.34138e-05
0.0171587
0.00192238
0.000771103
0.00583666
0.0247494
0.000221853
0.0123718
0.000198408
0.00857281
0.0174737
0.00010752
0.00341273
0.00586532
0.00102396
5.46062e-05
0.000490276
0.00104951
0.00975758
0.00584282
0.00524185
0.00101555
0.000597018
0.00587459
0.0032337
0.000167774
0.000308092
0.00312757
0.00158729
0.00347018
0.00023762
0.00242158
0.00048002
0.00318
0.0002395
0.0197774
0.00583676
0.0208372
0.0012727
0.00584413
0.000430882
0.000452244
0.000686084
0.0147141
0.00117811
0.00036435
0.000283243
0.00271627
0.00584621
0.0252423
0.00600462
0.00585695
0.00584851
0.000615307
0.00585691
0.00304289
0.000255636
0.00837253
0.0145367
0.00405852
0.00037433
0.0246218
0.00100226
0.00583646
0.000112628
0.000858887
0.00351862
0.00174526
0.0144915
0.000757457
0.0033652
0.00165249
0.000765671
0.00583931
0.0162799
0.0058391
0.00109467
0.00118169
0.0058347
0.00288771
0.000434262
0.00021463
0.000258064
0.0220302
0.0147374
0.00583757
0.0206666
0.000235162
0.000949051
0.000806119
0.001122
0.00105982
0.00106911
0.000952615
0.0167384
0.000194077
0.00133763
0.000122881
0.000655534
7.74947e-05
0.000189148
7.45536e-05
0.0032754
0.000224642
0.0245365
0.000415281
0.00106278
0.0188038
0.00161661
0.00511141
0.00234089
0.000515119
0.0183607
0.0240657
0.00352399
0.00268027
0.00172352
0.000716382
0.00360611
0.00513456
0.0010156
0.01614
0.00584475
3.55516e-05
0.00157859
0.000835231
0.00884121
0.00587041
0.0209825
0.00114673
0.000108496
0.000431463
0.000325395
0.000318682
0.00583727
0.00357719
0.000669582
0.00286224
0.00141954
0.00584495
0.000546234
0.00412181
0.000897283
0.00048254
0.0142115
0.000940772
0.00583616
0.00720398
6.98709e-05
0.0224997
0.00125001
0.000263046
0.000948362
0.00312506
0.00588397
0.00100267
0.00321808
5.36122e-05
0.00113377
0.00585689
0.00211624
0.0148189
0.00243539
0.00348471
0.000366687
0.00584167
0.00839761
0.000181954
0.00585214
0.00391238
0.00583735
0.00252926
0.00584332
0.00584948
0.0138935
0.000383004
0.000363769
0.00108516
0.00583718
0.00276158
0.00164966
0.00740458
4.73662e-05
0.0230945
0.000650874
0.00583752
0.0010923
0.00254219
0.0200258
0.00105334
0.000340538
0.00142615
0.0127938
0.00291995
0.00591238
0.00915662
0.024814
0.00113226
0.000411888
0.0058668
0.000866284
0.00156588
0.0012014
0.000913941
0.00584884
0.0114645
0.000576271
0.00584681
1.68998e-05
0.00119398
0.000166747
0.0022825
0.00119815
0.0058477
0.00332362
0.000750097
0.000359387
0.000716245
0.000299247
0.000789683
0.000448973
0.00104296
0.000585101
0.00583505
0.00065628
0.000985003
0.00265479
9.08151e-05
0.00255456
0.000748267
0.0200673
0.0184803
0.0027251
0.0202826
0.000381012
0.00583929
0.00146784
0.00103227
1.72199e-05
5.44536e-05
0.00585345
0.000688877
0.00077444
0.0207571
0.0211951
0.00287355
9.45326e-05
0.00275176
0.011676
0.00161339
0.000152986
0.00132881
0.0235287
2.09884e-05
0.00163444
0.00583362
0.00117213
0.0109342
0.00302396
0.00287094
0.00331221
0.0169066
0.0054766
3.41811e-05
8.39647e-05
0.00585035
0.00487886
0.0245437
0.00109453
0.0216359
0.000205724
0.0020344
0.000923853
0.0011103
0.00128241
0.000699501
0.00125695
0.000207216
0.005851
0.00585145
0.0208537
0.000747879
0.00584243
0.0212835
0.00504901
0.00296518
3.30863e-05
0.00584114
0.00106407
0.00246086
0.00677916
0.0154638
0.0021473
0.00176948
0.0181765
0.00166414
0.000376787
0.00261127
0.000250936
0.002669
0.000485007
0.00310063
0.000956748
0.0188011
0.00167487
0.0007604
0.0199825
0.000995482
0.0247777
0.00295408
0.000714737
0.00583947
0.0153409
0.000330881
0.0058508
0.00116524
0.00242368
0.000517568
0.00545895
0.00583549
0.0183731
0.00585136
0.00144939
9.1895e-05
0.0129619
0.000769601
0.00347614
0.00584717
0.0215684
0.00584527
0.00152175
0.000103463
0.0199939
0.000128591
0.0149817
0.00709345
0.000156713
0.00340448
0.0162149
0.00114308
0.018237
0.00192483
0.000815356
3.96355e-05
0.000699309
0.00587016
0.000160677
0.000238902
0.000187755
0.00178145
3.87654e-05
0.00271585
3.029e-05
0.00393717
0.000629129
0.00584026
0.0245029
0.00584794
0.00359214
0.0175557
0.00114621
0.00108213
0.0252314
0.000199556
0.00585869
0.000202583
0.000607578
0.000106448
0.00583854
0.000262247
0.00307408
0.000248449
7.01597e-05
0.0123469
0.0172817
0.0058359
0.0106877
0.000356393
0.00122722
0.0130427
0.0218962
0.000601003
0.00583831
8.50789e-05
0.0169118
0.000692482
0.000387883
0.0058351
0.00583965
0.00585312
0.00583838
0.0021044
3.70333e-05
0.000334346
0.00407996
0.000468483
0.0058445
0.0028173
0.016636
2.95269e-05
0.00222461
0.00112174
0.00341412
0.00189651
0.0183299
0.00032682
0.000183369
0.00311855
0.00507471
0.00110589
0.000426262
0.00596318
0.0039806
0.00584015
0.00583295
0.00414167
0.000450593
0.000348444
0.0219959
0.000337895
0.00584679
0.00301579
0.000353432
0.019727
0.00336697
0.00678015
0.00584783
0.00585157
0.00170408
0.00583711
0.000812298
0.00290305
0.00584411
0.0028709
0.000736936
0.00592794
0.00583761
4.9967e-05
0.0166649
0.000872335
0.017935
0.00170953
0.000691218
0.0058156
0.000183128
0.000946656
0.0193671
0.00347696
3.78675e-05
0.00585146
0.00112381
0.00188312
0.000141623
0.0251926
0.0193795
0.0225876
0.000114895
0.000820929
0.000962879
0.024228
4.46503e-05
0.00120811
0.00585844
0.00889318
0.000720169
0.0248928
0.0058347
0.00583671
0.0252317
0.000161221
0.0176351
0.00107298
0.00583633
0.00106023
0.0176689
0.000791155
0.000239714
0.000489185
0.000639926
0.000261296
0.00152799
0.00153309
0.000812386
0.00754966
0.000585017
0.00572325
0.00583692
0.000558688
0.019036
0.000476901
0.0059127
0.00583922
0.000912417
0.000766765
0.0058353
0.00279364
0.00079957
0.00356977
0.00584795
0.0161871
0.00122502
0.0215356
0.00583662
0.00583709
0.000155013
3.65281e-05
0.000412523
3.12623e-05
0.000653136
0.00111679
0.00590782
0.017684
0.000641804
0.0185555
0.00496908
0.000399499
0.000454867
0.00157163
0.0185378
0.000212823
0.0140906
0.00555947
0.00583662
0.000752638
0.000331228
0.0248257
0.000978537
0.00583365
0.00195651
0.000716282
0.0218285
0.0149317
0.00353188
0.000931254
0.0156109
0.0209405
0.000613919
0.0171124
0.00137264
0.00157493
0.00442125
0.00355316
2.92258e-05
0.0136943
0.0170432
0.00184637
0.00378199
0.000167454
0.0010874
0.000491094
0.0205286
0.000935461
0.000548406
0.00173189
0.00357267
0.00486289
0.00583649
0.00583652
0.00342258
0.000801771
0.00584884
0.00584419
0.0209627
0.00591935
0.00074149
0.0184508
0.000289288
0.000823285
0.00330715
0.0133947
0.00202196
0.00337166
0.00587689
0.0245032
0.00210424
9.97909e-05
0.0220588
0.0007723
0.0160457
0.0213847
0.00173466
0.0159263
0.00164643
0.0214013
0.017997
0.00424484
0.000981188
0.00310005
0.00160438
0.00583556
0.00113811
0.0079415
0.0214086
0.00285942
0.00132177
0.00584765
0.000289068
0.000972069
0.00105986
0.00563491
0.000358497
0.000820925
0.00590995
0.0059319
0.000591494
0.00026032
0.0217142
0.00242836
0.00015444
0.00588166
0.000512255
0.0059107
0.00371828
0.0246686
0.0071154
0.00111418
0.0010808
0.00115478
0.00243578
0.00583715
6.37355e-05
0.000255328
0.00118978
0.00587078
0.000821188
0.00178766
0.00290865
0.00037228
0.00223863
0.00156427
0.00107478
0.000749129
0.0191961
0.00583528
0.00592066
0.000946809
0.0217755
0.00107867
0.0112776
0.00112708
0.000982438
0.00148277
0.00584308
0.000497779
0.00227419
0.00269659
3.24949e-05
0.00384089
0.0220218
0.00583751
0.00583943
0.00191951
0.00583537
0.0213704
0.00456962
0.00266045
0.00268858
0.00341365
0.000876405
0.000250402
0.000808345
0.00391151
0.00036306
0.0058354
0.00376742
0.000925224
3.97213e-05
0.0122689
0.00904468
0.0200895
0.00583584
0.000652271
0.0131873
4.13489e-05
0.00068046
0.0130041
0.000475555
0.00173388
0.000225354
0.000499706
0.0110906
0.0207593
0.000393574
0.0211271
0.000484815
4.76518e-05
0.00244769
0.000963959
0.00032285
0.00583703
0.00374798
0.00583505
0.0235562
0.000222145
0.00172262
0.0151171
0.000610753
0.000657532
0.00589311
0.0127775
0.000140688
0.00601148
0.0253243
0.00585366
0.000582101
0.00227336
0.00239751
0.0013237
0.00583469
0.000604869
0.00121813
0.000909723
3.39224e-05
0.00100238
6.47749e-05
0.00587915
0.000305729
0.00584057
0.000962952
5.66792e-05
0.0195565
0.000200045
5.16477e-05
0.00352812
0.00600729
0.0206515
0.00261326
0.00113312
0.000303796
0.0224323
0.00211884
0.0227745
0.00583529
0.00307386
0.00058365
0.00583881
0.00583808
0.0125935
0.00695208
0.000244122
0.000398827
0.00235341
0.00317332
0.00583903
0.0249613
0.0184775
0.000951533
0.0117349
3.62746e-05
0.000191469
0.00197694
0.00354762
0.00430586
0.0058372
0.000967951
0.00513955
0.00190756
0.00583574
0.0016972
0.00584007
0.0244575
0.000194293
0.0222595
0.0201753
0.000621475
0.021648
0.00583629
4.16015e-05
0.00332605
0.00901757
0.000956764
0.00456992
0.00613116
0.0125461
0.0244821
0.000163992
0.00245808
0.000519354
0.00127172
0.00237577
0.00145682
0.000498855
0.00377197
0.00583622
0.000851239
0.000634089
0.00743338
0.000858975
0.000626445
0.0240056
0.00113312
0.000137632
0.0158797
0.00587066
3.11085e-05
0.000699844
0.0171647
0.000567478
0.0250614
0.000763851
0.00028406
0.00174847
0.012433
0.000835924
0.00194514
0.000562081
0.0058147
0.00126746
0.00049973
0.000424294
0.00223889
0.00287834
0.000165102
0.000619259
0.024201
0.000874146
0.000987351
0.00588401
0.0224457
0.00189002
0.00805431
0.000478539
0.000552012
0.0236212
0.00397381
0.00585245
0.00583615
5.12932e-05
0.00172292
0.0231047
0.000494194
0.000392042
0.0242734
0.000396269
0.00583579
0.0186953
0.000649128
0.00128034
0.00356133
0.0101571
0.00583911
0.000166546
0.00583568
0.00191769
0.0238978
0.00107963
0.0108098
0.0163696
0.0141047
0.00076184
0.0125212
0.000537656
0.00380892
0.00110364
0.00135188
0.000135362
0.0201906
0.0043781
0.00290014
0.000678317
0.00102397
0.000756161
0.00174245
0.000495173
0.00141037
0.00584641
0.000558865
0.00160109
6.49331e-05
0.00314139
0.000769096
8.0906e-05
0.00219408
0.000161692
0.0248077
0.000944004
0.00583567
7.49825e-05
2.54354e-05
0.00589082
0.000856704
0.00257045
0.0228028
0.000388545
0.000438222
0.00270294
3.65797e-05
0.00583492
0.000248103
0.0136956
0.0154213
0.00279237
0.00611651
0.000295265
0.000756249
0.00213062
0.000309036
0.0208032
0.000474214
0.00585131
0.0021297
0.00584343
4.87821e-05
0.00583465
0.00143066
0.00138911
6.99901e-05
0.00316992
0.0136822
4.20407e-05
0.000406419
0.0025383
0.000747977
0.024817
0.001029
0.0014967
0.0058356
0.00331065
0.000950874
0.00121279
0.000295571
0.000977311
0.00336414
0.00583674
0.00438042
0.000876633
0.0243279
0.0124369
0.00117807
0.000331292
0.000207622
0.000180343
0.00450803
0.00189219
0.00346882
0.000438424
0.000668475
0.00251076
0.00638007
0.000714288
0.00238639
0.00583943
9.83741e-05
0.0189058
0.000888024
0.00109301
0.00583605
0.00259585
0.0123537
0.0118382
0.0235448
0.000571236
0.00585564
0.0218894
0.00584362
0.0234356
0.0196339
0.000981674
0.011513
0.000712319
0.00128717
0.000937968
0.00350122
0.000620302
0.00419056
0.00118937
0.00583684
0.000724655
0.000631417
0.0058983
0.00585526
0.00112123
0.00741982
0.0236354
0.014885
0.000817883
0.00205746
0.000133755
2.6691e-05
0.0216249
0.000352354
0.00253395
0.00158582
0.0010406
0.00139781
0.0226884
0.000516054
0.0058357
0.00388281
0.0058368
0.00148537
0.000167331
0.000811648
0.0119057
0.00155531
0.0175437
0.000409221
6.10616e-05
3.31306e-05
0.000386903
0.00586659
0.00194836
0.000155454
0.0103017
0.000610315
0.0169362
0.000845683
0.00583644
0.000632199
0.0238845
0.00133052
0.000828468
6.73252e-05
0.0201469
0.0183199
0.0220612
0.00155312
0.000492098
0.000162391
0.00586393
0.00589243
0.000190644
0.00186972
7.15179e-05
0.000716837
0.00583441
0.000163136
0.00212289
0.00583648
0.0180688
0.00354076
0.00319153
0.000857586
0.000510596
2.36228e-05
0.0050911
0.000667233
0.00243323
0.000392295
0.00583554
0.0101807
0.000940628
0.0017958
0.0166886
0.000425594
0.000145737
0.000286286
0.00279227
0.00243858
0.0011316
0.00151004
0.0175131
0.00107381
0.00100896
0.0252115
0.00664192
3.9302e-05
0.000679618
0.0122145
0.016158
0.0236017
0.00033859
0.0190271
0.000590597
0.0250155
0.0199003
8.41717e-05
0.00584338
0.000133024
0.0163421
0.00246999
0.00332334
0.00592137
0.00280188
0.000249649
0.021661
0.000321134
3.46193e-05
0.00018196
0.00281479
0.000109794
0.0134904
0.00583949
0.00919786
3.76207e-05
0.000180547
0.000766617
0.0029863
0.00584724
0.0123801
0.00229914
0.0197609
0.00234298
0.000762845
0.00583579
0.00888767
4.03335e-05
0.0235225
0.00268804
0.000618989
0.00583666
0.000301431
0.0167599
0.00199508
0.00342417
0.00420111
0.00583638
0.00586743
4.02053e-05
0.00435377
0.00316337
0.0226497
6.01107e-05
0.0106066
0.0234349
0.000510127
0.0139613
0.0018048
0.00041093
0.00452981
0.000692934
0.00110618
0.0010799
0.00250456
0.00584222
0.00319183
0.00019676
0.00587892
0.0012684
0.000473831
0.00584399
0.0038196
0.000631648
0.0058347
0.000469595
0.00583672
0.0198476
0.0231848
0.0250962
0.00584658
3.27182e-05
0.000647154
0.00319455
0.00269924
0.00039896
0.000663444
0.00082337
0.000320155
0.0209193
0.00050394
0.000208206
0.00236304
0.00597824
0.000384914
0.0232282
0.00214512
0.0160138
0.00593001
0.000190296
0.00233967
0.00377953
3.11417e-05
0.00186676
0.00185638
0.000182702
0.00224977
0.000554501
0.00137036
0.00200595
0.000778535
0.00590408
0.000112567
0.000704473
4.85743e-05
0.00017745
0.00586116
0.00290081
0.000650167
0.000877721
0.0188743
0.000678843
0.00326611
0.0134849
0.00583939
0.000231205
0.00583564
0.00330251
0.000253645
0.00247924
0.000470116
0.00585855
0.00392246
0.000678854
0.0236946
0.0161178
0.000266113
0.00201167
0.00304825
5.03776e-05
0.000572995
0.00591223
0.00585232
0.000861095
0.00583345
0.0199557
0.000700864
0.0058622
0.00114193
0.0243564
0.00585755
0.00142214
0.000352781
0.000207993
0.0211278
0.00350815
0.000184006
0.00592674
0.022677
0.0030657
0.000474844
0.00178188
0.000504662
0.00584943
0.0121457
0.00949647
0.000752315
0.00583592
0.00238777
0.0012684
0.000347159
0.0220775
0.000296395
0.0028694
0.00363103
0.000638515
0.00062965
2.54368e-05
0.000232364
0.000832367
0.00046182
0.0215901
0.00583416
0.0194085
0.00111459
0.00085502
0.00506371
0.00585126
0.00266025
0.00134492
0.00065702
0.000414971
0.000241827
0.000378299
0.0101708
0.0137637
0.0014927
0.00201704
0.00438013
0.00357918
0.00306288
0.000175687
0.00583964
0.000803487
0.000844782
0.0161878
0.0226331
0.0225052
0.00428503
0.00601527
9.48386e-05
2.67705e-05
0.00734162
0.00055691
0.00279656
0.000428969
0.0212151
0.00116167
0.000401637
0.00461838
0.000246267
0.0011969
0.000827999
0.00104103
0.00583893
0.0198529
0.00874737
0.00131936
0.00475828
0.00296946
0.000543315
0.0227851
0.000452039
0.000189997
0.00171374
0.000456757
3.13617e-05
0.000625156
0.000514769
0.0182334
0.00167351
7.50672e-05
0.0115683
0.0075373
3.24035e-05
0.0236322
0.00071446
0.0124183
0.00395846
0.00120578
0.000421691
0.00584582
0.00164743
0.00286534
0.00110949
0.0235962
0.00583692
0.00399649
0.00050973
0.0225468
0.000310687
0.000984485
0.00256943
0.0220004
0.00958901
0.000197442
0.0140226
0.000972311
0.00133061
0.00160467
0.000251748
0.0199503
0.000126848
3.77042e-05
0.0225463
0.0118576
0.00136973
0.00349865
0.00594133
0.0014746
0.00109687
0.00252606
0.0017159
0.000391994
0.000941293
0.0002251
0.00111318
0.00527276
0.00230635
0.000110451
0.00501915
0.0200109
0.00110716
0.00351217
0.0203462
0.00105758
0.00583573
0.00595107
0.000439882
6.26384e-05
0.0012617
0.0119199
0.000309497
0.000310326
0.00121141
0.00548612
0.00256871
0.000933874
0.010007
0.00334593
4.59883e-05
0.00119023
0.00360852
0.000656478
0.0228071
0.00138583
0.00584723
0.00120987
0.00583275
0.00246885
0.00451246
0.00489644
0.000605557
0.0088487
0.00584695
0.0215117
0.00229696
0.0118509
0.000594732
0.0220633
0.00322468
0.0181353
0.000851153
0.00696878
0.00583735
0.00159019
0.00144704
0.000107709
3.3233e-05
0.000222584
0.0189055
0.000341123
0.000283377
0.0027402
0.00583676
0.000290828
0.00935276
0.00583652
0.0252396
0.00601312
0.0206792
4.11768e-05
0.000247915
0.000657434
0.00492319
0.0189742
0.000723064
0.000407322
0.00138479
0.000255573
0.00354408
0.00828311
0.000141535
0.00269446
0.000162654
0.000558922
0.00245959
0.00635651
0.00590934
0.000319535
0.000115396
0.0235902
0.00421899
0.00583832
0.000307471
0.00153927
0.00584919
0.00583635
2.73686e-05
0.00584839
0.00108331
0.000393441
0.000250137
0.0178177
0.00101684
0.0225583
0.0178835
0.000794589
0.000835727
0.0197798
0.00092885
0.0025487
0.000628297
0.00584481
0.00204074
0.000413548
0.00104016
0.00180222
0.0136382
0.0191645
0.0190604
0.0009186
0.00586945
0.0217574
0.0206405
0.00153974
0.0202418
0.0211951
0.00705645
0.00270669
0.00398764
0.000989317
0.00548351
0.000589252
0.00241139
0.0058352
0.000299144
0.000718895
0.0182038
0.0010483
0.000258126
0.00585769
0.00583679
0.00963307
0.000439858
0.0088912
0.0160807
0.000652618
0.00593307
0.000387627
4.52385e-05
0.000264734
0.00118017
0.00484428
0.000675661
0.0135989
0.0012565
0.000285435
0.0199905
0.00583537
0.00709363
0.000213577
0.00327336
0.0196773
0.00497266
0.00262961
0.0196447
0.000137775
0.0120046
0.00113994
0.0189128
0.00243012
4.5527e-05
0.000173647
0.0230877
0.00583642
0.00707866
0.0036689
0.0212361
0.00533302
0.0070174
0.00186031
0.0125512
0.000951328
0.000459876
0.000638713
0.0226243
0.00583578
2.83721e-05
0.00383949
0.000881488
0.000355291
0.00541916
0.0198251
0.00549664
0.00593725
0.00586117
0.00598251
0.0221008
0.0134956
0.00191425
0.000475113
0.00151763
0.0127538
0.023939
0.0234015
0.00846975
0.00100351
0.00722071
0.0238539
0.00980104
0.000303867
0.0200636
0.0168771
0.0134705
0.00584859
0.0211874
0.000354091
0.0220407
0.00479065
0.00164627
0.00583563
7.64568e-05
0.00598616
0.0228123
0.00590719
0.0239956
0.00104035
0.00698912
0.00580733
0.00767465
0.000705742
0.00155287
0.00232791
0.00347739
0.000267033
0.00684462
0.00584249
0.000101922
0.00583975
0.00691546
0.0115245
0.00835218
0.000653767
0.00034774
0.0124338
0.0240268
0.000132254
0.0244601
0.0251377
0.023584
0.0241713
0.00507344
0.00205759
0.0011506
0.00585226
0.0235559
0.0151862
0.00585595
0.000720921
0.0088719
0.0228765
0.00120885
0.0015482
6.5221e-05
0.000704427
0.000280105
2.68784e-05
0.00196843
0.0068534
0.0226454
0.0101699
0.00258708
0.00823862
0.00240258
0.00549005
0.0226077
2.92675e-05
0.0132686
0.00788836
0.0057424
0.000444191
0.00962662
0.00901175
0.00082197
0.00165033
0.0218257
0.0180681
0.000452436
0.000549476
0.00242653
0.000324872
0.000975938
0.00667851
0.000131715
0.000454457
0.000857927
0.00583707
3.26836e-05
0.00221493
0.00442634
0.00649555
0.000765155
0.0013869
0.00030306
0.0233636
0.000364639
0.00584659
0.0161554
0.0016801
0.000368553
0.00114062
0.00139982
0.00960418
0.00125904
0.000307356
0.000968967
0.000437139
0.0117813
0.0228133
0.000414905
4.19211e-05
0.000593743
0.00143687
0.00694275
0.00860906
0.00618184
0.0186657
0.00506933
0.00583564
0.00116176
0.00872013
0.000122178
0.00059664
0.000200788
0.00583667
0.0202467
0.00436159
0.00217478
0.00586475
0.00096436
0.0186765
0.00082347
0.00314411
0.00320263
0.00039611
0.000402419
0.000183944
0.0173202
0.000292552
0.0120317
0.00585236
0.0110087
0.00116431
0.00773289
0.0105671
0.00583723
0.00586069
0.00416437
0.0027618
0.00696531
0.00106384
0.00252376
0.000645349
3.37783e-05
0.00583666
0.00215691
0.00369679
3.82682e-05
3.5651e-05
0.0183221
3.26829e-05
0.0190473
0.000543615
0.014032
0.000978838
0.00333782
0.00585397
0.0245389
0.000461533
0.00867169
0.00249169
0.000656563
0.00177898
0.00126368
0.0211936
0.00331746
0.0205396
0.00267114
0.0114331
0.000134989
0.000420142
0.00193978
0.00476597
0.000684031
0.000941146
3.86712e-05
0.00934785
3.93988e-05
0.00101294
0.0214344
0.000623055
0.0222347
0.0012142
0.0121028
2.93641e-05
0.0039256
0.0188999
0.000276427
0.00115662
0.00028669
0.00696185
0.00361087
0.00549403
0.0092851
0.00825409
0.00259242
0.00182632
0.000154181
0.000551173
0.00687267
0.000445118
3.02494e-05
0.000452368
0.000597582
0.000157038
0.00941008
0.0007893
0.00346344
0.00567274
3.6322e-05
0.00473202
0.000653262
0.00120347
0.00838853
0.00139711
0.00584795
0.000696349
0.0194362
0.0002758
0.0211814
0.00947624
0.00102968
0.000890602
3.66359e-05
0.0180346
0.00586664
0.000208375
0.0176798
0.0058479
0.0058522
0.00899506
0.00507191
0.00106352
0.00020898
6.08277e-05
0.00940581
0.0213767
0.000224589
0.0198354
0.00482759
0.00334347
4.02577e-05
0.00111978
0.00138179
0.00133656
3.76133e-05
0.000484894
3.87215e-05
0.0198273
0.00267988
0.00360671
0.0010714
0.000915134
0.000342839
0.00114128
0.00648285
0.00091768
0.0242424
0.00024073
0.0198125
0.00915876
3.85601e-05
0.00827703
0.00946738
0.000927659
0.00947017
0.0153693
0.000133111
0.000623717
0.00966086
0.0154791
0.0204278
0.00956776
0.00115034
0.000743699
0.000199384
0.00714174
0.00726483
0.00953295
0.00974008
0.00330584
0.0058364
0.00695761
0.000699275
0.0108432
0.00105764
0.00583583
0.00122098
4.01174e-05
0.0144218
0.0005093
0.00350735
5.93571e-05
3.46573e-05
0.000151605
0.00111405
0.00319587
0.00288382
0.00027412
0.00119167
3.71531e-05
0.0208681
0.00947701
0.0117558
0.00583282
0.000417286
0.00131809
0.000791729
0.00167364
0.00579337
0.000111281
0.00186916
0.00139272
0.00586357
0.0182841
0.00942968
0.0112411
0.00584004
0.000801193
0.00855128
0.0112598
0.00137507
0.000715182
0.00014146
0.000462956
0.000799909
0.000541767
0.000804701
0.000822668
0.0094746
0.00878193
0.00973627
7.23715e-05
0.00583561
0.00385706
0.0208516
0.00816089
0.00947857
0.000633097
0.00912363
0.023628
0.0218334
0.00329188
0.0121991
0.0107534
0.0108994
3.74123e-05
0.0177138
0.010024
0.00589944
0.0114997
0.0101259
0.00584492
0.0224485
0.0102218
0.0111267
0.0236324
0.0116622
0.00583861
4.63198e-05
0.00074129
0.000202868
0.00057065
0.00101623
0.00118753
0.0107092
0.0011197
0.0155067
0.00070548
0.00938928
0.0167551
0.000688061
0.00464513
0.0168285
0.00935951
0.00533088
0.0104293
0.0149987
0.00128016
0.00938101
0.00112345
0.022335
0.0226998
0.000998726
0.00224135
6.56264e-05
0.00535177
0.00108399
0.0165526
0.013976
0.024536
0.0234634
0.000287476
0.000249482
0.0244523
0.003501
0.000536833
0.00738029
0.000352974
0.000646735
0.0151634
0.0150334
0.00194915
0.000344178
0.0238223
0.0113351
0.0240914
0.00894799
0.000802585
0.0242029
0.0168975
0.000249793
0.000571562
7.16076e-05
0.00808503
0.000206571
0.00414078
0.00281506
0.0035807
0.0103999
0.000958423
0.00104171
0.000805389
0.00077665
0.000833001
0.00115991
0.00583656
0.0058362
0.00127833
2.59408e-05
0.0232114
0.00113196
3.70877e-05
0.00116965
0.000184212
8.46172e-05
0.000229327
0.0186078
0.00214493