/*--------------------------------*- C++ -*----------------------------------*\
| =========                 |                                                 |
| \\      /  F ield         | OpenFOAM: The Open Source CFD Toolbox           |
|  \\    /   O peration     | Version:  v2012                                 |
|   \\  /    A nd           | Website:  www.openfoam.com                      |
|    \\/     M anipulation  |                                                 |
\*---------------------------------------------------------------------------*/
FoamFile
{
    version     2.0;
    format      ascii;
    class       volScalarField;
    location    "100";
    object      omega_0;
}
// * * * * * * * * * * * * * * * * * * * * * * * * * * * * * * * * * * * * * //

dimensions      [0 0 -1 0 0 0 0];


internalField   nonuniform List<scalar> 
15335
(
6.48663
0.239672
6.45627
0.0403606
3.01435
0.0254588
0.114052
0.414418
0.0362854
4.52023
4.82934
0.0270026
3.1742
12.047
5.82579
6.72866
0.0289251
5.46708
0.024885
8.94639
2.76759
2.80672
0.11373
0.024951
0.215605
0.142671
15.289
0.144311
7.04715
0.0277642
17.0664
4.60499
0.0256605
0.02556
0.0253699
0.720346
0.634015
8.90701
5.11894
0.374857
0.190274
4.0591
0.0254241
0.0300732
6.51018
0.0251113
6.3112
3.44915
5.52623
0.0287261
0.0249592
4.91045
5.79292
0.0256762
0.0254547
0.103489
0.160739
4.99112
4.39703
4.82388
2.59954
3.34841
0.0464381
0.031294
0.0251856
0.0267842
5.43981
4.53774
0.0251285
0.0248275
0.0413476
0.0274791
0.216694
2.50564
5.14764
2.56962
0.195737
0.145067
10.3204
0.0256514
2.9987
13.7729
2.80894
0.215827
14.5245
0.0251472
0.0248717
0.029875
0.0275768
0.245368
3.21637
0.08131
0.0268707
3.81842
3.44722
0.027427
0.0251233
0.0408293
0.0250671
0.0256665
0.0254166
2.57769
1.23037
0.0656851
0.0262786
0.0359203
0.0254034
0.0408665
3.20732
0.0551045
2.74015
0.103925
0.025416
0.0270903
5.28702
0.0276012
0.0413215
3.80607
3.06388
2.91832
3.16623
3.68217
2.49972
3.5639
0.0254342
0.0254124
0.132472
0.0255662
0.0651482
0.0255129
2.62158
5.42066
0.025135
0.0691705
0.129874
0.0252202
2.84723
9.57082
0.046465
0.402418
0.0804287
0.248152
0.0614604
0.0288136
2.59853
16.5854
2.52887
5.2948
0.189261
2.80733
0.0281816
4.84263
0.0254121
0.0272572
2.40453
0.0256609
3.36231
6.52554
3.57275
6.7152
0.0256483
0.0345608
3.59593
0.0504447
4.88832
7.18506
5.38055
0.0249729
10.0688
8.38258
13.7342
4.16196
3.04864
0.0752899
0.159124
0.0256518
0.0256204
3.52789
19.587
3.6434
0.167176
7.39042
2.53363
0.0391435
0.039206
4.29822
0.0315293
0.0384099
2.52516
2.62655
7.06399
0.413721
0.0297915
0.18719
2.22212
8.88819
0.0254388
5.58055
0.0254443
3.83365
0.0404199
0.0679828
0.0489847
7.78663
5.28968
0.137058
0.0256312
0.0785231
0.0372366
0.0323976
0.075691
0.025408
2.38555
0.0274403
0.526435
0.081383
6.19762
4.72311
0.0881586
0.767427
0.0254308
0.025371
0.032774
0.0290909
0.224733
4.40221
0.0250902
22.2468
0.0496992
4.47131
0.0252125
0.025045
4.55041
0.687728
8.47912
0.0635144
0.188195
0.0872104
0.0256008
4.07272
2.94688
0.0554379
2.51858
0.0390465
5.14212
0.0251605
0.0262317
6.0378
3.13971
3.07732
6.85847
8.19591
0.0251159
0.0249715
0.0497418
8.34969
0.0809616
2.63655
0.0248095
0.148611
22.515
0.0256638
0.0250236
0.0254461
0.0251542
0.0247921
6.47832
5.07696
6.10167
0.0254669
6.09525
6.00143
6.28623
0.0252165
7.42274
0.0270891
0.0255859
0.1616
0.0306882
0.0491523
20.8377
2.59905
0.0251085
0.0804424
0.0290285
2.93444
3.25818
0.0285021
0.0266405
0.0258114
6.60835
0.0269281
0.0675378
0.245783
0.0291181
17.6239
0.0250347
0.179972
0.0253693
2.63269
0.0254394
3.01414
0.144464
4.15762
0.0252562
9.35164
5.37586
0.0256052
5.3692
0.0293682
2.65573
0.0252007
0.216963
3.63938
5.46657
0.0254206
0.0255642
3.57409
3.89089
0.558466
0.46308
0.0251622
17.8588
3.55872
0.0362824
2.40517
2.65231
4.4927
0.0285359
0.0280739
0.0256536
0.141049
0.0261573
0.23872
0.0742975
1.29954
0.0517221
5.04046
13.1388
5.51282
0.103467
0.122242
0.0254313
0.12108
0.0315699
0.0290964
0.0255663
0.377397
0.0250558
3.03469
2.56562
2.64719
0.0276672
14.1451
5.32745
0.0253685
0.0371856
0.044582
0.0501809
0.0918693
0.0284056
0.0605824
0.0289984
5.8114
0.0365703
6.50615
3.18227
0.059821
0.0278864
0.0251987
4.12425
0.0292411
0.0448262
4.91575
0.0254213
3.37017
5.41635
0.0291794
1.20322
2.39168
0.0254231
0.0290117
2.77837
5.55769
0.0319624
0.0251971
0.107132
0.0770299
0.218266
7.07603
0.0254191
0.0271816
0.0251977
0.21564
5.27731
0.232256
0.375708
0.0312456
0.0664728
2.83272
0.0890424
0.0917364
3.59594
0.0282826
0.0263407
0.0900055
8.44138
30.1958
0.732679
0.220185
0.216337
0.0352683
5.27337
2.6662
0.196999
3.7605
3.31405
0.0274471
0.966409
0.0607281
0.0339264
5.28502
3.55388
0.025109
0.207357
4.30302
0.120619
3.87345
0.028933
19.4821
3.51761
4.29431
7.61424
3.65549
4.60818
0.196541
2.92203
6.17469
0.0248178
0.0254656
3.89534
2.64579
0.0253401
0.229898
0.0487173
0.0699709
9.80992
0.122644
0.0879762
8.38609
7.095
5.71388
0.0656674
0.0286815
3.46181
3.30732
0.0254527
2.75451
2.50064
0.0872016
2.99784
0.693157
0.324067
2.88103
0.0492923
0.0351641
0.0306461
0.025446
0.0828042
3.65983
0.190815
0.201423
5.71592
0.025417
0.0256394
0.0252092
2.80859
5.27004
2.642
3.11435
0.207998
1.39711
0.0329145
2.87426
0.0264883
0.0251266
0.0256521
3.67537
0.0253045
2.53224
0.0248626
0.0264827
0.0251143
4.32981
1.3479
0.0256611
0.0312261
0.103246
0.0342962
0.0315449
4.04511
0.0288768
0.198647
0.0267018
6.28599
0.0265142
0.0252766
6.62098
0.0263526
0.0459202
8.44761
0.025192
0.0256515
5.33983
0.699188
2.39253
0.0270727
0.0373671
0.025634
19.6891
4.79011
0.0256524
2.63383
4.71123
2.52157
2.57413
0.0255335
3.72925
3.60376
2.82923
5.18406
0.0331445
3.41879
0.0688049
3.30868
0.239144
2.70633
18.5497
2.64929
2.53472
2.65648
0.0733451
0.0264243
0.0291559
0.0444271
0.0253989
0.265508
0.0940684
8.60614
0.108507
0.0793913
0.995113
3.09811
3.45731
2.35914
0.214684
0.390463
0.0256563
0.0287311
0.0248133
0.0377748
3.16349
0.0255689
0.0327519
0.0971061
1.04338
6.41335
3.55273
0.223764
5.20212
0.0253732
0.0260989
0.0256486
0.0380586
4.59782
0.0459406
0.648458
0.0252681
0.0402268
3.1341
0.0251014
0.054293
3.3517
5.69413
5.34778
0.0254244
0.0285324
0.0276084
5.73541
8.05604
0.0375485
0.0248558
0.0252314
0.0256366
3.41177
0.136333
3.15169
2.68024
0.0268662
0.316308
0.0298887
0.0273283
4.33196
0.0254076
0.031389
2.55119
0.0251226
8.1311
4.81256
0.0465583
1.06376
4.79354
3.6526
0.0406964
3.48607
0.141961
0.0289489
0.0255587
0.0441734
0.0869502
4.3065
0.0432542
0.0256356
31.6991
0.0254468
0.028911
2.97813
0.104528
0.100541
6.20266
0.0329808
0.0254191
0.0251613
0.0355812
0.0256347
3.45541
0.0264986
0.0778097
2.98883
0.0249613
0.0280124
3.13295
0.0358699
0.146611
4.61244
0.0258241
0.217347
0.0255662
2.89138
0.379087
4.74841
0.200881
3.07677
2.64413
0.0683585
6.28546
0.0248571
0.0886123
0.157338
5.60895
0.0265624
6.63371
0.0254274
8.44471
0.0302676
0.533334
0.0250949
0.0255548
0.19212
0.194851
0.0254593
0.0344802
0.0254925
0.401594
3.36363
0.0371776
5.27692
13.7263
2.5502
0.0255763
3.57479
0.0263639
0.0250321
0.163742
0.0325215
0.0285798
2.85237
0.0308725
0.0358099
0.0357114
0.0254823
0.0249552
2.82684
8.19336
0.0250601
0.02504
0.146328
0.0251453
6.67284
0.053129
3.35265
5.05396
0.0253296
0.0499505
2.64401
0.0612336
0.0256632
0.0694032
0.0409697
0.025415
16.1652
2.86052
0.0392489
6.58429
2.70226
0.0386294
0.0254981
4.1606
0.0254917
0.0283936
0.121699
0.0255955
0.0256482
0.168312
2.1279
11.8893
2.64999
3.45056
0.0255694
2.59094
24.417
0.0435594
4.51153
1.99475
0.228596
0.229824
0.0600178
2.69956
0.0421422
7.09907
0.0693711
0.0370974
0.141289
0.18772
2.26528
0.026001
0.0806346
3.12301
0.0323051
0.0310786
2.37648
4.31819
4.58292
0.0255653
2.78772
2.6238
2.78817
5.36344
0.0256035
0.0315192
0.312891
5.74048
4.60085
0.0347993
2.67099
0.025182
0.701625
0.03436
0.0286072
6.00262
0.0251014
2.67678
0.0331509
0.0827094
0.0314892
0.0344974
11.1306
0.0255673
0.0253425
5.04816
6.84383
0.0329424
0.0251663
0.0312896
5.61752
0.0801191
17.4326
5.10483
0.0329137
0.0256257
4.38396
0.150118
2.68694
0.0322542
0.0373266
0.0802375
0.0254348
0.0250797
0.0345001
3.63297
0.149912
0.120631
0.0250858
6.69464
3.38917
0.0255384
0.0253908
0.033829
0.0254198
5.13836
0.70776
0.0253953
0.0254012
0.0255779
0.0255311
0.0254385
0.0248712
5.53273
0.0532053
0.0383235
5.16966
0.0255578
0.026873
0.0270629
8.75765
2.57853
2.81104
0.0322184
0.025586
4.17879
0.0255141
2.3814
0.0298344
0.0834907
3.81619
2.99873
0.0254615
0.0248904
5.36767
2.87997
0.0316622
0.0361102
0.0248669
0.220777
0.034709
0.0319431
0.0271699
0.0248419
3.16094
0.0341457
0.0250371
3.37423
4.11308
20.6496
6.78976
0.0868727
0.0249303
7.16682
0.167758
3.49008
0.034332
0.0359385
0.081949
0.034753
4.06093
1.26068
0.025245
0.0682334
0.0800277
0.02548
4.08268
0.026525
0.0276427
3.73699
3.69717
0.0254786
2.39805
8.16398
0.0254287
0.0260152
0.181876
2.94364
0.157067
0.0250592
0.0508495
0.042068
3.10137
2.56936
5.16154
0.0778908
0.025598
2.79311
0.0272474
0.0525123
0.0266387
3.04794
1.52794
0.0265382
0.0253643
0.0328837
6.51792
16.1456
0.0254509
0.0254415
2.77956
0.0252837
0.585397
0.663754
0.0250579
0.025306
3.28967
0.0305779
3.77203
29.7056
0.0256093
0.0281964
0.122795
0.027858
0.0699619
0.120423
0.0426512
0.0253985
0.025062
2.54
0.0336232
0.0254465
2.55279
3.02885
0.0254736
0.850378
0.0252584
0.0282428
0.0255247
4.20531
2.74781
0.0255425
0.0259127
3.98199
0.0288206
0.0922893
0.0263473
0.0540877
0.0254889
0.0416618
0.0254466
1.78463
2.62083
0.026415
0.0380573
2.54328
0.0278937
2.68277
5.04238
0.0358477
0.0255061
4.22972
0.453543
0.0253938
0.214315
0.0255196
0.687679
4.52043
0.0256356
3.72818
0.0253899
4.32451
0.161957
3.35476
0.0387868
5.84778
0.024938
3.54366
0.0254429
0.0290485
4.43114
2.377
0.0501159
5.37922
3.97568
0.527627
6.07226
4.11797
0.0332289
3.83314
7.47982
0.0274646
0.376712
0.216332
0.0251226
0.0479282
0.0478605
0.0433047
4.61525
0.445434
0.0255875
0.655083
0.0254227
0.47949
0.025432
2.56687
0.0251585
6.05671
2.66984
0.203337
0.176304
2.9192
0.0420383
0.0250458
0.0723618
15.6406
0.138726
0.025209
0.0522654
0.026066
0.0407409
0.10034
3.50713
4.36217
0.0256624
3.28455
0.0434986
0.189274
3.60597
3.65959
0.443383
0.0252167
0.0863067
4.98272
0.0277613
19.0873
0.0252507
0.0254973
0.0253971
0.0254243
0.0293686
0.466749
0.0340495
5.07897
0.0313327
0.0254488
0.0254658
2.70696
2.66215
0.0263637
0.0869653
5.90178
9.41041
3.85839
0.0364171
0.086144
7.05406
0.0253057
0.0272781
1.25489
0.0251589
5.7499
0.0251285
0.0253631
5.49028
0.041846
0.235252
2.4786
0.0329817
0.024955
0.0256713
0.0359776
2.56419
12.4262
3.5268
0.0248238
0.0254013
0.0269175
0.0255999
0.0274205
0.0254933
0.0250399
0.0254576
0.0713777
0.025112
0.0255833
3.50613
2.66732
0.0277891
2.63685
0.0257301
0.028099
4.25416
0.522575
0.0296509
2.57709
5.72885
0.413576
0.025082
2.66086
7.4281
0.0556826
2.90354
2.57684
2.63332
2.06003
0.038666
0.034958
2.50146
0.183063
0.0265377
0.0250596
2.83964
0.0792804
3.10964
0.0256032
0.0255682
2.83558
0.0632964
3.9648
0.0447618
0.0254363
0.228343
5.0119
0.0279758
1.03026
3.37768
0.461512
14.5591
0.0260515
0.0344714
0.0786028
4.25302
0.155246
2.97036
0.0255584
0.142226
2.40521
10.7489
0.025259
0.0254195
0.260946
0.0727638
0.0256334
6.70564
0.02751
0.0253941
0.0246618
2.71056
7.85337
2.83596
0.0256651
0.0256285
0.331124
0.436962
0.114618
0.61205
0.067727
0.0354324
0.0251841
2.66171
0.384016
3.62795
4.88782
0.0519603
0.592504
0.0345124
4.16102
0.0464545
3.26245
3.90051
0.0256902
0.0529946
0.0901288
2.97331
0.0266884
0.0255327
3.45738
0.0384801
3.78634
2.72252
5.10855
0.0331821
3.48199
3.18223
0.0406461
2.45756
3.50229
0.026066
5.37613
6.04846
0.746577
4.24136
2.64794
0.0257007
5.77735
0.047151
9.23927
0.0884518
2.55358
0.25278
0.518556
0.0309014
0.0254206
0.0252894
0.0256409
0.0256818
6.02501
0.209401
0.02506
0.02545
3.63522
0.0249157
14.7492
2.72373
14.6601
0.202359
0.025412
4.04913
0.0256913
5.77363
0.0251169
2.74801
6.55469
0.231536
2.47571
0.0272616
3.47556
2.77817
6.78875
2.68244
16.428
2.57886
2.73706
5.52146
0.0338305
3.76986
0.0259166
0.0256373
0.12307
3.18134
2.61104
0.0255229
0.0259823
0.0250217
0.0796052
0.179634
0.0351261
0.0252893
0.858282
0.0379496
0.0251372
0.0251867
0.0662979
1.45661
3.53578
0.025535
0.453401
0.0251277
0.0316846
4.55112
0.0253673
2.60111
4.08433
0.0358124
0.0454179
0.0466231
0.0254885
0.025606
0.404275
0.223502
0.0492795
0.0247351
0.0381726
8.19175
6.9305
16.0308
0.0263641
0.0295137
0.228493
0.0537795
2.39528
0.0256261
0.025087
0.0576855
3.5148
0.0348213
2.76024
0.123495
0.0341884
0.0260834
0.0251816
0.13189
0.0259691
0.0266702
0.439738
0.0253524
2.69288
0.0254204
0.0255004
0.0294937
0.0256272
3.5832
8.38458
7.25008
7.46728
5.56585
0.0812297
0.0664408
0.0282572
5.51878
0.501702
0.0252595
5.45956
4.28839
2.3339
4.06641
3.56452
2.5467
0.0256385
0.545024
6.14855
0.222606
0.028029
3.38572
0.0500952
0.0291078
0.0508976
0.0303572
2.76442
2.5383
15.3642
3.52131
0.086969
2.44381
5.89905
0.163652
0.0923585
0.025611
5.88789
0.0256218
2.62399
6.01386
4.69192
3.44864
0.0670415
0.298017
0.0250822
4.26069
0.0491957
0.0286154
2.90722
0.0250794
0.155974
0.0255922
5.48395
6.52737
0.0252728
0.0332091
5.59596
0.031652
0.797413
0.0355972
0.124805
0.0250777
0.04917
0.0254245
0.0326027
3.32195
2.69141
23.2637
3.59515
5.43688
0.0263651
2.52557
0.0254876
0.0316417
0.0847733
2.64989
6.75396
2.45431
0.0252334
12.1773
0.0673898
0.0252441
0.0254148
4.53435
8.3632
1.71986
0.0485279
7.06569
6.14421
0.0254177
2.96658
3.60728
0.0322016
3.85978
0.846221
0.183809
2.9056
3.4165
0.0254234
0.0256252
0.032492
0.0252761
4.66919
0.0256548
7.08104
0.0251535
3.34862
0.0423907
2.44093
3.65507
0.048368
2.66161
0.025668
1.94382
5.62472
3.08556
0.0309777
0.0254224
4.08953
3.96741
3.33884
0.0747524
0.0255472
0.0313073
9.18201
3.50022
0.0267111
0.0514862
5.92361
0.0254481
5.80209
0.0690778
3.9524
0.164253
0.444833
2.60793
0.0352771
0.0925073
4.0861
0.0252514
3.48798
0.0502237
2.67788
0.0293988
3.03082
0.0273743
0.0783952
0.0290861
4.18196
0.0299202
7.68361
0.0332149
3.97352
0.0321155
0.0511532
0.122259
6.57874
7.50431
2.09836
0.0473254
2.76003
0.038723
0.0341448
0.0250867
2.43287
0.0256876
3.23917
0.034214
0.0314553
2.58385
0.0254209
0.0247913
0.0256593
3.58004
0.0257027
3.37398
0.0330421
15.7012
2.70157
0.147352
0.0254546
3.81786
0.032756
0.0286659
0.0254802
3.24451
0.0254942
0.325947
0.0253353
5.57103
2.71875
0.0294259
3.57874
3.47617
3.02588
0.0308972
5.75611
0.0623406
8.06065
0.0301922
0.0277124
0.221765
2.8372
0.0254102
7.55964
0.330763
0.0283778
1.03025
0.0267566
0.0883359
0.0283301
0.0250179
0.0302714
0.0272421
0.128507
0.0254765
0.0419334
0.128405
7.89279
0.046575
3.14644
0.0753322
0.025466
0.0830233
1.04836
0.0250245
0.0795336
0.0254703
3.37922
0.0322135
1.92629
0.0255089
0.501308
0.0254197
0.0383447
5.99798
4.44029
6.73071
3.02859
0.182344
0.0526249
0.0259102
0.0466577
3.79327
17.4545
4.11247
4.75241
0.0253507
2.75146
0.0254229
0.028752
0.0285213
0.104763
0.0257782
3.47043
1.88796
0.108777
5.22789
0.0771995
3.14364
0.112991
0.0288297
0.0256289
0.0256916
0.0294799
0.0304143
0.0750146
0.0610582
0.0255556
0.0256562
3.16405
0.111303
2.70223
4.73598
6.71698
9.24194
0.0408675
0.0444254
5.27529
0.0317411
0.0254847
0.030629
0.104378
0.0263922
3.3666
0.0710736
7.12066
0.0254863
0.0714284
3.51041
0.0322083
0.134899
0.0255048
0.0278268
4.01445
2.99201
2.59794
0.0335422
0.0251549
3.53757
0.025448
2.60136
2.73642
0.0350097
4.55963
0.0314266
0.0884167
0.0283824
0.0257874
0.0294739
9.88963
7.55196
0.0254293
0.104585
1.0965
0.0251226
0.0249869
0.0499592
3.9973
2.55619
3.61929
0.0281766
0.0258914
0.0631853
0.756734
2.79073
0.0470912
0.0255931
0.02679
0.177269
0.0349424
2.76999
2.33631
0.0256377
5.82065
0.0256498
7.76373
0.0585437
0.0439267
3.09958
0.0362118
4.37791
0.0465236
0.291616
0.504616
0.0318317
0.0252356
0.0257299
0.0482323
3.48219
0.048244
4.47047
0.0271401
0.0256805
0.0320614
2.73402
0.0259943
0.0793417
3.81317
2.63708
3.67729
2.51033
0.0258889
0.0524356
0.0823176
0.0248404
0.0255455
0.0564701
0.0262219
0.108024
0.0704833
0.0254065
0.0950338
6.86252
0.0256795
2.62689
0.025371
0.0254543
0.027037
0.0901626
4.82068
5.77834
0.0382596
0.0288792
0.0323308
0.0256271
3.64193
0.0327576
6.58726
4.68527
5.21791
0.077739
0.0802756
0.0257505
7.78892
0.134568
4.66751
3.4867
0.180989
0.0268086
3.02531
9.77495
0.355841
0.470511
6.24729
3.5397
2.58906
0.0508073
2.62079
0.033355
3.04121
2.66579
0.0792774
0.0254557
0.252668
3.60924
0.027312
0.025744
11.1207
0.0254733
0.355692
2.39182
0.111632
0.53828
0.0821212
0.0254636
0.0628226
4.00144
0.0254944
3.47402
0.551362
2.26684
0.0274313
6.29255
0.0253525
5.17158
0.0259266
2.5509
0.0259182
0.0396982
0.0252107
3.12061
0.395613
2.95515
3.6018
0.140935
0.0255666
0.657079
4.7465
8.34421
5.0205
11.712
0.0255666
0.025164
0.363543
0.0254217
5.92114
2.52128
0.163951
2.87148
3.0352
0.0302412
4.21456
0.0280161
0.121888
8.57024
0.027942
0.0352838
0.12333
0.027106
0.0251792
0.025767
0.0499144
0.0250893
0.0261196
1.05627
0.0254432
0.0253943
0.0343005
0.0254013
0.0387144
0.025654
2.53667
2.61031
3.08597
0.0250041
0.502595
0.957238
0.0254669
3.39131
0.0375249
0.0323045
0.0407605
0.0359743
2.69386
12.1149
0.0412136
0.0260262
6.11031
0.118428
2.66411
0.0275622
2.51414
3.65489
3.24817
6.04871
0.0254598
3.65051
7.52236
0.0258814
0.0444377
0.026232
0.0294031
2.82398
7.94536
35.65
0.0251355
22.0047
0.0491348
0.557471
0.0851103
0.0250457
0.0254759
0.0395678
0.0281948
3.84236
0.0389125
4.33178
4.10443
0.0255091
0.0509098
0.0256525
6.39141
0.0473097
4.58745
0.479113
0.0251446
0.0253479
0.0516877
2.63125
4.19125
0.0545817
8.29646
0.0254716
1.11334
0.0689055
0.0250701
0.0247785
0.0404451
0.0255178
2.65459
0.0987001
0.0248734
0.0263537
3.05652
0.0250083
6.63551
0.0465632
0.0521953
2.35094
0.0253614
0.0444022
0.0251512
2.44618
0.025786
0.0309093
0.0282152
0.0489974
0.024693
5.26444
2.84369
0.0329139
0.0256625
6.6999
2.76944
0.238456
2.51916
0.0496145
0.0255983
0.0253796
0.145248
0.141695
1.10026
0.143377
0.0408054
0.0442659
3.26607
0.0255732
2.41128
0.027169
0.0810557
0.0254208
0.0252936
0.0273559
0.0262546
0.105765
0.031214
1.66888
0.226774
3.16614
2.92618
0.0267416
0.0288955
0.025293
6.86402
0.0256656
0.0725823
0.0251861
0.0411716
0.0590337
3.50938
2.54766
2.56199
3.07829
0.0265375
0.0714712
0.916221
4.67155
0.0914767
0.0254787
0.03605
2.48672
0.0263567
0.0326215
0.0252989
0.0679367
0.0302207
4.37165
0.0273999
0.025474
2.73064
3.03782
0.171047
0.0254555
0.0254486
0.062897
2.76398
0.0506192
0.373424
0.0293662
0.0311581
0.686194
0.049193
0.030141
3.56981
7.15665
0.139071
3.14073
3.89684
1.8548
2.50856
0.0918706
2.75915
14.4159
0.0445635
0.331364
0.0253497
0.0294595
6.89537
0.088173
2.5266
0.0256255
5.72522
0.271908
2.61038
0.0973049
0.0819982
0.0260194
4.12553
6.70913
0.0493544
5.38754
0.0344884
0.0260486
5.79355
0.0668968
2.84758
0.0615261
2.28903
2.60902
6.74137
0.0498566
3.26285
0.0251616
0.0260544
0.112265
0.0270975
0.0258821
0.0363941
0.0425612
0.157154
0.21441
10.8935
6.3912
0.0661614
0.0254215
4.59659
0.0357031
0.025426
2.70371
1.93788
0.025342
0.0251302
0.0311987
0.158115
0.0491457
5.86004
1.13973
0.271134
0.0277883
3.7137
0.0262458
0.0402816
2.94901
0.0254028
0.379163
0.0819759
0.0253749
0.516829
2.63042
0.0275907
0.0249046
0.0318684
0.0253917
0.0274818
5.25006
0.0252617
0.139472
3.59034
0.0253459
2.60458
0.0262807
3.38718
0.517433
4.10445
6.04953
3.88584
0.055891
3.43527
0.0252392
6.07715
0.0259791
0.0779872
0.765808
0.0394406
3.74582
0.0332246
1.20852
7.07214
0.0256757
0.269501
3.61726
0.0255581
2.97181
0.028489
2.69434
1.54555
0.595431
0.0513078
3.37766
2.38573
0.0717692
0.126171
0.0259298
0.108516
14.0812
4.8761
0.0817768
0.0254767
0.0622872
1.03469
0.0261433
4.35795
0.025291
0.0441183
0.0929105
2.64118
0.0253034
0.0254862
0.0346781
8.08654
0.0248363
0.0256523
0.747589
0.0253495
0.0819491
0.106182
0.0474401
2.63942
0.228974
3.37362
2.78993
0.0805165
0.185277
3.67279
0.0276344
0.0274632
0.067745
0.0253441
7.26901
1.65398
0.0264076
0.0258086
3.01964
2.70445
3.79702
0.258392
0.0252417
2.84787
2.52905
0.0259131
2.71836
3.87232
3.55228
18.0378
0.0253293
0.0283579
0.0254216
0.0302483
0.0275431
0.0256249
0.0943267
0.0535475
2.62874
0.0265753
0.0524527
0.0249962
0.0256447
4.30457
0.0313098
8.85083
4.13826
0.0327108
0.0251821
0.110345
2.03046
3.51183
0.0357965
3.86132
0.105229
3.54539
0.028102
0.0474056
2.91945
0.0253576
3.59229
0.212611
3.37433
2.6145
3.40551
0.0256856
2.61383
0.0658886
3.4268
8.04533
2.75939
8.885
0.420247
0.147822
2.65877
0.0256827
3.64619
5.99643
2.70814
3.47698
3.7155
0.0279798
3.01396
0.0412163
0.0429746
0.0396752
2.55773
0.0254987
1.97961
0.0254185
0.0594952
1.96249
0.0254234
2.65299
3.6128
0.0251191
0.0250341
0.0251977
2.53218
6.23436
0.0296746
0.1193
0.028925
3.33434
2.62474
2.4634
3.36569
0.0439668
4.01931
2.6303
7.47348
0.0354471
4.55964
4.8657
3.50635
0.0248829
2.45052
0.0792812
3.36698
3.21304
0.0259417
0.0255129
0.0906124
0.0251942
3.35727
0.025275
2.61466
0.0264809
3.78035
3.75177
3.90016
0.29047
5.31613
0.0287394
0.026
0.0624168
3.87724
0.0254315
0.0752615
3.90762
3.38123
7.16147
3.62155
0.02929
0.0745443
3.50888
2.5776
20.2317
3.30219
2.86061
2.64666
2.77594
4.12995
0.0257227
0.0274318
0.0252932
3.11443
3.15438
0.0252104
0.032633
3.61358
2.82355
0.192091
6.68261
3.46625
0.164442
0.787358
1.00748
0.025762
3.95236
2.53485
2.9487
0.0262766
3.76478
0.0271825
3.53143
2.50426
1.49602
2.95021
3.22283
3.56091
0.239649
3.38537
3.05491
5.31938
0.0259394
2.69872
2.63667
0.0300345
0.0932392
0.026152
0.0361922
0.0266629
4.04754
0.130979
0.0313489
0.0746469
0.0254531
0.654534
5.99448
3.37188
4.15209
0.162115
0.0277992
0.0719938
2.64156
0.0348097
0.0253126
3.08321
2.8975
0.224594
3.32654
0.0281129
3.45735
0.0312262
0.0685535
0.0294064
0.0313888
7.11423
2.68246
0.102433
2.57681
0.138575
0.0283706
10.3308
3.65827
4.33505
3.99532
0.0252716
0.0255444
0.0628509
3.6451
0.0920048
0.0337002
0.141363
0.0256315
2.90779
0.0253046
0.0255608
0.0248826
0.0274841
3.76402
0.080828
0.0254288
0.0262512
0.0449447
0.100596
0.125469
2.99078
0.0355788
6.53001
0.0255208
6.47828
0.049304
3.84985
5.15617
0.0256082
0.0248298
0.0253131
0.0254431
5.73397
0.0280452
0.0268718
6.45916
0.907159
0.0256912
0.0266729
0.0254289
0.337539
0.594279
2.9238
2.30265
2.61955
0.0613735
5.6398
3.10874
0.0254252
0.0251565
2.74704
0.170154
3.78467
0.0255058
3.65843
9.57094
0.182419
2.78519
5.88503
3.27702
0.0258789
3.35862
0.216157
0.0397029
0.0291533
0.0252845
0.374001
0.158556
1.05171
3.14684
1.61114
0.0290232
2.70901
0.0294773
2.48744
0.0269162
3.02131
0.830631
14.2802
2.89435
0.0463686
0.0340596
0.0378411
3.48596
0.0256475
4.73802
3.12275
3.50815
7.43659
0.0305642
0.0699044
0.136343
5.90696
0.03077
0.573137
0.048616
0.0301187
0.148459
3.20782
0.0394088
5.8123
3.23674
0.641596
0.0252705
0.188063
0.0268998
3.48999
0.0261071
0.024796
0.0333551
2.8687
0.0376763
3.61224
3.83514
0.18714
0.0535143
1.51492
2.63094
0.0251914
0.136266
3.45917
0.0249068
0.0254075
3.35219
4.285
0.0264048
0.0414014
0.117861
3.17354
2.66897
0.0431985
2.54027
4.9595
0.0256536
2.14775
0.0290848
6.88456
0.168678
0.729823
0.0427274
1.82243
2.3693
0.0254809
0.0258692
0.0289126
0.10262
0.036177
0.0297902
4.05286
0.257939
2.70503
0.0389399
2.67431
3.33875
0.438982
3.71294
3.24969
0.0268563
3.2177
4.13863
0.27989
0.14458
3.26791
4.92212
2.8288
3.27741
0.0598256
0.0353234
0.21728
3.69802
4.04035
3.28642
7.47514
5.61355
0.0256699
3.51692
0.0670613
5.35423
0.0313251
0.0252084
0.173344
1.30745
5.81965
0.375821
4.83814
0.125276
1.08766
0.0477753
0.0306821
0.0260699
0.0257407
0.0590164
0.175813
0.847635
2.81534
3.33607
3.13283
0.025396
0.0340685
0.0324421
0.0377265
0.0258614
4.29786
0.0658831
3.23193
20.0834
0.0252384
3.62251
3.28545
3.08928
0.0251826
0.106851
3.64474
5.56872
0.0501082
0.0362102
0.249221
0.0490764
0.117066
0.141088
0.0364164
0.073821
3.36624
3.62351
3.42872
0.10101
0.0256373
0.0253774
2.59493
3.77194
3.31379
0.029959
3.47592
2.54084
2.79233
0.0259457
3.06693
3.25023
3.23558
0.440111
3.93154
3.37988
0.0250955
3.15333
3.34589
0.0253179
2.77732
3.34464
3.20429
2.57249
3.135
0.025302
0.387137
0.146925
0.321639
0.126037
0.160094
0.0306691
6.64802
0.112691
2.67764
0.146621
3.37182
3.97043
0.146482
4.9163
4.92863
3.50265
0.0252293
3.30468
5.05683
0.119228
3.3977
0.0286258
2.56059
3.59874
0.0569768
3.81907
0.130755
0.0253388
0.0308096
4.04723
4.87619
2.69544
2.75844
0.161
0.0448294
2.70094
0.0255546
0.0296097
8.10809
0.034725
0.0654937
4.63445
4.6969
0.026135
16.3369
2.74026
3.16887
2.72267
3.54295
0.0276865
2.71615
4.47007
0.062436
0.0289119
0.210678
3.15669
0.0524619
3.64122
3.71477
0.0259521
5.11079
0.054651
0.0552588
0.0272459
0.0402455
0.0389234
0.0607497
0.0256889
0.0256522
0.0315245
0.743718
2.61648
0.0558865
0.531627
0.0600793
0.0581113
0.0848162
13.188
2.62897
0.0257292
2.25687
0.402182
0.12201
0.0529455
0.663219
2.62409
0.0265812
0.0254892
0.123264
3.7762
6.08241
1.70693
3.50196
0.0769871
4.3192
0.0254575
2.88987
0.0447426
0.0277939
0.124315
11.1944
4.0553
8.04198
0.409075
0.0411536
0.0266272
0.0247488
0.041641
0.0255794
0.182182
1.78122
0.0345415
2.95627
6.58662
7.85025
0.034221
0.0626767
2.82037
0.0488419
0.0560039
0.0247521
3.33495
0.0604353
0.430691
0.0429307
2.94533
2.52675
2.52709
5.46777
0.0432966
0.0569572
0.0444586
0.0255707
3.82691
1.67549
0.0898231
0.0301569
0.0302284
0.107462
3.06956
0.0253455
0.427418
2.61407
0.0268803
0.173878
0.0537213
0.0251399
0.152492
4.94199
0.164614
0.0262583
0.0996434
0.0727481
3.39981
0.0393937
3.25208
0.0823052
1.34508
0.0752121
2.85316
2.93494
0.40914
0.122925
0.0361982
0.0273177
0.081914
2.25112
0.105836
6.33343
0.0466042
0.451881
0.0437674
0.191034
0.336867
0.133858
0.0260727
3.95535
0.0250807
0.0747709
0.0320395
0.881586
0.0251732
0.047861
0.0254678
0.0318038
2.8712
0.0264702
0.0254769
0.609668
0.0254137
0.160979
0.0259735
0.0253853
3.63168
4.37424
0.0256655
0.0595302
0.177553
0.0628103
0.120336
0.0444758
0.0611133
4.58118
0.05117
16.4818
5.49995
0.0258076
0.197372
0.0251735
0.0254907
0.0487361
0.124918
3.35104
0.472341
0.115754
0.091853
3.20468
0.0324047
2.70093
6.81271
0.0291166
0.0400573
8.94213
2.57724
0.0256913
0.880292
0.0257488
0.0287525
9.5084
0.0252703
0.0919891
3.24441
3.35246
2.81497
0.118966
11.7946
0.0637105
5.23461
0.505506
0.0414342
0.518388
8.2151
0.416808
3.85066
6.09954
0.0261558
2.71405
0.0248481
0.1852
6.94465
0.0254099
3.95511
0.0258416
0.0253639
0.060856
0.188653
0.0248348
6.70958
0.088239
0.025665
0.0248701
0.0280697
0.0309787
3.66376
3.54116
10.9614
0.13739
5.95071
3.69703
0.0265628
0.105877
4.02983
0.461271
3.71397
3.42566
0.0249478
2.57095
2.75384
3.5911
1.76946
0.0370128
0.0253107
0.0350705
0.402488
0.0249922
0.0250739
4.89807
2.43278
3.57316
0.17492
0.0267315
3.5323
3.46951
0.0260323
7.17627
2.65518
0.0355237
0.0455955
0.0571064
3.57595
2.6742
1.82303
0.0700032
0.0330363
1.34637
0.0332708
0.122604
0.0292525
0.0955683
0.03565
0.0254303
7.44593
3.10733
0.027974
0.162977
0.0596223
0.0253071
5.52063
0.663076
3.83921
2.85691
0.0866763
3.27628
0.145148
4.73689
5.85996
0.267248
1.2407
3.00838
0.0270789
0.0451673
0.025509
0.025339
3.48345
6.25761
0.101785
0.0257666
0.0675148
7.93001
0.0252526
0.068039
0.0264653
0.0635847
7.78505
0.0273079
2.63462
0.0841167
6.64157
0.0518908
6.3281
2.67398
0.0562613
0.0272492
0.103006
0.205744
0.37353
3.60149
0.0612385
0.404513
0.304029
0.0581019
0.0306724
3.04559
0.123487
3.60907
0.0464201
0.0717932
0.0830696
0.0292527
11.736
3.42642
0.215791
0.167302
2.96385
0.0254408
0.105619
0.0252856
0.0295277
0.0282891
0.024717
0.0273782
3.4251
0.191395
0.457587
0.0263638
0.0261886
0.0497954
2.89848
0.0723522
0.0453158
0.0255807
4.01594
0.0255011
0.332859
0.645797
0.0252261
0.0267094
0.0276214
0.0865078
2.61074
0.0255581
4.45356
0.0277688
0.247084
0.16631
0.0261407
3.83348
0.0272236
0.0251202
7.35354
3.25556
0.0328058
0.239244
0.0266015
3.17612
0.025149
0.102238
24.0238
0.42691
0.108696
0.492936
0.0254593
2.49775
0.109064
3.37488
0.0250299
0.0892407
0.0820018
0.0254914
0.0296752
0.0248532
0.0323109
0.0272282
0.0506589
0.025295
0.173154
2.69606
4.00428
0.0250035
0.087678
0.164839
0.0617217
0.0422084
0.0267684
0.0294468
0.0254468
0.0251499
0.062719
0.02909
0.0933933
0.077359
0.0254898
0.468547
0.0279471
0.0277023
2.78412
2.8117
0.115658
0.0252478
9.65276
22.0424
3.45977
0.0459631
0.0315922
0.189018
5.58763
0.0250801
6.40433
0.0250468
0.0256269
0.0755075
0.0294014
0.042872
0.0256385
3.53222
0.0432936
0.0278027
3.13803
0.265685
12.8373
2.35671
0.167419
0.107948
0.0254116
0.029796
0.0255714
0.025331
2.64854
0.0750861
0.298946
0.0254876
3.69447
0.0300574
0.10909
2.14206
2.94443
1.12146
0.075216
0.0255533
2.36517
0.0256127
0.0268963
0.0254118
0.127766
3.10157
0.0273908
3.03336
0.0655761
0.0256678
0.190679
0.112625
6.88512
0.0252592
0.359427
4.5955
4.15311
3.34046
0.0273242
0.0254155
6.91813
3.05662
0.0342421
0.0254655
0.0256247
0.15916
2.46598
0.287411
0.0258828
5.05498
0.0278886
0.0369877
3.70491
0.0394526
0.0256277
0.0286279
0.0347387
0.123896
0.0267881
2.78285
2.78314
3.57233
0.0252931
0.0381191
0.0402402
0.0257592
0.340446
2.66375
6.66047
0.06175
0.0255025
0.137857
0.0344367
2.88187
0.0279978
0.0581469
4.67777
0.0254128
2.56264
3.09605
0.0254239
0.0252128
0.0254797
0.515765
7.5728
0.0271889
0.0250649
0.0256073
0.0260476
0.0249699
0.689472
5.60788
0.0254904
0.338215
0.0254532
0.0270953
0.0254664
0.0292158
0.0368508
0.0585543
2.52768
0.0254954
0.0434305
0.0303869
3.64093
3.56321
5.75496
4.16916
4.97973
4.81724
3.11218
2.74954
9.38678
0.119044
0.0631485
4.52475
2.54488
0.0248973
1.9557
3.566
0.0314439
0.029637
4.94769
4.7652
3.55732
0.0257873
0.0821081
3.95063
0.0300411
3.37283
0.0254981
2.51483
3.13273
0.112641
0.0258992
0.0259144
2.63633
0.0254892
7.69125
0.0819351
0.0255347
0.0255775
0.157744
0.0269177
4.30122
0.0453367
0.0254481
0.0259447
4.02383
0.10698
2.66553
3.07879
3.1851
0.0591245
0.0452989
0.0250503
0.0362517
0.0398802
0.0314452
0.0411976
2.44441
0.0257954
2.61931
7.51554
9.40344
0.0255428
0.0887051
15.5187
0.0247638
5.39
0.812843
2.51551
2.6318
11.5192
0.158217
0.0694361
0.263554
2.55254
0.0256681
0.0256845
3.76532
3.52454
0.0395622
0.0345146
0.058122
0.0784712
0.0402843
0.0854677
6.77767
0.13754
0.146234
0.0271559
0.0256868
0.0269277
2.53557
0.0840357
3.0407
8.98787
16.3924
0.211958
0.027433
0.0264053
0.0262404
0.0882651
0.452705
3.70632