/*--------------------------------*- C++ -*----------------------------------*\
| =========                 |                                                 |
| \\      /  F ield         | OpenFOAM: The Open Source CFD Toolbox           |
|  \\    /   O peration     | Version:  v2012                                 |
|   \\  /    A nd           | Website:  www.openfoam.com                      |
|    \\/     M anipulation  |                                                 |
\*---------------------------------------------------------------------------*/
FoamFile
{
    version     2.0;
    format      ascii;
    class       volScalarField;
    location    "100";
    object      omega;
}
// * * * * * * * * * * * * * * * * * * * * * * * * * * * * * * * * * * * * * //

dimensions      [0 0 -1 0 0 0 0];


internalField   nonuniform List<scalar> 
15335
(
6.48659
0.239671
6.45627
0.0403603
3.01436
0.0254588
0.114049
0.414433
0.0362851
4.5202
4.82934
0.0270025
3.17423
12.0468
5.82581
6.72845
0.0289251
5.46715
0.024885
8.94623
2.76759
2.80672
0.113727
0.024951
0.215596
0.14267
15.289
0.144306
7.04724
0.0277642
17.0664
4.60501
0.0256605
0.02556
0.0253699
0.720312
0.633998
8.76329
5.1189
0.374684
0.19027
4.059
0.0254241
0.030073
6.51013
0.0251113
6.3112
3.44913
5.52616
0.028726
0.0249592
4.91048
5.79261
0.0256762
0.0254547
0.103486
0.16073
4.99114
4.39704
4.82387
2.59953
3.34839
0.0464385
0.0312938
0.0251856
0.0267841
5.43973
4.53775
0.0251285
0.0248275
0.0413472
0.027479
0.216682
2.50562
5.14761
2.56962
0.195734
0.145065
10.3205
0.0256514
2.99873
13.7729
2.80896
0.215837
14.5245
0.0251472
0.0248717
0.0298748
0.0275767
0.245362
3.21639
0.0813107
0.0268706
3.81864
3.44723
0.0274269
0.0251233
0.0408291
0.0250671
0.0256665
0.0254166
2.57769
1.23027
0.0656844
0.0262786
0.03592
0.0254034
0.0408749
3.20733
0.0551045
2.74012
0.103921
0.025416
0.0270902
5.28667
0.0276011
0.0413211
3.80605
3.0639
2.91815
3.16625
3.68215
2.4997
3.56389
0.0254342
0.0254124
0.132534
0.0255662
0.0651471
0.0255128
2.62158
5.42062
0.025135
0.0691747
0.129873
0.0252202
2.84724
9.57094
0.0464829
0.402435
0.0804302
0.248142
0.0614646
0.0288136
2.59852
16.6043
2.52885
5.2948
0.189344
2.80735
0.0281815
4.84264
0.0254121
0.0272571
2.40451
0.0256609
3.36231
6.52549
3.57275
6.71522
0.0256483
0.0345608
3.59592
0.0504442
4.88828
7.185
5.38051
0.0249729
10.0689
8.38265
13.7442
4.16189
3.04864
0.0752829
0.159118
0.0256518
0.0256204
3.52788
19.5867
3.64336
0.167168
7.38279
2.53361
0.0391432
0.0392057
4.29819
0.0315291
0.03841
2.52514
2.62655
7.06396
0.413442
0.0297913
0.18718
2.22193
8.88828
0.0254388
5.58051
0.0254443
3.8337
0.0404196
0.0679799
0.0489519
7.7866
5.28966
0.137058
0.0256312
0.0783964
0.0372329
0.0323975
0.0756914
0.025408
2.38553
0.0274403
0.526314
0.0813366
6.19761
4.72313
0.0881616
0.767799
0.0254308
0.025371
0.0327737
0.0290908
0.224761
4.40205
0.0250902
22.2466
0.0496987
4.4713
0.0252125
0.025045
4.55035
0.687894
8.47909
0.0634743
0.188184
0.0872124
0.0256008
4.07246
2.94687
0.0554379
2.51856
0.0390461
5.1421
0.0251605
0.0262316
6.03777
3.1397
3.0773
6.85845
8.19584
0.0251159
0.0249715
0.0497415
8.34962
0.0809759
2.63655
0.0248095
0.148611
22.5148
0.0256638
0.0250236
0.0254461
0.0251542
0.0247921
6.47834
5.07692
6.10163
0.0254669
6.09527
6.00138
6.28618
0.0252165
7.42266
0.0270891
0.0255859
0.161597
0.0306883
0.0491518
20.8375
2.59905
0.0251085
0.0804526
0.0290283
2.93446
3.25818
0.028502
0.0266405
0.0258114
6.6083
0.026928
0.0675692
0.245791
0.029118
17.6355
0.0250347
0.179969
0.0253693
2.63269
0.0254394
3.01413
0.144459
4.15761
0.0252562
9.35172
5.37582
0.0256052
5.36917
0.0293682
2.65573
0.0252007
0.216972
3.63936
5.46655
0.0254206
0.0255642
3.57412
3.8908
0.558759
0.460954
0.0251621
17.8587
3.55875
0.0362822
2.40515
2.65232
4.49269
0.0285358
0.0280738
0.0256536
0.141044
0.0261573
0.238717
0.0743013
1.29943
0.0516867
5.04042
13.1388
5.51278
0.103465
0.122239
0.0254313
0.121078
0.0315696
0.0290964
0.0255662
0.37742
0.0250558
3.03471
2.56561
2.6472
0.0276671
14.1314
5.32744
0.0253685
0.0371865
0.0445818
0.0501802
0.0918732
0.0284054
0.0605817
0.0289982
5.81133
0.0365705
6.50613
3.18224
0.05982
0.0278863
0.0251987
4.12423
0.029241
0.0448261
4.91576
0.0254213
3.36996
5.41637
0.0291792
1.20192
2.39166
0.0254231
0.0290116
2.77837
5.55763
0.0319622
0.0251971
0.107131
0.0770299
0.218259
7.07598
0.0254191
0.0271815
0.0251977
0.215632
5.27729
0.231983
0.375716
0.0312453
0.0664902
2.8327
0.0890401
0.0917275
3.59598
0.0282825
0.0263406
0.0900132
8.44132
30.1968
0.73259
0.220191
0.216345
0.035269
5.27335
2.66618
0.196999
3.76053
3.31408
0.027447
0.966438
0.0607182
0.0339267
5.285
3.55387
0.025109
0.207349
4.30301
0.120617
3.87349
0.0289329
19.4821
3.51763
4.29409
7.6142
3.65551
4.60813
0.19651
2.92202
6.17467
0.0248178
0.0254656
3.89512
2.64579
0.0253401
0.229893
0.0487167
0.0699685
9.80975
0.122642
0.0879746
8.386
7.09498
5.71379
0.0656448
0.0286814
3.46182
3.30733
0.0254527
2.75451
2.50062
0.087191
2.99783
0.691911
0.324077
2.88102
0.0492916
0.0351638
0.030646
0.025446
0.0828189
3.65981
0.190817
0.201419
5.71588
0.025417
0.0256394
0.0252092
2.80859
5.27006
2.642
3.11438
0.208003
1.39693
0.0329142
2.87428
0.0264882
0.0251266
0.0256521
3.67535
0.0253045
2.53222
0.0248626
0.0264826
0.0251143
4.3298
1.28785
0.0256611
0.0312259
0.103242
0.0343021
0.0315448
4.04515
0.0288766
0.198648
0.0267017
6.28596
0.0265142
0.0252766
6.62097
0.0263525
0.0459203
8.44756
0.025192
0.0256515
5.33982
0.699147
2.39234
0.0270726
0.0373668
0.0256339
19.6883
4.7901
0.0256524
2.63384
4.71122
2.52156
2.57412
0.0255335
3.72923
3.60374
2.82924
5.18405
0.0331443
3.41877
0.0688744
3.30853
0.239142
2.70633
18.5496
2.64929
2.5347
2.65646
0.0733407
0.0264242
0.0291557
0.0444267
0.0253989
0.265502
0.0940688
8.60608
0.108508
0.0793931
0.99221
3.0981
3.4573
2.35911
0.214678
0.390463
0.0256563
0.0287309
0.0248133
0.0377746
3.16348
0.0255689
0.0327516
0.0971062
1.04334
6.41327
3.55275
0.223749
5.20208
0.0253732
0.0260989
0.0256486
0.0380586
4.59788
0.0459401
0.649257
0.0252681
0.0402264
3.13412
0.0251014
0.0542932
3.35171
5.6942
5.34777
0.0254244
0.0285323
0.0276084
5.73544
8.05588
0.0375483
0.0248558
0.0252314
0.0256366
3.41175
0.13633
3.15169
2.68024
0.0268662
0.316294
0.0298885
0.0273283
4.33196
0.0254076
0.0313888
2.55118
0.0251226
8.13104
4.81255
0.0465615
1.06369
4.79356
3.65259
0.040696
3.48606
0.141965
0.0289489
0.0255587
0.0441732
0.0869515
4.3065
0.0432537
0.0256356
31.6983
0.0254468
0.0289109
2.97815
0.104529
0.100538
6.20276
0.0329806
0.0254191
0.0251613
0.0355811
0.0256347
3.45543
0.0264986
0.0777928
2.98883
0.0249613
0.0280123
3.13295
0.0358698
0.146557
4.61247
0.0258241
0.217351
0.0255662
2.89137
0.379011
4.74841
0.200901
3.0768
2.64414
0.0684254
6.28536
0.0248571
0.0886154
0.157349
5.60889
0.0265618
6.63378
0.0254274
8.44465
0.0302675
0.533298
0.0250949
0.0255548
0.192112
0.194835
0.0254593
0.0344799
0.0254925
0.403782
3.36365
0.0371775
5.27691
13.7266
2.55019
0.0255763
3.57479
0.0263638
0.0250321
0.16374
0.0325214
0.0285797
2.85239
0.0308723
0.0358098
0.0357115
0.0254822
0.0249552
2.82683
8.19333
0.0250601
0.02504
0.146326
0.0251453
6.67279
0.0531294
3.35268
5.05397
0.0253296
0.0499485
2.64399
0.0612327
0.0256632
0.069376
0.0409693
0.025415
16.1578
2.86054
0.0392485
6.58438
2.70209
0.038629
0.0254981
4.1606
0.0254917
0.0283935
0.121698
0.0255955
0.0256482
0.168311
2.12699
11.8893
2.64999
3.45055
0.0255694
2.59093
24.4169
0.0435589
4.51154
1.99464
0.228592
0.22982
0.0600166
2.69957
0.0421514
7.09898
0.06931
0.0370971
0.141254
0.187558
2.26443
0.0260009
0.0806289
3.12301
0.0323062
0.0310784
2.37646
4.3182
4.58286
0.0255653
2.78808
2.6238
2.78816
5.36342
0.0256035
0.0315189
0.31288
5.74042
4.6008
0.034799
2.671
0.025182
0.701533
0.0343597
0.0286072
6.0027
0.0251014
2.67679
0.0331507
0.0827284
0.0314892
0.0344976
11.1307
0.0255673
0.0253424
5.04817
6.84378
0.0329421
0.0251663
0.0312895
5.61747
0.0801033
17.4324
5.10485
0.0329134
0.0256257
4.38402
0.150122
2.68694
0.0322539
0.0373264
0.0802245
0.0254348
0.0250797
0.0344998
3.63284
0.149909
0.12063
0.0250858
6.69463
3.38916
0.0255384
0.0253908
0.0338287
0.0254198
5.13833
0.707713
0.0253953
0.0254012
0.0255779
0.0255311
0.0254385
0.0248712
5.53274
0.0532066
0.0383233
5.16967
0.0255578
0.0268729
0.0270628
8.75773
2.57845
2.81104
0.0322182
0.025586
4.1788
0.0255141
2.38137
0.0298342
0.083487
3.81605
2.99872
0.0254615
0.0248904
5.36765
2.87995
0.031662
0.0361101
0.0248669
0.220768
0.0347087
0.0319429
0.0271698
0.0248419
3.16092
0.0341455
0.0250371
3.37339
4.11309
20.6496
6.78974
0.0868625
0.0249303
7.16676
0.167757
3.4909
0.0343318
0.0359389
0.081937
0.0347529
4.06094
1.26056
0.025245
0.0682344
0.0800351
0.02548
4.08268
0.0265249
0.0276427
3.73703
3.69716
0.0254786
2.39803
8.16402
0.0254287
0.0260151
0.181878
2.94352
0.156993
0.0250592
0.0508493
0.0420675
3.10136
2.56935
5.1616
0.0778912
0.025598
2.79312
0.0272473
0.0524907
0.0266387
3.04793
1.52798
0.0265381
0.0253643
0.0328835
6.51799
16.1456
0.0254509
0.0254415
2.77957
0.0252837
0.58614
0.663529
0.0250579
0.025306
3.28967
0.0305778
3.77206
29.7075
0.0256093
0.0281964
0.122794
0.0278579
0.069967
0.120422
0.0426481
0.0253985
0.025062
2.53998
0.033623
0.0254465
2.55278
3.02886
0.0254736
0.849686
0.0252584
0.0282427
0.0255247
4.20528
2.74782
0.0255425
0.0259127
3.98203
0.0288205
0.0922938
0.0263473
0.0541522
0.0254889
0.0416615
0.0254466
1.78449
2.62083
0.0264149
0.038057
2.54326
0.0278936
2.68275
5.0422
0.0358475
0.0255061
4.22976
0.452479
0.0253938
0.214307
0.0255196
0.687672
4.52041
0.0256356
3.72817
0.0253899
4.32452
0.162011
3.35475
0.0387864
5.84771
0.024938
3.54369
0.0254429
0.0290483
4.43108
2.37698
0.0500939
5.37924
3.97565
0.527923
6.07222
4.11797
0.0332287
3.83314
7.47955
0.0274646
0.373714
0.216334
0.0251226
0.048043
0.0478605
0.0432978
4.61525
0.446823
0.0255875
0.657361
0.0254227
0.479493
0.025432
2.56684
0.0251585
6.05666
2.66985
0.203332
0.176302
2.91918
0.0420387
0.0250458
0.0723634
15.6405
0.138773
0.0252089
0.052325
0.0260659
0.0407404
0.100346
3.50717
4.36222
0.0256624
3.28458
0.0434983
0.189272
3.60596
3.65958
0.443374
0.0252167
0.0863552
4.98274
0.0277613
19.0872
0.0252507
0.0254973
0.0253971
0.0254243
0.0293684
0.467135
0.0340498
5.07886
0.0313328
0.0254488
0.0254658
2.70697
2.66247
0.0263636
0.0869684
5.90171
9.40988
3.85839
0.036417
0.0861428
7.05398
0.0253057
0.0272781
1.25477
0.0251589
5.74986
0.0251285
0.0253631
5.49023
0.0418458
0.235233
2.47858
0.0329827
0.024955
0.0256713
0.0359774
2.56417
12.4263
3.5268
0.0248238
0.0254013
0.0269174
0.0255999
0.0274205
0.0254933
0.0250399
0.0254576
0.0713738
0.025112
0.0255833
3.50609
2.66732
0.0277891
2.63685
0.0257301
0.028099
4.25414
0.522528
0.0296508
2.57708
5.72882
0.413618
0.025082
2.66071
7.4281
0.0556456
2.90353
2.57683
2.63331
2.06297
0.0386656
0.0349577
2.50144
0.183103
0.0265376
0.0250596
2.83966
0.0792977
3.10964
0.0256032
0.0255682
2.83556
0.0632924
3.96485
0.0447612
0.0254363
0.228339
5.01192
0.0279758
1.05927
3.40095
0.461514
14.5589
0.0260515
0.0344711
0.078595
4.253
0.155243
2.97037
0.0255584
0.142225
2.40518
10.7489
0.025259
0.0254195
0.260944
0.0727567
0.0256334
6.70559
0.0275099
0.0253941
0.0246618
2.71057
7.85337
2.83597
0.0256651
0.0256285
0.331214
0.43711
0.114613
0.613191
0.0677321
0.0354321
0.0251841
2.66172
0.384002
3.62794
4.88779
0.0519598
0.592505
0.034512
4.16106
0.0464551
3.26248
3.90051
0.0256902
0.0529936
0.0901206
2.9733
0.0266884
0.0255327
3.4574
0.0384798
3.78633
2.72253
5.10854
0.0331819
3.48198
3.18221
0.0406457
2.45754
3.50208
0.026066
5.37609
6.04842
0.744962
4.24135
2.64794
0.0257007
5.77731
0.0471713
9.23942
0.088444
2.55357
0.252768
0.518536
0.0309011
0.0254206
0.0252894
0.0256409
0.0256818
6.02496
0.209403
0.02506
0.02545
3.63521
0.0249157
14.7491
2.72374
14.6599
0.202359
0.025412
4.04912
0.0256913
5.77361
0.0251169
2.748
6.55468
0.231485
2.47569
0.0272616
3.47554
2.77818
6.78875
2.68245
16.4378
2.57885
2.73707
5.52141
0.0338303
3.7699
0.0259166
0.0256373
0.123069
3.18134
2.61104
0.0255229
0.0259823
0.0250217
0.07961
0.179631
0.0351258
0.0252893
0.858231
0.0379493
0.0251371
0.0251867
0.0663017
1.45452
3.53581
0.025535
0.453545
0.0251277
0.0316845
4.55109
0.0253673
2.60109
4.0843
0.0358121
0.0454174
0.0466225
0.0254885
0.025606
0.404284
0.223536
0.0492788
0.0247351
0.0381722
8.19169
6.93043
16.0308
0.026364
0.0295135
0.22849
0.0537788
2.39526
0.0256261
0.025087
0.0576846
3.51482
0.034821
2.76025
0.123495
0.0341881
0.0260834
0.0251816
0.131891
0.0259691
0.0266702
0.439877
0.0253524
2.69288
0.0254204
0.0255004
0.0294935
0.0256272
3.58319
8.38449
7.25003
7.46721
5.56583
0.081217
0.0664484
0.0282571
5.51872
0.502822
0.0252594
5.45953
4.28958
2.33388
4.0664
3.5645
2.54668
0.0256385
0.545006
6.14857
0.222472
0.028029
3.38575
0.050095
0.0291076
0.0508971
0.0303572
2.76442
2.53829
15.3641
3.52133
0.0869771
2.44371
5.89904
0.163649
0.0923557
0.025611
5.88784
0.0256218
2.62398
6.08181
4.69192
3.44863
0.0670368
0.298023
0.0250822
4.26068
0.0492008
0.0286154
2.90721
0.0250794
0.155969
0.0255921
5.48394
6.52699
0.0252728
0.0332089
5.59597
0.0316518
0.797654
0.0355969
0.124785
0.0250777
0.0491913
0.0254245
0.0326025
3.32197
2.69141
23.2636
3.59515
5.43686
0.026365
2.52556
0.0254876
0.0316415
0.0847777
2.64989
6.75394
2.4543
0.0252334
12.1774
0.067384
0.0252441
0.0254148
4.53434
8.36318
1.68284
0.0485268
7.06565
6.14418
0.0254177
2.96657
3.60727
0.0322014
3.85982
0.846356
0.183772
2.90569
3.41651
0.0254234
0.0256252
0.0324918
0.0252761
4.66919
0.0256548
7.081
0.0251535
3.34863
0.0423486
2.44091
3.6551
0.0483673
2.66162
0.025668
1.94444
5.62471
3.08556
0.0309775
0.0254224
4.08948
3.9674
3.33884
0.0747534
0.0255471
0.0313072
9.18208
3.50004
0.026711
0.0514854
5.92356
0.0254481
5.8021
0.0690863
3.95237
0.164252
0.444835
2.60792
0.0352768
0.0925063
4.08615
0.0252514
3.48787
0.0502228
2.67789
0.0293988
3.03081
0.0273743
0.0784052
0.0290859
4.18195
0.0299201
7.68361
0.0332148
3.97351
0.0321153
0.0511527
0.122256
6.57873
7.50401
2.0944
0.0473251
2.76003
0.0387226
0.0341445
0.0250867
2.43285
0.0256876
3.2392
0.0342138
0.0314552
2.58384
0.0254209
0.0247913
0.0256593
3.78689
0.0257027
3.374
0.0330419
15.7012
2.70156
0.147351
0.0254546
3.8179
0.0327559
0.0286658
0.0254802
3.2445
0.0254942
0.325707
0.0253353
5.57102
2.71875
0.0294258
3.57872
3.47615
3.0259
0.0308971
5.75616
0.0623391
8.06048
0.0301921
0.0277124
0.221749
2.83721
0.0254102
7.55957
0.33077
0.0283777
1.03011
0.0267566
0.0883306
0.02833
0.0250179
0.0302713
0.027242
0.128531
0.0254764
0.041933
0.128392
7.8927
0.0466102
3.14645
0.0753353
0.025466
0.083084
1.04555
0.0250245
0.0795309
0.0254703
3.37924
0.0322138
1.92607
0.0255089
0.502532
0.0254197
0.0383411
5.998
4.44034
6.73067
3.02861
0.182323
0.0526245
0.0259101
0.0466584
3.79327
17.4544
4.11245
4.75248
0.0253507
2.75145
0.0254229
0.0287519
0.0285212
0.104732
0.0257781
3.47046
1.88796
0.108774
5.22789
0.0772131
3.14364
0.112989
0.0288296
0.0256289
0.0256915
0.0294798
0.0304141
0.0749784
0.0610571
0.0255555
0.0256562
3.16406
0.111301
2.70222
4.73603
6.71694
9.25226
0.0409091
0.0444297
5.27525
0.0317408
0.0254847
0.0306289
0.104374
0.0263921
3.36656
0.0710825
7.12076
0.0254863
0.0714143
3.5104
0.0322081
0.134896
0.0255048
0.0278267
4.01443
2.99199
2.59793
0.0335421
0.0251549
3.5376
0.025448
2.60135
2.73643
0.0350094
4.55963
0.0314264
0.0884103
0.0283823
0.0257874
0.0294738
9.88974
7.55077
0.0254293
0.104583
1.09645
0.0251226
0.0249869
0.0499585
3.99727
2.55618
3.61928
0.0281766
0.0258914
0.0632431
0.756767
2.79074
0.0470907
0.0255931
0.02679
0.177268
0.034942
2.76999
2.33607
0.0256377
5.8206
0.0256498
7.76372
0.0585418
0.0439262
3.09956
0.0362114
4.37792
0.0465235
0.291672
0.504503
0.0318319
0.0252356
0.0257299
0.0482753
3.48218
0.0482435
4.47048
0.0271401
0.0256805
0.0320612
2.73402
0.0259943
0.0793578
3.81318
2.63708
3.67727
2.51032
0.0258889
0.0524348
0.0823162
0.0248404
0.0255455
0.0564691
0.0262219
0.108003
0.0704771
0.0254065
0.0950331
6.86227
0.0256795
2.62689
0.025371
0.0254543
0.0270369
0.0901549
4.82055
5.77825
0.0382592
0.0288792
0.0323324
0.0256271
3.64197
0.0327574
6.58719
4.68529
5.20227
0.077741
0.0802708
0.0257504
7.78885
0.134565
4.66752
3.48669
0.180988
0.0268086
3.0253
9.77504
0.35477
0.470505
6.24732
3.53969
2.58905
0.0508048
2.62079
0.0333548
3.0412
2.66579
0.0793892
0.0254557
0.252707
3.60923
0.0273119
0.0257439
11.1207
0.0254733
0.356255
2.3918
0.111633
0.540298
0.0821202
0.0254636
0.0628333
4.00143
0.0254944
3.474
0.553108
2.34224
0.0274313
6.29253
0.0253525
5.17164
0.0259266
2.55088
0.0259181
0.0396978
0.0252107
3.1206
0.39512
2.95514
3.60181
0.140932
0.0255666
0.657032
4.74652
8.34417
5.02049
11.7121
0.0255666
0.025164
0.362477
0.0254217
5.92112
2.52126
0.163892
2.8715
3.03518
0.0302415
4.21455
0.028016
0.121889
8.57034
0.0279419
0.0352835
0.123327
0.0271059
0.0251792
0.0257669
0.049915
0.0250893
0.0261196
1.0562
0.0254432
0.0253943
0.0343003
0.0254013
0.0387142
0.025654
2.53665
2.6103
3.08596
0.0250041
0.504966
0.957171
0.0254669
3.39132
0.0375248
0.0323043
0.04076
0.0359786
2.69387
12.1149
0.0412404
0.0260262
6.11025
0.118429
2.66411
0.0275621
2.51412
3.65488
3.16852
6.04871
0.0254598
3.65074
7.52249
0.0258814
0.0444313
0.026232
0.0294031
2.82572
7.94532
35.6476
0.0251355
21.9429
0.0491344
0.557537
0.085109
0.0250457
0.0254759
0.0395674
0.0281947
3.8424
0.0389122
4.33178
4.10442
0.0255091
0.0509092
0.0256525
6.39136
0.0473101
4.58729
0.479739
0.0251446
0.0253479
0.0516874
2.63124
4.19125
0.0545452
8.29639
0.0254716
1.11365
0.0688964
0.0250701
0.0247785
0.0404447
0.0255178
2.6546
0.0986929
0.0248734
0.0263537
3.0565
0.0250083
6.63562
0.0465629
0.0521948
2.35092
0.0253614
0.0443471
0.0251512
2.44616
0.025786
0.0309094
0.028215
0.0489967
0.024693
5.2645
2.84371
0.0329137
0.0256625
6.69987
2.76873
0.238458
2.51915
0.0495799
0.0255983
0.0253796
0.145245
0.141692
1.10033
0.143375
0.040805
0.0442655
3.26605
0.0255732
2.41125
0.0271689
0.0810453
0.0254208
0.0252936
0.0273558
0.0262546
0.105762
0.0312128
1.6687
0.226794
3.16612
2.9262
0.0267416
0.0288954
0.025293
6.86394
0.0256655
0.0725824
0.0251861
0.0411712
0.0590327
3.50937
2.54765
2.56198
3.0783
0.0265375
0.0714428
0.918026
4.67161
0.0914754
0.0254787
0.0360499
2.4867
0.0263566
0.0326218
0.0252989
0.0679394
0.0302205
4.37166
0.0273998
0.025474
2.73065
3.03782
0.171045
0.0254555
0.0254486
0.0628902
2.76399
0.0506189
0.373267
0.029366
0.0311577
0.687579
0.0491923
0.0301412
3.5698
7.1565
0.139
3.14071
3.89681
1.85484
2.50854
0.0918623
2.75916
14.4159
0.044563
0.331299
0.0253497
0.0294593
6.89531
0.0881663
2.52658
0.0256255
5.72518
0.27188
2.61038
0.0973051
0.0819974
0.0260194
4.12554
6.70919
0.0493553
5.38755
0.0344881
0.0260486
5.79356
0.0668913
2.84759
0.0614387
2.289
2.60901
6.7414
0.049856
3.26287
0.0251616
0.0260544
0.112265
0.0270974
0.025882
0.0363939
0.0425607
0.157119
0.214404
10.8936
6.39118
0.0661778
0.0254215
4.5966
0.0357028
0.025426
2.70372
1.93646
0.025342
0.0251302
0.0311984
0.15813
0.049145
5.86008
1.13964
0.271174
0.0277882
3.71361
0.0262457
0.0402811
2.94901
0.0254028
0.379259
0.0819797
0.0253749
0.516806
2.63042
0.0275906
0.0249046
0.0318681
0.0253917
0.0274817
5.25002
0.0252617
0.139469
3.59032
0.0253459
2.60458
0.0262806
3.38716
0.517403
4.10446
6.0495
3.88583
0.0558903
3.43526
0.0252392
6.07716
0.0259791
0.0779264
0.764766
0.0394512
3.74581
0.0332255
1.22288
7.07209
0.0256757
0.269549
3.6173
0.0255581
2.9718
0.028489
2.69434
1.54602
0.595379
0.0513068
3.37767
2.3857
0.0717582
0.12617
0.0259298
0.108517
14.0814
4.87616
0.0817784
0.0254767
0.0622965
1.03462
0.0261432
4.35791
0.025291
0.0441162
0.0928903
2.64118
0.0253034
0.0254862
0.0346787
8.08654
0.0248363
0.0256523
0.747928
0.0253495
0.0819416
0.106183
0.0474393
2.63942
0.228969
3.37361
2.78994
0.0805177
0.185276
3.67282
0.0276344
0.027463
0.0677371
0.0253441
7.26898
1.65462
0.0264077
0.0258086
3.01966
2.70446
3.79701
0.258384
0.0252417
2.84788
2.52904
0.0259131
2.71837
3.87236
3.55227
18.0379
0.0253293
0.0283579
0.0254216
0.0302482
0.027543
0.0256249
0.0943294
0.0535471
2.62874
0.0265753
0.0524476
0.0249962
0.0256447
4.30462
0.0313096
8.85088
4.13826
0.0327107
0.0251821
0.110346
2.0306
3.51828
0.0357961
3.86146
0.105228
3.54537
0.0281019
0.0473848
2.91946
0.0253576
3.59228
0.21259
3.37434
2.6145
3.40552
0.0256856
2.61383
0.065883
3.42678
8.0455
2.75941
8.88497
0.420253
0.147845
2.65877
0.0256827
3.64618
5.99638
2.70814
3.47698
3.71549
0.0279797
3.01395
0.0412158
0.0429743
0.0396749
2.55772
0.0254987
1.97984
0.0254185
0.0594946
1.96148
0.0254234
2.65299
3.6128
0.0251191
0.025034
0.0251977
2.53217
6.23437
0.0296744
0.1193
0.0289248
3.33432
2.62473
2.46338
3.36567
0.0439663
4.01928
2.63029
7.47353
0.0354403
4.55965
4.86572
3.50633
0.0248829
2.45051
0.0792733
3.36699
3.21302
0.0259417
0.0255129
0.0906805
0.0251942
3.35729
0.025275
2.61465
0.0264809
3.78033
3.75176
3.90013
0.29049
5.31589
0.0287394
0.0259999
0.0624023
3.87722
0.0254315
0.0752101
3.90761
3.38123
7.16149
3.62151
0.02929
0.0745591
3.50887
2.57758
20.2317
3.30218
2.8606
2.64666
2.77594
4.13001
0.0257226
0.0274317
0.0252932
3.11442
3.15441
0.0252104
0.0326328
3.61356
2.82356
0.192089
6.68253
3.46626
0.164442
0.787308
1.00761
0.0257619
3.95234
2.53483
2.94872
0.0262766
3.76475
0.0271824
3.53143
2.50424
1.49608
2.9502
3.22281
3.56091
0.239612
3.38536
3.05491
5.31939
0.0259394
2.69872
2.63667
0.0300345
0.0932436
0.0261519
0.0361914
0.0266629
4.04752
0.130955
0.0313487
0.0746411
0.0254531
0.653346
5.99435
3.37189
4.15207
0.16211
0.0277991
0.0719873
2.64155
0.0348096
0.0253126
3.08323
2.89734
0.224615
3.32633
0.0281128
3.45732
0.031226
0.0685408
0.0294063
0.0313886
7.11426
2.68246
0.102429
2.57679
0.138574
0.0283705
10.3309
3.65825
4.33502
3.99531
0.0252716
0.0255444
0.0628504
3.64508
0.0919978
0.0337
0.141378
0.0256315
2.90781
0.0253046
0.0255608
0.0248826
0.027484
3.76406
0.0808434
0.0254288
0.0262511
0.0449445
0.100597
0.125468
2.9908
0.0355796
6.53004
0.0255208
6.47833
0.0493034
3.84982
5.15616
0.0256082
0.0248298
0.0253131
0.0254431
5.73404
0.0280451
0.0268718
6.4693
0.907033
0.0256912
0.0266729
0.0254289
0.335088
0.595185
2.92382
2.30267
2.61954
0.0613712
5.63982
3.10846
0.0254252
0.0251565
2.74703
0.170146
3.78472
0.0255058
3.65814
9.57087
0.182418
2.7852
5.885
3.277
0.0258789
3.35865
0.216185
0.0397027
0.0291531
0.0252845
0.373976
0.158553
1.05147
3.14683
1.61114
0.0290231
2.70902
0.0294772
2.48743
0.0269162
3.02129
0.831202
14.2804
2.89436
0.046364
0.0340593
0.0378252
3.48594
0.0256475
4.73798
3.12274
3.50811
7.43653
0.0305639
0.0699058
0.136341
5.90692
0.0307701
0.573574
0.0486155
0.0301187
0.148474
3.20781
0.0394084
5.81226
3.23671
0.641617
0.0252705
0.188054
0.0268998
3.48995
0.0261071
0.024796
0.0333549
2.86871
0.0376674
3.61227
3.83519
0.18714
0.0535137
1.51485
2.63094
0.0251914
0.136259
3.45916
0.0249068
0.0254075
3.35215
4.28494
0.0264049
0.0413911
0.118034
3.17353
2.66897
0.0431728
2.54026
4.95946
0.0256536
2.14775
0.0290847
6.88457
0.168675
0.730091
0.042727
1.82201
2.36928
0.0254809
0.0258691
0.0289125
0.10262
0.0361769
0.0297901
4.05277
0.257921
2.70502
0.0389423
2.67431
3.33872
0.439042
3.71292
3.24968
0.0268563
3.21769
4.13868
0.279763
0.144577
3.26788
4.92217
2.82881
3.27738
0.0598248
0.0353231
0.217295
3.69801
4.04032
3.2864
7.47514
5.61354
0.0256699
3.51691
0.0670599
5.3543
0.0313249
0.0252084
0.17334
1.30772
5.81967
0.375823
4.83801
0.125261
1.08742
0.0477202
0.0306819
0.0260698
0.0257406
0.0590107
0.175812
0.845912
2.81535
3.33606
3.13285
0.025396
0.0340684
0.0324419
0.0377261
0.0258614
4.29784
0.0658374
3.23264
20.0834
0.0252384
3.62249
3.28544
3.08926
0.0251826
0.106848
3.64471
5.56877
0.0501075
0.03621
0.249351
0.0490761
0.117063
0.141086
0.0364161
0.0738177
3.36622
3.62348
3.42869
0.10099
0.0256373
0.0253774
2.59492
3.77191
3.31378
0.0299589
3.4759
2.54083
2.79234
0.0259456
3.06691
3.25021
3.23556
0.439608
3.93153
3.37985
0.0250955
3.15331
3.34587
0.0253179
2.77733
3.34462
3.20427
2.57248
3.13498
0.025302
0.387216
0.146924
0.321489
0.126033
0.160091
0.0306689
6.64807
0.11269
2.67764
0.146618
3.37181
3.97042
0.14648
4.91622
4.92865
3.50262
0.0252293
3.30465
5.05684
0.119228
3.39768
0.0286256
2.56058
3.59874
0.056976
3.81887
0.130833
0.0253388
0.0308094
4.04722
4.8762
2.69543
2.75844
0.160991
0.0448293
2.70093
0.0255546
0.0296095
8.10807
0.0347242
0.0654909
4.63446
4.6969
0.026135
16.3369
2.74026
3.16885
2.72267
3.54293
0.0276865
2.71614
4.47007
0.0624776
0.0289119
0.210739
3.15667
0.0524615
3.64119
3.71467
0.0259521
5.11078
0.0546502
0.055258
0.027246
0.0402452
0.038923
0.0607489
0.0256889
0.0256522
0.0315243
0.743566
2.61647
0.0558857
0.533045
0.0600785
0.0581097
0.0848432
13.2745
2.62897
0.0257292
2.25652
0.401851
0.122007
0.0529448
0.661019
2.62409
0.0265811
0.0254892
0.123262
3.77623
6.08237
1.70696
3.50199
0.0769889
4.31925
0.0254575
2.88989
0.0447421
0.0277938
0.124315
11.1945
4.05534
8.04196
0.409109
0.0411532
0.0266272
0.0247488
0.0416405
0.0255794
0.18218
1.78123
0.0345414
2.95626
6.58658
7.85024
0.0342207
0.0626804
2.82039
0.0488415
0.0560033
0.0247521
3.33493
0.060435
0.428212
0.0429302
2.94534
2.52673
2.52708
5.46774
0.0432901
0.0569509
0.0444581
0.0255707
3.8269
1.67564
0.089825
0.0301567
0.0302283
0.107458
3.06939
0.0253455
0.427081
2.61407
0.0268802
0.173874
0.0537208
0.0251399
0.152468
4.94206
0.164618
0.0262583
0.0996333
0.0727375
3.39988
0.0393934
3.25209
0.0823036
1.36257
0.0752107
2.85315
2.93494
0.41193
0.122923
0.0361978
0.0273177
0.0818724
2.2511
0.105819
6.33341
0.0466039
0.452102
0.0437652
0.191031
0.337001
0.133858
0.0260727
3.95534
0.0250807
0.0747609
0.0320393
0.882307
0.0251732
0.0478608
0.0254678
0.0318036
2.89623
0.0264702
0.0254769
0.609938
0.0254137
0.160974
0.0259735
0.0253853
3.63169
4.37424
0.0256655
0.0595379
0.177504
0.062801
0.12032
0.0444752
0.0611126
4.58124
0.0511693
16.4821
5.49991
0.0258076
0.197389
0.0251735
0.0254907
0.0487362
0.124828
3.35101
0.472355
0.115595
0.0918438
3.20466
0.0324045
2.70093
6.81273
0.0291165
0.0400572
8.94221
2.57723
0.0256913
0.880232
0.0257488
0.0287525
9.50853
0.0252703
0.0919807
3.24442
3.35245
2.81496
0.118963
11.7945
0.0636947
5.23463
0.506357
0.0414339
0.518335
8.21515
0.417149
3.8507
6.09959
0.0261558
2.71405
0.0248481
0.1852
6.9446
0.0254099
3.9551
0.0258416
0.0253639
0.06086
0.188688
0.0248348
6.70953
0.0882361
0.025665
0.0248701
0.0280696
0.0309786
3.66379
3.54113
10.9614
0.137389
5.95073
3.69686
0.0265627
0.105853
4.02982
0.461159
3.71396
3.42565
0.0249478
2.57095
2.75382
3.59109
1.76953
0.0370125
0.0253107
0.0350703
0.402351
0.0249922
0.0250739
4.89787
2.43276
3.5732
0.174914
0.0267315
3.5323
3.46952
0.0260323
7.17632
2.65518
0.0355236
0.0455949
0.05711
3.57593
2.6742
1.81113
0.0700036
0.0330362
1.34632
0.0332705
0.122631
0.0292524
0.095563
0.0356497
0.0254303
7.44588
3.10732
0.027974
0.162972
0.059655
0.025307
5.52055
0.663229
3.83919
2.8569
0.0866823
3.27626
0.145121
4.7369
5.85985
0.267313
1.23789
3.00843
0.0270788
0.0451775
0.025509
0.025339
3.48344
6.25759
0.101783
0.0257666
0.0672755
8.11294
0.0252526
0.0679787
0.0264652
0.0635812
7.785
0.0273078
2.63462
0.0841335
6.64152
0.0518901
6.32817
2.67399
0.0563198
0.0272492
0.103004
0.205742
0.372705
3.60148
0.0612576
0.404019
0.301012
0.0581489
0.0306723
3.04562
0.123504
3.60905
0.0464276
0.0716568
0.083069
0.0292526
11.7361
3.42639
0.215783
0.167302
2.96387
0.0254408
0.105559
0.0252856
0.0295276
0.0282891
0.024717
0.0273781
3.42513
0.191393
0.457163
0.0263637
0.0261886
0.0497947
2.89846
0.0723521
0.0453696
0.0255807
4.01593
0.0255011
0.331741
0.645743
0.0252261
0.0267094
0.0276214
0.0865069
2.61072
0.0255581
4.45361
0.0277687
0.247079
0.166308
0.0261407
3.83335
0.0272235
0.0251202
7.35342
3.25557
0.0328056
0.239261
0.0266015
3.1761
0.025149
0.102213
24.0241
0.427346
0.108726
0.493003
0.0254593
2.49774
0.109142
3.3749
0.0250299
0.0892428
0.0819947
0.0254914
0.0296751
0.0248531
0.0323108
0.0272282
0.0506581
0.025295
0.17315
2.69607
4.00427
0.0250035
0.0876976
0.164838
0.0617203
0.0422203
0.0267683
0.0294466
0.0254468
0.0251499
0.0627318
0.0290901
0.0933916
0.0773608
0.0254898
0.468567
0.027947
0.0277022
2.78413
2.81159
0.115656
0.0252478
9.64465
22.0592
3.45975
0.0459824
0.0315921
0.189022
5.58764
0.0250801
6.40434
0.0250468
0.0256269
0.075519
0.0294013
0.042869
0.0256385
3.5322
0.0432932
0.0278026
3.13801
0.265664
12.8375
2.35669
0.16737
0.107947
0.0254116
0.0297957
0.0255714
0.025331
2.64853
0.0750122
0.298984
0.0254876
3.69444
0.0300576
0.109145
2.14204
2.94442
1.12498
0.0752135
0.0255533
2.36514
0.0256126
0.0268962
0.0254118
0.127735
3.10154
0.0273907
3.03325
0.0655478
0.0256678
0.190646
0.112625
6.8851
0.0252592
0.357842
4.59555
4.15316
3.34048
0.0273242
0.0254155
6.91815
3.0566
0.0342419
0.0254655
0.0256247
0.159156
2.46626
0.287421
0.0258827
5.05494
0.0278885
0.0369858
3.70489
0.0394522
0.0256277
0.0286277
0.0347386
0.123845
0.0267881
2.78286
2.78315
3.57232
0.0252931
0.0381204
0.0402412
0.0257592
0.339632
2.66376
6.66049
0.0616328
0.0255025
0.137884
0.0344366
2.88185
0.0279979
0.0581458
4.67782
0.0254128
2.56263
3.09604
0.0254238
0.0252128
0.0254797
0.515613
7.5729
0.0271888
0.0250649
0.0256073
0.0260476
0.0249699
0.689791
5.60795
0.0254904
0.336465
0.0254532
0.0270952
0.0254664
0.0292158
0.0368505
0.0583846
2.52766
0.0254954
0.0434243
0.0303861
3.64094
3.56322
5.75503
4.16914
4.97974
4.81725
3.11225
2.74954
9.38686
0.119016
0.0631475
4.52476
2.54486
0.0248973
1.95817
3.56598
0.0314438
0.029637
4.94775
4.76525
3.5573
0.0257873
0.0821111
3.95062
0.030041
3.37284
0.0254981
2.51482
3.13275
0.112641
0.0258992
0.0259144
2.63633
0.0254892
7.69132
0.0819343
0.0255347
0.0255775
0.157742
0.0269176
4.30127
0.0453594
0.0254481
0.0259447
4.0237
0.106979
2.66554
3.0788
3.18511
0.0590746
0.0453368
0.0250503
0.0362516
0.0398739
0.0314497
0.0411972
2.4449
0.0257954
2.61931
7.51555
9.40347
0.0255428
0.0887047
15.5188
0.0247638
5.39001
0.813391
2.51549
2.6318
11.5192
0.158215
0.0694354
0.263986
2.55253
0.0256681
0.0256845
3.76532
3.52452
0.0395614
0.0345136
0.0581598
0.0784698
0.0402889
0.0854968
6.77761
0.137538
0.146231
0.0271559
0.0256868
0.0269277
2.53556
0.0840244
3.04071
8.988
16.3918
0.211975
0.027433
0.0264053
0.0262404
0.0882713
0.452852
3.70613