/*--------------------------------*- C++ -*----------------------------------*\
| =========                 |                                                 |
| \\      /  F ield         | OpenFOAM: The Open Source CFD Toolbox           |
|  \\    /   O peration     | Version:  v2012                                 |
|   \\  /    A nd           | Website:  www.openfoam.com                      |
|    \\/     M anipulation  |                                                 |
\*---------------------------------------------------------------------------*/
FoamFile
{
    version     2.0;
    format      ascii;
    class       volScalarField;
    location    "100";
    object      p;
}
// * * * * * * * * * * * * * * * * * * * * * * * * * * * * * * * * * * * * * //

dimensions      [0 2 -2 0 0 0 0];


internalField   nonuniform List<scalar> 
15335
(
-0.350105
-0.201687
-0.429966
0.0667822
-0.438157
0.0368894
-0.197446
-0.338306
-0.130905
-0.35062
-0.429445
-0.074553
-0.438392
-0.149971
-0.396675
-0.408051
-0.0428846
-0.431186
-0.0463074
-0.315575
-0.340771
-0.344945
-0.196447
-0.0418187
-0.298964
-0.175227
-0.442037
-0.170305
-0.43778
0.0682038
-0.436676
-0.331997
0.0298842
-0.00739057
-0.0306595
-0.346287
-0.342267
-0.363901
-0.218909
-0.22729
-0.163064
-0.371879
0.0157127
-0.090208
-0.309139
-0.0298993
-0.443228
-0.189946
-0.150647
-0.0104397
-0.0411638
-0.372743
-0.395296
0.0297341
-0.0503702
-0.195179
0.154201
-0.375009
-0.43791
-0.427951
-0.23275
-0.189362
0.088849
0.124332
-0.0506551
-0.0735692
-0.35685
-0.332576
-0.0529769
-0.0420246
-0.155514
-0.0390236
-0.298769
-0.222537
-0.333548
-0.299282
-0.162416
-0.2777
-0.433033
0.0206865
-0.438239
-0.44135
-0.437942
-0.292525
-0.436864
-0.0298707
-0.0459427
-0.0886767
0.0466293
-0.216512
-0.439868
-0.176543
-0.0760146
0.318146
-0.438044
-0.0904077
-0.028925
-0.0919815
-0.0354619
0.0213479
0.0144722
-0.301513
-0.337367
-0.129904
-0.0768512
-0.126723
-0.0491479
0.183375
0.494056
-0.0191136
-0.185907
-0.224671
0.00165107
-0.0761572
-0.396468
0.0428575
-0.154708
0.284064
-0.441031
-0.367504
-0.43984
-0.238401
-0.218315
-0.197114
0.0402307
0.0215035
0.154577
0.0204702
-0.127747
-0.0446301
-0.377611
-0.307932
-0.0332167
0.0379084
-0.271041
-0.0235755
-0.436988
-0.434484
0.0961342
-0.339669
-0.175965
-0.219489
-0.100813
-0.0427941
-0.27635
-0.392183
-0.225135
0.524802
-0.257066
-0.434429
-0.0965412
-0.346091
0.020193
-0.088341
-0.161154
0.0286041
-0.265965
-0.217456
0.472205
-0.4008
0.029093
0.135346
-0.204582
-0.180279
-0.222588
-0.281216
-0.28373
-0.0399715
0.253378
-0.443284
-0.409541
-0.388151
-0.272981
0.275314
-0.281383
0.0199397
0.00105508
-0.192355
-0.425196
-0.239842
-0.287044
0.111386
-0.232758
-0.143771
-0.142523
-0.263221
-0.117883
0.0653191
-0.219829
-0.379991
-0.388355
-0.294061
-0.096784
-0.291879
-0.359371
-0.437726
0.00354086
-0.304627
0.0213991
-0.43828
-0.0863534
0.0493464
-0.0417184
-0.395596
-0.408938
-0.274759
0.00111114
0.302548
0.144543
0.0180323
-0.142101
0.0110202
-0.163815
0.0659072
-0.14585
0.312111
-0.428792
-0.343486
-0.14429
0.474125
0.0384559
-0.00249042
-0.123978
-0.0878959
-0.281939
-0.352891
-0.039194
-0.226749
-0.175817
-0.285555
-0.0231656
-0.0333183
-0.14953
0.475754
-0.251357
-0.132512
-0.29199
-0.144549
0.00164367
-0.364754
-0.237823
-0.029266
-0.216863
-0.14875
-0.394801
-0.0276192
0.0192628
-0.390104
-0.154744
-0.148281
-0.407088
-0.286317
-0.0325982
-0.0406451
-0.176797
-0.277111
-0.179924
-0.389004
-0.0421858
-0.279861
-0.325269
0.0273603
-0.040328
0.0354927
-0.0536962
-0.0427524
-0.399527
-0.208585
-0.220875
0.0516883
-0.394649
-0.262868
-0.209927
-0.0235177
-0.190435
0.0472895
0.0151893
-0.266375
0.119927
-0.173437
-0.151115
-0.317993
-0.0447902
-0.179817
-0.0979577
-0.434619
-0.26353
-0.100077
0.0695401
-0.0381105
-0.286371
-0.0775998
0.112062
-0.281314
-0.0865914
-0.288054
-0.0397491
-0.198886
-0.0293663
-0.386477
0.0414528
-0.239326
-0.215006
-0.264172
-0.021869
-0.428223
-0.28751
0.00188401
-0.342334
0.0968994
-0.402305
-0.0544525
-0.295051
-0.206745
-0.345997
0.0282569
0.0350534
-0.38938
-0.281923
0.465173
-0.295447
-0.0496612
-0.305975
-0.433649
-0.121656
-0.165887
-0.400141
-0.290028
-0.0972646
-0.0948875
0.0222892
-0.223216
0.0545051
-0.197462
0.0212376
-0.34349
-0.048529
-0.190173
-0.44218
-0.319609
-0.19862
-0.153913
-0.00147654
-0.154963
-0.0942011
0.0996361
-0.00600263
-0.330185
-0.0341703
-0.439489
-0.277014
-0.405359
-0.0412966
-0.395231
-0.407112
-0.00210165
0.163521
-0.0882136
-0.127575
-0.238621
-0.0990653
-0.173838
-0.0965252
-0.354077
0.143984
-0.305286
0.482814
-0.170935
-0.0871068
-0.0245449
-0.262044
-0.0119205
-0.10677
-0.352377
0.0289926
-0.350172
-0.374935
-0.0894097
0.136788
-0.167088
-0.00240513
-0.0835841
-0.434852
-0.344194
-0.120707
-0.0244503
-0.227355
0.265269
-0.154694
-0.305656
0.0261572
0.0500472
-0.0247976
-0.152483
-0.337534
-0.263439
-0.325613
-0.0953377
0.165716
-0.199075
-0.235303
-0.238539
-0.439388
-0.0950804
-0.0661768
-0.236077
-0.402753
-0.429163
0.055709
-0.278702
-0.290526
0.136783
-0.33396
-0.184334
-0.158711
-0.386529
-0.432986
-0.0827865
0.295893
-0.0959319
0.108725
-0.411525
-0.194035
-0.029608
-0.214658
-0.275679
-0.150657
-0.401986
-0.103642
-0.42658
-0.315198
-0.362175
-0.36679
-0.339218
-0.147134
-0.253958
-0.23023
-0.419552
-0.042244
-0.0436846
-0.339973
-0.394534
-0.0358692
-0.194906
-0.136674
0.243673
-0.313292
-0.150138
-0.147916
-0.399184
-0.408217
-0.352746
-0.14064
-0.0139261
-0.299794
-0.301554
0.0159529
-0.348669
-0.217082
-0.148664
-0.235365
-0.334293
-0.210188
-0.198346
-0.127439
-0.118911
-0.108773
0.0233978
-0.00863423
-0.206056
-0.159655
-0.199141
-0.361327
0.0253372
0.0036517
-0.0546246
0.512822
-0.367717
-0.391545
0.516428
-0.272237
0.498209
-0.11363
-0.437062
0.0667485
-0.0470655
0.0253745
-0.221445
-0.0355839
-0.247093
-0.0417236
0.086057
-0.038765
-0.280309
-0.324543
0.0230348
-0.096463
-0.195022
0.1079
0.137726
-0.401678
-0.0980363
-0.200959
-0.0719489
-0.368796
-0.0668823
-0.0251446
-0.411009
-0.0540064
0.0709451
-0.394711
-0.0251783
0.027944
-0.417048
-0.347335
-0.333591
-0.0857944
-0.133508
-0.0634305
-0.429406
-0.305146
-0.0112758
-0.390555
-0.312636
-0.234322
-0.302177
0.0534381
-0.220492
-0.226755
-0.436041
-0.418813
-0.114516
-0.179228
0.158386
-0.281156
-0.200804
-0.340522
-0.252126
-0.340699
-0.250437
-0.230811
0.0251008
-0.066137
-0.104246
-0.118712
-0.016436
-0.197872
-0.221377
-0.266112
-0.230987
-0.19803
-0.350844
-0.156739
-0.254339
-0.146419
-0.287661
-0.120241
0.00365905
-0.100968
-0.0426608
-0.011149
-0.157488
-0.0610249
-0.11471
-0.233922
0.495417
-0.380767
-0.437716
-0.298169
-0.205601
-0.0322245
0.0545927
0.0295667
0.0719966
-0.43814
-0.122074
0.462499
-0.0246899
-0.152924
-0.435988
-0.043855
-0.0354147
-0.313791
-0.432832
-0.413475
0.0373797
-0.0815634
0.098762
-0.399503
-0.397192
-0.0536193
-0.0416634
-0.0231103
0.0254589
-0.175619
-0.170425
0.516249
-0.335738
-0.0684782
-0.331049
-0.0969329
-0.0804345
-0.290039
-0.00558891
-0.118424
-0.279711
-0.0378878
-0.293259
-0.30939
0.0802086
-0.327553
-0.349583
-0.220865
-0.141333
-0.176779
-0.169084
-0.0393996
0.0213218
-0.110823
-0.138715
-0.287181
-0.16082
-0.0125884
-0.431931
0.00328121
-0.0993429
-0.435283
-0.227645
-0.235117
-0.437422
-0.123032
-0.00791366
-0.0556264
0.0235589
-0.0113879
-0.340944
-0.055719
-0.195217
-0.420617
-0.0372001
-0.0770123
-0.419403
0.0359624
0.26654
-0.357226
-0.0404617
-0.292503
0.00281674
-0.201208
-0.272707
-0.319575
-0.252648
-0.437459
-0.401246
0.118649
-0.376674
-0.0450663
-0.141083
0.233159
-0.426346
0.0859359
-0.426013
0.0026886
-0.400305
-0.105562
-0.343157
-0.0400972
-0.0598173
-0.231282
-0.288077
0.0512826
-0.106675
-0.0584221
-0.2869
-0.437552
-0.0486654
-0.424445
-0.452729
-0.253573
0.00212115
-0.255528
0.0165107
-0.0339009
-0.288923
0.0217173
0.0618538
-0.429994
-0.115384
0.0182345
0.152209
0.0212229
-0.0377583
-0.206324
-0.406937
-0.0360759
-0.0349334
-0.260596
-0.0316758
-0.206472
-0.0373244
-0.439141
-0.360431
-0.0362893
-0.118713
-0.153566
-0.171546
0.0246289
0.0799366
-0.156097
0.0122934
-0.417314
-0.429888
-0.150024
-0.435963
-0.339118
-0.146504
0.00826589
-0.267072
0.00750102
-0.0790532
-0.159277
-0.0128854
-0.0625089
-0.293317
-0.372682
-0.440831
-0.336208
-0.181772
0.00943766
-0.315402
-0.250569
-0.153052
-0.435421
-0.307556
-0.190356
-0.192575
-0.170526
-0.415061
0.199348
-0.30486
0.0696004
-0.126257
0.0427899
-0.235183
-0.153331
-0.0689839
-0.147239
-0.271142
0.14193
-0.115068
-0.145637
-0.438725
-0.142564
0.0330624
-0.38022
-0.379901
-0.175463
-0.405249
-0.0553165
-0.0960801
-0.330181
-0.148
-0.144695
-0.134885
-0.413837
-0.0268814
0.0210389
-0.108892
-0.0367322
-0.428787
-0.0384651
-0.373203
-0.125503
0.00471927
0.100436
0.140746
-0.440572
0.0223069
-0.0345534
-0.435856
-0.317757
-0.115494
-0.0272906
0.0193526
-0.291404
-0.183425
-0.227272
-0.364044
-0.124461
0.0262168
-0.438873
0.0508487
-0.339737
-0.120278
0.159708
-0.170026
0.0148424
-0.0415809
-0.132694
-0.279988
0.28096
-0.163193
-0.0338876
-0.417792
-0.177821
0.05024
-0.00538366
0.116713
0.00102984
-0.325627
-0.30266
0.00915421
0.0114372
0.0203539
-0.021561
0.00998651
-0.0414175
-0.37684
-0.143388
-0.00856445
-0.438684
0.0230522
-0.0758952
-0.0842158
-0.433986
0.487449
-0.35011
-0.0736497
0.0192624
-0.435946
-0.00722259
-0.161293
-0.10304
-0.212904
-0.373356
-0.313147
0.0265851
-0.0492479
-0.342402
-0.177811
-0.11925
-0.00949937
-0.0453928
-0.289627
-0.107087
-0.121449
0.0413072
-0.0416815
-0.310559
-0.0788103
-0.0348914
0.223936
-0.437047
-0.300655
-0.405993
-0.135569
-0.0390756
-0.275872
-0.268396
-0.38183
-0.114368
0.147592
-0.173001
-0.00625872
-0.435149
-0.341282
-0.0223393
-0.205064
-0.167195
0.0104328
0.523368
-0.0784484
0.059444
-0.374748
-0.224045
0.0190327
-0.170264
-0.424089
-0.00320604
0.0167884
-0.22491
0.25994
0.250719
-0.0356544
-0.178717
-0.158855
-0.153469
-0.300016
-0.437922
0.2531
-0.0537306
-0.435403
-0.0878849
0.243518
-0.0600032
-0.158027
0.26884
-0.0580954
-0.0180219
-0.123633
-0.430598
-0.430066
0.0178755
0.0412349
-0.420914
-0.0227166
0.440211
-0.156075
-0.0348268
-0.0193392
-0.269754
-0.112308
-0.357057
-0.413658
0.0135182
-0.0663828
-0.147123
-0.0874926
-0.201082
-0.144793
0.183263
0.00852954
-0.0347621
-0.258257
-0.111659
0.0102186
-0.281687
-0.440279
-0.0317544
0.232976
-0.0257207
-0.0689298
0.0293652
-0.277022
-0.426593
0.0534747
-0.0274582
-0.406682
-0.0986407
-0.228008
-0.0780282
-0.0652608
0.0429371
-0.0979802
0.0207785
-0.356231
-0.378449
-0.0672996
-0.143424
-0.248087
-0.0742289
-0.162574
-0.367755
-0.125399
0.0123175
-0.407931
-0.309537
0.00655922
-0.148371
0.031203
-0.355253
-0.366249
-0.0108317
-0.226715
0.00572125
-0.438152
-0.088002
-0.175118
-0.147018
-0.145565
-0.0386516
-0.372111
0.0219598
-0.10306
0.526682
-0.158415
0.238701
-0.376145
-0.193437
-0.233651
-0.321517
-0.269902
-0.124913
-0.249542
-0.39593
0.094512
0.341309
-0.295527
-0.0345328
0.224939
0.00274494
0.18694
-0.440079
0.440062
-0.0501362
0.190427
0.0261273
-0.336132
0.000349067
-0.153285
-0.028439
-0.234255
-0.407259
-0.2111
-0.200222
-0.209782
0.187324
-0.0375474
-0.130991
-0.321702
-0.0736746
-0.0241509
-0.0583269
-0.0702222
0.060849
0.279424
-0.43541
-0.396261
-0.0118489
-0.438603
-0.0817708
-0.147856
-0.203865
-0.226566
-0.346657
-0.0234896
0.288537
-0.362476
0.0988979
-0.32473
-0.0220933
0.0114319
0.011384
-0.00510506
-0.0884096
0.35383
0.115589
-0.346008
0.131042
0.0211846
0.00932482
-0.420473
0.293376
-0.0775137
-0.152635
-0.143504
-0.300828
-0.253037
0.0700037
-0.102872
-0.285429
-0.0183236
-0.0402265
-0.337046
-0.0558163
-0.276744
-0.0282816
-0.0174096
-0.19282
-0.0870348
-0.305868
-0.214091
0.1467
-0.037986
-0.0639249
0.0296247
-0.272818
-0.432317
-0.423367
-0.0420128
0.0106941
-0.0826042
0.0192175
0.0493493
0.0257558
-0.0333584
0.0247449
-0.197921
-0.0520902
0.0103314
0.511651
-0.367236
-0.00551802
-0.393171
0.0462013
0.0596716
-0.385907
-0.244132
-0.0915565
-0.285875
-0.377805
0.453592
-0.0338625
-0.368999
-0.30182
0.24406
-0.203909
-0.287045
-0.319097
-0.148655
-0.148453
-0.133999
-0.150653
0.32115
0.0312857
-0.0369952
-0.43914
-0.20106
-0.271205
-0.0127223
0.0242994
-0.200262
0.0176837
-0.397235
-0.145355
-0.00785098
-0.185446
-0.370175
0.0614119
-0.309182
-0.380888
-0.331546
-0.30568
0.0147576
-0.108893
-0.192414
-0.27974
-0.276889
-0.439817
0.0238013
-0.271195
-0.164026
-0.438942
-0.0428042
-0.00407949
-0.288223
-0.199626
-0.0124193
-0.343774
0.0941221
-0.0475864
-0.0428472
-0.420132
-0.433734
-0.382949
0.00450903
0.011343
-0.148444
0.0805551
-0.261339
0.349172
-0.204766
-0.130824
-0.0427805
-0.4042
-0.3402
-0.212894
-0.340852
-0.139398
-0.333455
-0.103249
-0.388203
0.0623439
-0.432312
-0.422738
0.0237239
-0.178062
-0.221006
-0.232308
0.0811814
-0.0135935
-0.436981
-0.144738
-0.249706
-0.427807
-0.415714
-0.12683
-0.186439
-0.161535
-0.143877
-0.15074
-0.338422
-0.0144005
-0.301741
-0.327001
0.154812
-0.264034
-0.401824
0.0450318
-0.329531
0.183631
-0.318323
-0.235702
-0.273673
-0.287184
-0.350109
-0.0920958
0.0478592
-0.0271202
0.00195508
0.00450506
-0.2998
-0.273036
-0.0340878
0.0237035
-0.215817
-0.0499369
-0.2242
-0.407702
-0.305684
-0.26877
-0.0430999
-0.251889
0.00326907
-0.38604
-0.0396678
-0.282422
-0.423964
-0.181109
-0.212187
0.0887391
-0.178657
-0.380315
-0.433775
-0.421869
-0.405389
-0.302532
-0.4118
-0.298305
-0.130422
-0.43778
-0.0252688
-0.0101789
-0.158235
-0.165424
-0.329429
-0.0441316
0.066977
-0.035511
-0.174383
-0.218894
-0.132242
-0.0218079
-0.322804
-0.145523
-0.0480446
-0.051593
-0.205893
-0.36335
-0.357403
-0.0234597
-0.238533
-0.0399517
0.0319583
-0.234437
-0.0179604
-0.162303
-0.291537
-0.132882
-0.147615
-0.134615
0.0532585
0.0110778
-0.0942618
-0.282982
-0.128834
-0.0455118
-0.146625
-0.3417
-0.29274
-0.425497
-0.0776933
-0.102806
-0.188257
-0.180478
-0.159066
-0.0106021
-0.0513837
-0.160929
-0.340921
-0.132072
-0.434923
-0.162195
-0.132598
-0.0131132
-0.0257989
-0.271331
-0.0695011
-0.0350367
0.199557
-0.046499
-0.354751
-0.00647559
0.0103807
-0.0917705
-0.00992051
-0.215551
-0.407369
-0.302826
-0.286674
-0.395189
-0.183577
-0.123
-0.0117661
-0.171631
-0.310687
-0.0214798
-0.373406
-0.393346
0.498031
-0.252621
-0.318017
-0.257053
-0.00753649
-0.336818
-0.394205
0.319068
0.0848891
-0.434405
-0.162521
-0.0977504
-0.00177529
0.102274
-0.434982
-0.254477
-0.427514
-0.351283
-0.234735
0.473535
-0.427225
-0.216858
-0.216132
0.0108249
-0.224174
-0.0123874
-0.280366
-0.347581
-0.439469
-0.180036
-0.20858
-0.327349
-0.0428629
-0.265844
0.230519
-0.0427019
-0.236634
-0.0345809
-0.278797
0.037295
-0.436273
-0.394429
-0.0211409
-0.0533295
-0.439834
-0.113124
0.445224
-0.13434
0.207598
-0.042438
-0.0705893
-0.000675016
-0.123732
0.504499
-0.39445
-0.31615
0.470776
-0.398347
-0.0343849
-0.238572
0.0470542
-0.120344
-0.207701
-0.329894
-0.416409
-0.191213
-0.02281
-0.437603
-0.20616
-0.0229322
-0.00614054
-0.289326
-0.421485
-0.362605
-0.116874
-0.376396
-0.366218
-0.00481869
-0.226234
-0.210008
-0.120934
-0.435023
0.473402
-0.244618
-0.26692
-0.440688
0.037834
0.0121936
-0.121204
-0.0266303
-0.44032
-0.0124916
-0.305084
-0.0268815
-0.279162
0.204103
-0.189535
-0.372888
-0.172146
-0.353324
-0.00449626
0.464526
-0.40068
-0.423436
-0.111324
0.0368397
-0.273471
-0.245896
-0.276645
-0.0561075
0.0148118
0.0252776
-0.408222
-0.269814
-0.0638082
-0.169159
-0.248139
-0.00744306
-0.438523
-0.207521
-0.316303
-0.221407
-0.333487
-0.247142
-0.132026
-0.0898786
-0.402667
-0.0254142
0.421129
-0.176737
-0.412019
0.0980704
-0.210207
0.0918937
-0.175833
-0.0963931
-0.265329
-0.0946055
-0.29995
-0.0556248
-0.413311
-0.118654
-0.162536
-0.268062
-0.412798
-0.406709
-0.346631
-0.168835
-0.306762
-0.147061
-0.131558
-0.0433869
-0.185071
0.00509796
-0.43972
-0.00993428
0.031111
-0.249176
0.0265077
-0.043794
-0.00502463
-0.311428
0.0513876
-0.338299
-0.00708836
-0.298068
-0.280386
-0.282007
-0.0078678
-0.388787
-0.0696946
-0.100422
-0.0593078
-0.166623
0.0266276
-0.252986
-0.016168
-0.438497
-0.308978
-0.0999698
-0.202758
-0.179515
-0.432115
-0.0686419
-0.411567
-0.199961
-0.40426
-0.109606
-0.0847184
-0.194398
-0.398336
0.0191178
-0.277965
-0.335288
-0.0643119
-0.149264
-0.0804021
-0.238223
-0.0982426
-0.0355418
0.0257748
-0.0864447
0.173375
0.0462693
-0.157371
0.0181779
-0.171875
0.215622
-0.287739
-0.165167
-0.00750039
0.314305
0.207333
-0.042764
-0.186665
0.0413267
-0.354247
0.139508
-0.34363
0.0487479
0.385282
-0.0117518
0.171084
-0.390284
-0.424246
-0.340651
-0.439404
-0.280261
-0.178994
-0.0630418
-0.0545009
-0.260553
-0.31765
-0.400628
-0.436216
-0.00872363
0.506667
-0.0121725
-0.102489
-0.0990371
0.202181
-0.0683026
-0.432739
0.512369
-0.256701
-0.436722
-0.197806
-0.28631
-0.169419
-0.102422
-0.00790197
-0.0668641
-0.0886677
-0.113551
-0.180415
-0.163413
-0.0620644
0.0180255
-0.440692
-0.202418
-0.275645
-0.420164
-0.304325
-0.366998
0.187454
0.211636
-0.20247
-0.0944028
-0.0572181
0.12618
-0.23417
-0.0771387
-0.194149
-0.202428
-0.438817
0.0275319
0.227727
-0.191735
-0.117272
-0.172035
0.0330414
-0.079291
-0.250806
-0.185449
-0.261598
-0.0673003
-0.0306477
-0.373983
0.0149957
-0.269731
-0.398202
-0.133936
-0.287416
-0.0691202
-0.1377
-0.0484509
-0.06906
0.0306106
-0.436536
-0.41018
-0.00740355
-0.22091
-0.354773
-0.0451613
-0.0394431
-0.131127
-0.305444
-0.229185
-0.19991
-0.00716382
-0.0615823
0.112129
0.281692
-0.378073
-0.108577
-0.0515288
-0.0671503
-0.205006
-0.105242
-0.354861
-0.309685
-0.0085993
-0.279826
0.0128392
-0.43662
0.0232682
-0.163845
-0.318391
-0.103673
-0.317477
-0.118482
-0.070065
0.422171
0.140672
-0.0260548
0.0508055
0.228297
-0.192313
-0.172476
-0.321099
0.0587857
0.0229552
-0.0655957
-0.312828
0.0659842
-0.189759
0.490385
-0.373587
-0.209013
-0.226288
0.0159738
-0.169205
-0.0797904
-0.0452858
-0.0210882
-0.00175052
-0.0639035
0.170328
-0.199376
-0.0129284
-0.104328
-0.402116
0.0245675
-0.367156
-0.0368746
-0.0442185
0.0829757
-0.239756
0.391329
-0.368505
-0.138591
-0.0426404
0.105325
-0.00829829
-0.437807
-0.121894
-0.305003
-0.354984
-0.380618
-0.0265485
-0.186823
-0.0651159
-0.281189
-0.167497
-0.438824
-0.176509
-0.203678
0.0530995
-0.244883
-0.430697
0.440746
-0.31774
-0.409523
-0.187308
-0.25333
-0.125098
-0.353233
-0.0708392
-0.248399
-0.384661
0.268139
0.0233264
-0.202941
-0.195243
-0.0831826
-0.0676499
-0.426486
0.0220915
-0.281942
-0.170536
-0.250907
0.338982
-0.111216
0.00723331
0.232852
-0.247469
0.00950844
-0.195208
0.453109
-0.344872
0.0615212
-0.303395
-0.0063579
-0.427301
-0.0642544
-0.251438
-0.0649452
-0.151645
-0.0242301
-0.422065
0.386072
-0.178597
-0.438602
-0.261798
0.0258683
-0.296567
-0.358889
-0.374332
-0.423503
-0.435977
0.0272371
-0.0318971
0.434931
0.0280526
-0.387966
-0.229349
0.116278
-0.438892
-0.148161
0.122142
-0.27264
-0.0937682
-0.265936
-0.43707
0.0860213
-0.135962
-0.170282
-0.0793494
-0.0260999
-0.0682552
0.052297
-0.0417968
0.0153743
-0.332064
0.0143379
-0.0495614
-0.0757388
-0.0132121
-0.0744238
0.0127914
-0.236472
-0.286213
-0.225781
-0.0361645
0.372407
-0.347203
-0.0519012
-0.437761
-0.0211722
-0.0776783
-0.152707
0.101227
-0.378447
-0.432236
0.19333
-0.071142
-0.368438
-0.262333
-0.312354
-0.0825112
-0.149168
-0.430382
-0.365507
-0.425409
-0.0589342
0.364431
-0.435203
-0.0280791
0.175806
-0.0757066
0.109978
-0.243237
-0.389099
-0.405775
-0.0463663
-0.349444
-0.174359
-0.0379061
-0.113519
-0.0383848
-0.0249725
-0.130884
-0.0456062
-0.408333
-0.14283
-0.438668
-0.258542
0.0143381
-0.0130686
-0.0117169
-0.258588
-0.00251506
-0.372709
-0.322229
-0.0323679
-0.045053
-0.180298
-0.274955
-0.272276
-0.0835029
-0.256495
0.0381351
-0.0701185
-0.207389
-0.0504998
-0.0438421
-0.1507
-0.0139068
-0.383305
-0.221513
-0.0443768
0.0813729
-0.177718
-0.0390494
-0.435722
-0.102181
0.00372661
-0.150077
-0.0387974
0.208521
-0.0511049
-0.189121
-0.0686454
0.13025
-0.0942649
-0.156447
-0.0429866
-0.426923
-0.439303
-0.107388
-0.0114583
-0.3974
-0.238415
-0.305268
-0.234787
-0.078487
-0.0530702
-0.00871957
-0.263355
-0.259222
0.336721
-0.239282
-0.151904
-0.122019
-0.193211
-0.0131105
-0.168963
-0.0329059
-0.186655
0.026551
-0.0152677
-0.0772225
0.00470404
-0.23516
0.134701
-0.275896
-0.305216
-0.156961
-0.431935
-0.062609
-0.0901947
-0.036204
-0.394997
-0.063741
-0.0582846
-0.0253068
-0.155529
-0.177196
-0.185883
-0.253098
-0.270549
-0.438439
-0.0356221
0.24022
0.207063
-0.438711
-0.236071
0.0243187
-0.017061
-0.212833
0.0294545
0.111646
-0.0520802
-0.121568
-0.112357
-0.434537
-0.0351544
0.00290809
-0.395332
-0.430519
-0.166021
-0.061329
0.00617445
-0.201167
-0.351452
-0.150542
-0.267588
-0.0951766
0.10122
0.227899
-0.175946
0.0972128
-0.191624
-0.305694
0.0233923
-0.315343
-0.203008
0.381019
-0.202374
-0.21415
-0.434361
-0.427129
-0.132754
-0.320127
-0.00792289
-0.101108
-0.299774
-0.151856
-0.214564
0.0181739
-0.252054
-0.324142
-0.304823
-0.228802
-0.169661
-0.0717159
-0.302595
-0.428802
0.0616671
-0.371266
-0.133808
0.0708585
-0.440376
-0.131691
-0.400959
0.159436
0.488896
-0.306333
-0.410969
-0.119597
-0.437638
-0.0537692
0.000823172
-0.171111
-0.0768707
-0.0195435
-0.00638034
-0.150152
-0.234987
-0.175524
-0.433215
-0.414658
0.254141
0.029146
-0.328294
-0.133725
0.0468861
-0.386562
-0.239512
-0.0156435
-0.0546796
0.134788
0.104728
-0.13326
-0.411121
-0.270582
-0.29618
-0.0684752
-0.243455
-0.0730401
-0.14831
-0.424107
-0.0414003
-0.0119405
-0.134642
-0.0383325
-0.325814
-0.310027
-0.0882696
-0.0397617
-0.119173
-0.0167369
-0.0788708
-0.316579
-0.0509556
-0.263927
-0.33349
-0.00755337
-0.322024
-0.076323
-0.178387
-0.3442
-0.300467
-0.374244
-0.242042
-0.173744
-0.426781
-0.0224189
-0.439102
0.0520388
0.0857008
0.0888201
0.18912
-0.233936
0.151073
-0.348855
-0.289486
0.0157071
-0.302313
-0.439066
0.0267782
-0.24748
-0.0426066
-0.381869
0.468522
-0.291157
-0.179091
-0.439935
-0.151016
-0.200882
-0.267364
0.0689388
-0.244739
-0.427401
-0.438253
-0.0227612
0.0440697
0.0648133
-0.337846
-0.0735375
-0.248727
-0.041274
-0.0476703
-0.0317953
-0.288071
-0.0339991
0.00322426
0.160387
-0.301375
-0.0420931
0.0238879
0.350878
-0.00597953
-0.150517
-0.253675
-0.0124378
-0.395947
-0.261941
-0.184637
-0.415555
-0.192867
-0.245164
-0.375201
-0.00810403
-0.0796546
-0.209065
-0.00947533
-0.393294
-0.370187
0.0837322
-0.0187118
-0.433381
-0.400024
-0.2425
-0.265699
-0.0264149
-0.379976
-0.242345
0.000967953
-0.389976
-0.367533
-0.416245
-0.427698
-0.0378317
-0.0663035
0.0260655
0.030606
-0.0811538
-0.0111976
-0.219763
-0.1813
-0.386951
0.0503876
-0.0755797
-0.0396036
0.0187329
-0.437006
0.132798
-0.424975
-0.269456
-0.0729876
-0.0517386
-0.255484
0.490483
-0.367786
-0.128529
-0.26129
-0.23175
-0.195435
-0.0905637
-0.0443639
-0.402277
-0.0149852
-0.412294
-0.269378
-0.438663
-0.343292
-0.439599
-0.0566077
-0.345375
0.0375804
-0.183124
-0.435925
-0.40627
-0.257332
0.0655585
-0.194733
-0.316306
-0.00188927
-0.40811
-0.255098
-0.375145
-0.438211
-0.40389
-0.0920718
-0.335162
-0.153948
-0.112009
-0.131063
-0.261726
-0.00548451
0.407179
0.0247499
-0.175246
-0.374111
0.0285019
-0.381476
-0.435074
-0.0532585
-0.0388923
-0.0566672
-0.247071
-0.38733
-0.0899928
-0.264938
-0.102748
-0.17412
-0.259452
-0.184421
-0.185212
-0.15151
-0.283982
-0.267809
-0.424709
0.104159
-0.321324
-0.354099
-0.193003
-0.0408645
-0.197221
-0.20636
-0.313151
-0.191684
-0.0136321
-0.00520064
0.280208
-0.0565756
-0.303114
-0.0405614
-0.251463
0.0799398
-0.394452
-0.427477
-0.26151
-0.324181
-0.394482
-0.0425254
-0.0687378
-0.127361
-0.389567
0.00457331
0.0999203
-0.417194
-0.430652
-0.405728
-0.192026
0.0261762
-0.188588
-0.192868
-0.227409
-0.423525
-0.264471
-0.192553
-0.291689
-0.309476
-0.43797
-0.0363348
-0.0602507
-0.0157236
-0.160264
-0.429047
-0.0276442
-0.0918318
-0.303793
-0.356611
-0.176531
-0.303928
0.479925
-0.261632
-0.305358
0.393201
-0.0301242
-0.373431
-0.240739
-0.438678
-0.0758971
-0.282363
-0.0827554
-0.436989
-0.220844
0.386134
-0.320339
-0.17166
-0.434366
-0.315291
-0.183141
-0.426586
-0.437659
0.00589359
-0.361847
-0.351824
0.111391
-0.238936
-0.0747596
0.0876999
0.082165
-0.368054
-0.155637
0.107149
-0.179988
-0.00466459
0.12921
-0.396796
-0.440098
-0.349174
-0.254145
-0.090083
-0.172057
-0.300469
0.061059
-0.0124013
-0.42687
-0.288113
-0.301524
-0.364439
-0.0955868
-0.324906
-0.116676
-0.166738
-0.0928626
0.106907
-0.407781
-0.332612
-0.249763
0.513001
-0.265872
-0.0978958
-0.434017
-0.289896
-0.342801
-0.254322
-0.0545356
-0.00466215
-0.142653
-0.296989
-0.0334157
-0.0774058
-0.233306
0.00285967
-0.399563
-0.0314352
-0.00389766
-0.0447251
-0.0139915
-0.383937
-0.189849
0.00319259
-0.0720524
-0.0921469
-0.246792
-0.201232
-0.421596
0.165816
-0.409913
-0.0165886
-0.418261
-0.136014
-0.2064
-0.334201
0.0182276
-0.044836
-0.0440433
-0.0305961
-0.437804
-0.0693845
-0.0361319
-0.393819
0.46911
0.00538232
-0.0819375
-0.0558809
0.316917
0.448383
-0.415388
0.361104
-0.359858
-0.197082
-0.38152
-0.310755
0.0479707
-0.0299263
-0.278341
-0.293745
-0.438919
0.00952253
-0.387591
-0.325988
-0.14549
-0.385708
-0.38083
-0.162032
-0.0679043
-0.437519
-0.201962
-0.0745847
-0.0923097
-0.0309517
-0.336686
-0.213148
0.458578
-0.412219
0.504492
-0.0905263
-0.372313
0.0349641
-0.211897
-0.0380144
-0.208816
0.378158
-0.438828
-0.410753
-0.0165484
-0.12803
0.102768
-0.20394
-0.0664271
-0.226064
-0.416195
-0.147814
-0.253369
-0.0919585
-0.0172705
-0.269051
-0.367959
0.115915
0.385343
-0.146643
0.015935
-0.19252
-0.403957
-0.150498
-0.348361
-0.184406
0.444782
-0.0354879
-0.281321
-0.0411661
-0.15027
0.00734428
-0.0425296
-0.0936992
-0.405841
0.139596
-0.368246
-0.438531
-0.224933
-0.165593
0.488518
-0.388764
-0.03049
-0.222683
-0.172418
-0.0399381
0.0135805
-0.155528
-0.285114
0.0837588
0.195365
0.284612
-0.408128
-0.363416
0.103171
-0.240289
-0.326835
-0.0660434
0.503867
-0.0975502
-0.44199
-0.153256
0.463113
-0.118848
0.44808
-0.152324
0.0125098
-0.0679452
-0.0918615
-0.185717
0.0621947
-0.10691
-0.265599
-0.291143
-0.284338
0.181859
-0.389382
-0.160413
0.116288
-0.32618
-0.394676
0.0830726
-0.39934
-0.405366
-0.228755
-0.265565
-0.171329
-0.393884
-0.395465
-0.168594
-0.141043
-0.127367
-0.26452
-0.399517
-0.298576
-0.384595
-0.400851
-0.402819
-0.00182766
-0.420214
-0.196708
-0.425004
-0.117687
-0.0240348
-0.17526
0.457132
-0.379976
-0.328623
-0.344635
0.228262
0.483648
0.224876
-0.114226
-0.0716067
-0.0647156
-0.118154
-0.184339
0.445466
-0.390159
-0.373856
-0.437122
-0.0164855
0.0308026
-0.117005
-0.144602
0.0178075
-0.380859
0.187833
-0.258454
-0.416729
-0.0248837
-0.200199
-0.389767
-0.192539
-0.0259839
-0.208327
-0.215943
-0.416818
-0.121778
-0.130992
-0.218843
-0.149277
-0.201334
-0.272443
-0.135792
-0.189314
-0.362267
-0.226636
-0.240629
0.213196
-0.00946433
-0.00993521
-0.320134
-0.219425
-0.379236
0.0120795
-0.349604
-0.221281
-0.374873
-0.0703231
-0.32528
-0.268981
-0.275845
0.441472
-0.243849
-0.247506
-0.0468682
-0.297188
-0.335028
-0.0127597
-0.361909
-0.254869
-0.282829
-0.24097
-0.304138
-0.0210957
0.0207553
-0.243227
-0.262897
-0.26058
-0.198142
-0.114399
-0.418182
-0.157331
-0.397013
-0.250426
-0.368291
-0.244155
-0.257515
-0.334054
-0.358769
-0.23362
-0.048811
-0.261721
-0.351084
-0.141278
-0.356231
-0.0897594
-0.272342
-0.27396
-0.161126
-0.351456
0.134653
-0.00756401
-0.114705
-0.252756
-0.339277
-0.259649
-0.332293
-0.271293
0.0265512
-0.267987
-0.060845
0.117403
-0.40403
0.0847299
-0.200626
-0.31714
-0.321773
-0.0631604
-0.424239
-0.316105
-0.289918
-0.300343
-0.343159
0.0740233
-0.291914
-0.303305
-0.108537
0.10535
-0.0509806
-0.162853
0.0144913
-0.245233
-0.27534
-0.0674844
-0.327606
-0.158387
-0.152425
0.0860595
-0.153409
-0.149648
-0.130255
0.0156891
0.0267422
-0.115901
0.241048
-0.290036
-0.146173
0.430529
-0.137463
0.0160145
0.213522
-0.329977
-0.3856
-0.043119
0.440293
0.227275
-0.26461
-0.175756
-0.232554
-0.353293
-0.0797648
0.00250389
-0.165934
-0.436716
-0.30566
0.500258
-0.352254
-0.168802
-0.434484
0.0428338
-0.425056
-0.1298
-0.0916528
-0.263576
-0.424136
-0.439094
-0.403097
0.0334162
-0.145713
-0.0788809
-0.0456021
-0.142347
0.00417451
-0.208674
0.513975
0.066212
-0.242694
-0.304495
-0.401828
-0.113229
-0.200187
-0.419298
-0.122453
-0.168781
-0.0458269
-0.191608
-0.176192
-0.310006
-0.145006
-0.439619
-0.233213
-0.242677
-0.344968
0.0935155
-0.114868
-0.152393
0.00485676
-0.233226
0.481009
-0.227371
0.126352
-0.111335
-0.224618
-0.343488
-0.0483045
0.171873
-0.303546
-0.0669456
-0.195457
0.0206549
-0.0312381
-0.0353084
-0.436696
-0.290347
0.00287318
0.239044
0.210888
-0.264
-0.140999
0.416596
-0.202572
-0.256825
-0.100104
-0.189536
-0.429779
0.302328
-0.171424
-0.130636
-0.0438767
0.0798225
0.499818
-0.0611786
-0.422275
-0.144979
0.14033
0.204937
-0.174878
-0.0156348
-0.23111
0.00596517
-0.411257
-0.0463732
-0.162157
-0.120966
-0.206611
-0.0295661
0.0131189
-0.00217847
-0.114413
-0.269488
-0.0606127
0.0280231
0.462835
0.0465412
-0.281458
-0.0709671
-0.0178956
-0.438971
-0.440225
-0.00563347
0.077633
-0.242907
0.136963
0.266031
-0.150127
-0.194737
-0.437459
-0.170816
-0.418077
-0.294827
-0.0470241
-0.296239
-0.0289838
0.0282882
0.0189346
0.315378
-0.201351
-0.344384
0.334961
-0.0492335
-0.164982
-0.101229
-0.3683
-0.400409
-0.0757977
0.0486142
-0.438533
-0.245129
0.00717585
0.478606
-0.0409443
0.0345743
-0.431881
-0.0340863
-0.23511
-0.30054
-0.175382
-0.195258
-0.192794
-0.414306
0.205719
-0.370735
-0.322421
-0.109237
-0.20948
-0.428886
0.4286
-0.436376
-0.415201
0.0246305
-0.30287
-0.0442344
-0.245515
-0.296365
0.0162439
-0.409064
-0.0230994
-0.0144364
0.0552746
-0.0517348
-0.0421926
-0.314582
-0.139967
-0.0414126
-0.0488469
-0.0913955
0.0148294
-0.436146
-0.198512
-0.422869
-0.26759
-0.394313
-0.388534
-0.0664045
0.183611
-0.262519
0.406409
-0.4016
-0.181555
-0.042241
-0.285602
-0.171685
-0.414448
0.499902
-0.12864
-0.0138857
-0.120681
-0.172392
-0.0425923
-0.0439696
-0.364966
-0.185272
-0.381021
-0.256683
-0.0366928
0.496383
-0.284646
-0.0610843
-0.423468
-0.395789
0.014003
-0.134874
-0.0964809
-0.20485
-0.324098
-0.260706
-0.00436066
0.0324597
0.481669
-0.111042
-0.0915208
0.0438429
-0.217465
-0.129852
0.0471107
-0.29331
-0.155504
0.0816944
-0.25421
0.100657
-0.032908
-0.361443
0.0123398
-0.387045
-0.207513
-0.156389
-0.186102
-0.0380385
-0.439141
-0.362829
-0.0699791
0.16734
-0.222696
-0.086271
-0.028578
0.0161949