/*--------------------------------*- C++ -*----------------------------------*\
| =========                 |                                                 |
| \\      /  F ield         | OpenFOAM: The Open Source CFD Toolbox           |
|  \\    /   O peration     | Version:  v2012                                 |
|   \\  /    A nd           | Website:  www.openfoam.com                      |
|    \\/     M anipulation  |                                                 |
\*---------------------------------------------------------------------------*/
FoamFile
{
    version     2.0;
    format      ascii;
    class       surfaceScalarField;
    location    "100";
    object      phi;
}
// * * * * * * * * * * * * * * * * * * * * * * * * * * * * * * * * * * * * * //

dimensions      [0 3 -1 0 0 0 0];
oriented        oriented;


internalField   nonuniform List<scalar> 
22717
(
-0.00178392
-0.0112563
0.0130402
0.000702531
0.108294
-0.108997
-0.0157552
0.0177149
-0.00195972
-0.129317
0.172475
-0.0431583
0.00890308
-0.0087971
-0.000105973
-0.334419
0.00614827
0.328271
0.179322
-0.0368369
-0.142486
0.151416
-0.0828268
-0.068589
-0.223808
0.0230893
0.200719
-0.0134603
0.0116763
-0.0157361
-1.91145e-05
-0.130754
-0.216371
0.00188666
0.00701642
-0.000490332
0.00321021
-0.00271988
0.000252573
-0.0301311
0.0298785
0.110693
-0.10279
-0.00790249
-0.600248
0.0116235
-0.00943049
-0.00219301
0.283841
-0.447163
0.163321
-0.00853801
0.00889504
-0.00035703
0.00391769
-0.000403939
-0.00351375
0.00490414
-0.000986451
0.10557
0.0737529
-0.418015
0.525437
-0.107421
-0.169401
0.108472
0.0609284
-0.153689
0.0701595
0.0835295
0.0153456
-0.0153456
-0.117312
-0.0363766
0.00445569
-0.00302284
-0.00143284
-0.254769
0.0751291
0.179639
0.0165633
-0.0165633
-0.0302793
0.0375983
-0.00731897
-0.648907
0.454451
-0.0430659
-0.280786
0.323852
-0.287624
0.467954
-0.18033
0.140728
-0.127175
-0.0135532
0.0859266
0.0548018
0.0308073
0.0598495
-0.0906568
-0.00864191
0.0088192
-0.000177285
-0.102783
-0.00253665
0.10532
0.12388
0.00483818
-0.128718
-0.107535
-0.00313029
0.110665
-0.229669
0.363941
-0.134272
0.280614
-0.233187
-0.0474263
-0.0153437
0.000252856
0.0150908
-0.10671
-0.30501
0.41172
-0.0111927
0.0129709
-0.00177812
0.00312249
-0.0323573
0.0292348
-0.00166265
0.00117232
0.218191
0.0201931
-0.238384
-0.572864
0.154848
0.0245551
0.00370564
-0.0282607
0.106823
0.0038702
-0.288309
-0.129725
0.379179
-0.249454
-0.17683
0.178239
-0.00140883
-0.050667
0.0883432
-0.0376763
-0.00418274
0.0287378
-0.000315082
-0.00819809
0.00851318
0.0151757
-0.015678
0.000502317
-0.00152813
-0.00355832
0.00508645
0.0252887
-0.0221662
-0.00944509
0.136975
-0.12753
-0.19845
0.0601867
0.138263
-0.162802
0.426624
-0.263821
0.239175
-0.369929
0.114361
-0.101556
-0.0128057
-0.0369573
0.00667793
-0.108042
-0.313875
0.421918
0.0138113
-0.479767
0.465956
0.260827
-0.0773144
-0.183512
0.22699
0.0361926
-0.263182
-0.0615769
-0.107824
0.00416592
-0.00229515
-0.00187078
-0.0810383
0.0993312
-0.0182929
0.00537683
-0.00713041
0.00175358
0.124594
-0.000714003
-0.0073865
-0.126816
0.134203
0.0237914
0.0159165
-0.0397079
-0.361193
-0.160409
0.521602
-0.00761561
0.00031315
0.00730246
0.0115452
-0.0115452
-0.00893489
-0.000754813
0.0096897
0.145732
-0.149125
0.00339239
0.00673736
0.00982591
0.500773
-0.607483
-0.222363
0.506205
-0.0167652
-0.188758
0.205523
-0.120154
-0.0125498
0.132704
0.00548646
-0.00777788
0.00229142
-0.163027
0.184691
-0.0216638
-0.294891
0.401429
-0.106539
0.0278385
-0.0357716
0.0079331
-0.00863592
0.00832084
-0.229829
-0.0726266
0.302455
0.634876
-0.469147
-0.165729
-0.244989
0.209545
0.0354439
0.287829
0.229699
-0.517528
0.257892
-0.619085
0.206601
-0.436269
0.00716473
-0.00178791
-0.131747
0.136333
-0.00458671
0.190584
-0.193249
0.00266488
-0.0483629
-0.28632
0.334683
-0.233547
0.0097384
-0.406208
0.276483
0.112777
-0.0123638
-0.100413
-0.001342
-0.0123074
0.0136494
0.177837
-0.118108
-0.0597291
-0.00247135
0.00149311
0.000978237
-0.136111
-0.00502312
0.141134
-0.253654
-0.21136
0.465014
0.134165
-0.350536
-0.0700892
-0.032701
-0.223987
0.207222
0.104826
0.156001
-0.00959515
0.0374337
0.00795822
-0.00247176
-0.116361
0.0088263
0.00590126
0.00166866
-0.00756992
-0.0988912
0.103033
-0.00414152
0.00354729
-0.00164396
-0.00190333
-0.0517946
0.0715666
-0.019772
-0.155652
0.39065
-0.234998
0.103387
-0.361586
0.258199
-0.0839604
0.0332934
0.369638
-0.611851
0.242213
-0.00449253
-0.179278
-0.1879
0.367178
0.00928509
-0.0105342
0.00124915
-0.0141022
-0.00124148
-0.540538
0.514883
0.0256545
-0.0915523
0.105696
-0.0141433
0.131366
-0.138753
-0.512566
0.642227
-0.129661
-0.00971477
0.000779882
0.0120202
-0.00756456
-0.110076
0.100631
0.0829783
0.0684375
-0.168065
0.00503828
-0.134663
0.0145091
-0.144817
0.142672
0.00214465
-0.029303
-0.570945
0.00101927
0.00205694
-0.00307621
0.0644795
-0.0336722
0.00129359
0.00287233
0.00344464
-0.00344464
-0.141114
0.096703
0.0444109
0.0011201
-0.00860059
0.00748049
-0.306464
0.0460511
0.260413
0.0350903
-0.0342536
-0.000836713
-0.263756
0.367143
-0.302274
0.0724451
-0.00423323
0.00324572
0.000987511
0.503295
0.157064
-0.660359
0.0147848
-0.0116519
-0.00313298
0.000153517
-0.00879543
-0.0205465
0.0169245
0.00362199
0.0458971
-0.0483306
0.00243357
0.0134809
0.489814
0.145656
-0.00885467
-0.136801
-0.0695479
0.0177533
-0.146353
0.198345
-0.0519923
-0.00759956
0.00862154
-0.00102198
0.0102938
-0.0128719
0.00257814
0.0122672
-0.00197341
0.410585
-0.525253
0.114668
0.0446447
-0.00723769
-0.037407
-0.00665984
-0.0045329
-0.0230079
0.0915567
-0.0685488
-0.117907
0.0478174
0.00655182
-0.00907821
0.00252639
0.0281205
0.0496525
-0.077773
-0.044446
0.153919
-0.109473
0.21314
-0.373549
-0.682693
0.372812
0.309881
-0.0680434
-0.00630055
0.0743439
-0.0562627
0.0332548
-0.00109496
-0.0977963
0.0732762
-0.117722
0.0446447
0.00215965
-0.00368778
0.195597
-0.224381
0.0287841
-0.0116994
0.207297
0.00108274
-0.00932739
0.00824464
-0.0117756
-0.213726
0.225501
-0.162583
0.0332664
0.00125214
0.0104035
-0.00111839
0.0128198
-0.0166699
0.00385013
-0.1331
0.102831
0.0302687
0.279202
-0.0346577
-0.244544
-0.173449
0.111872
0.0156478
-0.119079
0.103431
-0.00311042
0.00353205
-0.00042163
-0.437191
0.480149
-0.0429578
0.0142245
-0.0134432
-0.000781352
-0.106172
0.380374
-0.274201
0.00627263
-0.00438597
-0.0774382
-0.167551
-0.105519
0.0139667
0.123722
0.0175544
-0.141277
-0.013173
0.0167381
-0.00356509
-0.0159452
0.0166627
-0.000717513
0.0183214
-0.146202
0.127881
-0.376332
-0.306361
0.0723139
-0.00209928
-0.0702146
-0.150215
0.0484325
0.101782
0.0130427
-0.193271
0.180228
0.0136385
-0.164118
0.150479
0.169706
-0.383626
0.21392
-0.00269066
-0.00154258
-0.0296748
-0.225094
-0.0655583
-0.0325836
0.0981419
0.0243005
0.0480133
-0.000560452
-0.00153965
0.03663
-0.159312
0.181252
-0.0219401
-0.0247738
0.00401835
0.0207555
-0.42614
0.270489
0.298389
0.189014
-0.487404
-0.218412
0.0203942
0.198018
-0.37089
0.293466
0.0774241
-0.103729
0.13268
-0.0289504
0.111931
-0.138875
0.0269437
0.359901
-0.460073
0.100171
0.00941804
-0.00941804
0.172463
-0.199422
0.0269594
-0.0770217
0.0795267
-0.00250502
0.182685
-0.448971
0.266286
0.450184
0.0900796
-0.540264
-0.0010984
-0.000564247
-0.0241921
0.00528069
0.0189115
-0.000944417
0.115788
-0.160859
0.0450706
-0.100172
-0.163488
0.00417594
-0.647955
0.429818
0.218138
0.0821198
-0.066472
-0.0116672
0.00883257
0.00283462
0.0903557
0.087481
-0.00281635
0.00117239
-0.205166
0.19214
0.013026
-0.0165313
0.00335829
-0.267301
0.566117
-0.298816
0.143451
0.159962
-0.303413
-0.00371149
0.0319849
-0.0298859
-0.00209902
0.0322541
-0.000269208
-0.0183998
0.00245456
-0.012577
0.0131529
-0.000575859
-0.50788
-0.0326579
-0.162279
-0.201816
0.0554634
-0.0128072
0.0133008
-0.000493672
-0.172891
0.00482631
-0.00886494
0.0104084
-0.00154345
-0.447139
0.46095
-0.0996169
0.117938
-0.0145461
0.0145461
0.340026
0.223791
-0.563818
-0.478712
0.129392
0.349321
0.0440061
-0.378426
-0.336371
0.228329
-0.503201
0.0425629
0.460638
-0.00605034
0.0519474
0.00787432
-0.00722176
-0.000652558
0.00121964
-0.205954
0.362439
-0.156485
0.0428763
-0.0426237
-0.008878
0.00996075
0.000134369
0.00773995
0.473759
-0.291074
-0.00434032
0.00564556
-0.00130524
0.171369
0.0700015
-0.241371
0.341579
-0.281275
-0.060304
0.0192453
0.114964
-0.134209
-0.039062
-0.159388
-0.0293537
0.00321021
-0.00531634
-0.00194675
0.00726309
-0.388458
-0.0330493
0.421508
-0.164121
-0.00877087
0.267417
-0.264026
-0.00339102
-0.00595763
0.00707773
0.0127069
0.00207791
-0.308542
-0.00988212
0.318424
-0.261974
0.206009
0.0559645
0.39056
-0.241015
-0.149545
0.0116912
0.000575978
0.0382869
-0.333178
-0.0158634
-0.0878984
0.103762
-0.0322912
-0.0778701
0.110161
-0.274338
0.10988
0.164458
-0.0224528
-0.367473
-0.111239
0.0144009
-0.126429
0.112028
-0.380637
0.0930134
-0.0104496
0.00158462
0.314863
0.0757874
-0.0077159
-0.0039513
0.16999
-0.114828
-0.0551614
0.066917
-0.0757763
0.0088593
0.469964
0.076504
-0.546468
-0.00790128
0.0316927
0.0114388
0.00025243
-0.275144
-0.0787902
0.0870939
-0.0083037
-0.0457712
0.180969
-0.135198
0.00896884
-0.00980505
0.000836213
-0.332016
-0.0170592
0.349075
0.143358
0.00237393
0.00814835
0.0634689
-0.0716172
-0.0846574
0.00586728
0.438431
-0.147348
-0.291083
0.117163
0.204651
-0.321814
0.00400331
-0.00490857
0.000905264
0.0988875
-0.126645
0.0277579
-0.0279366
0.00374442
-0.118466
-0.0146332
-0.356238
0.193436
0.00982773
-0.00982773
-0.00425894
0.00253828
0.00172066
0.0333204
0.175139
-0.208459
-0.00400516
0.0013145
0.0103193
-0.000285193
-0.0100341
-0.0716829
-0.00533879
0.0763293
0.196089
-0.272418
-0.112577
-0.193887
-0.306172
0.564065
0.100135
0.0698548
-0.274041
0.20723
0.0668108
0.0793192
-0.111957
0.0326381
-0.0621951
0.100047
-0.0378516
-0.00068837
-0.131058
0.142768
-0.0190451
0.000865865
-0.00520618
0.00647397
0.00887164
-0.0143461
0.0156031
-0.00125703
-0.0357664
-0.141064
-0.150716
0.142373
0.00834266
0.391059
0.165751
-0.55681
-0.139506
-0.0112102
-0.27042
0.0776066
0.192813
0.107342
-0.153113
-0.310847
0.267782
0.123213
-0.127334
0.00412118
0.570545
-0.193939
-0.376606
-0.00187662
0.00402555
-0.00300627
0.0108523
-0.00188349
-0.0379435
0.264933
0.0522635
0.0392932
0.0158219
-0.0165257
0.00070387
-0.0903108
0.3887
2.97186e-05
0.115938
-0.115967
-0.169408
0.185175
-0.0157672
-0.137653
0.192092
-0.0544393
-0.15353
0.15871
-0.00518004
-0.0877393
-0.220802
0.141994
-0.180481
0.0384869
0.259242
0.00817506
-0.0672859
0.0881786
-0.0208928
-0.138253
-0.0119618
0.0107189
-0.00952854
-0.0104443
-0.0101021
0.178906
-0.036912
0.284944
-0.276732
-0.00821166
0.674516
-0.247676
-0.426841
0.0740319
-0.00711494
-0.0189435
0.237135
0.173368
-0.184066
0.0106981
0.0342298
-0.0354097
0.00117991
0.262795
0.175636
0.111242
0.0319126
-0.0385692
0.00665659
-0.135328
-0.235562
-0.0228384
-0.0417844
0.0646228
-0.00201399
-0.00199117
-0.0777237
0.468783
-0.0745117
-0.199826
-0.0106781
0.0113119
-0.000633778
0.0757473
0.0386142
0.194937
-0.206712
0.259049
0.21471
-0.143633
0.00752158
0.0840889
-0.0559684
0.10026
0.0136498
-0.11391
0.000122353
0.36761
0.0983637
-0.465974
0.227169
-0.0557995
0.491747
-0.232698
0.11872
-0.0184599
0.0941252
-0.0897207
-0.00440448
-0.0961282
0.127922
-0.0317937
0.126156
-0.00294314
-0.299328
0.221372
0.0779553
0.131792
-0.0898511
-0.0419413
0.00954726
-0.01244
0.00289275
-0.146143
-0.00738753
-0.166577
0.0204343
0.00226023
-0.00717786
0.00491764
-0.216887
0.293216
-0.0517471
-0.237119
0.288867
0.142011
0.0167
0.0657052
-0.0911377
0.0254325
-0.0367884
0.0254571
0.0113314
0.0836946
-0.0342682
-0.0494264
0.0845888
-0.11688
0.140704
0.0026549
0.00740256
0.0130869
-0.00119379
-0.00127755
-0.115118
0.131914
-0.0167959
0.00649788
-0.00249458
-0.00271807
-0.00154087
-0.304662
0.0443436
0.260318
0.0421776
-0.00549161
-0.036686
-0.00651968
-0.138297
0.180604
-0.029378
-0.151226
-0.016662
0.0163809
0.000281105
0.00352324
0.329866
0.120757
-0.133306
-0.0987228
0.0477876
0.0509352
0.135907
0.00646671
0.0059553
-0.00577276
-0.000182539
-0.269813
0.271327
-0.001514
-0.0142201
0.0142201
0.00172267
0.00892706
-0.0106497
0.095921
-0.113257
0.0173359
0.010476
0.00410001
-0.014576
0.00281172
-0.0110919
0.00828018
0.00142285
-0.000878759
-0.00054409
-0.031195
-0.109919
-0.0112467
0.00985624
0.00139041
-0.0175935
-4.74212e-05
0.0176409
0.481085
-0.0464333
-0.434652
0.22616
-0.405438
0.0989802
0.0256664
-0.124647
-0.00924449
-0.000167926
0.00941242
0.168095
-0.435986
0.267891
0.119074
-0.0397549
0.00311524
0.173154
-0.17627
0.0113876
-0.0826882
0.0713006
-0.00720689
-0.00133112
0.154959
-0.0190527
-0.167916
0.00442764
0.0810988
-0.0983285
0.0172296
-0.00257792
-0.0826269
0.0153411
0.146235
-0.0304475
-0.210066
0.230259
0.00390901
-0.0122926
0.00838358
-0.003585
0.00749401
-0.212174
-0.113318
0.325492
0.00332581
0.00157833
-0.00174794
-0.00106841
-0.158511
-0.00940485
-0.00241408
-0.0297896
0.119575
-0.0897858
0.0216608
-0.124444
0.0124888
-0.00294153
-0.190818
0.0531651
-0.187607
0.220928
-0.210482
-0.0170689
0.227551
0.246257
-0.352429
-0.130199
0.0393416
0.090857
0.0628262
-0.0546778
0.00947584
-0.126011
0.126714
-0.103676
0.00212069
0.321935
0.0456748
-0.577961
0.338717
0.239244
-0.349313
0.0172973
0.00190905
0.00726815
-0.0091772
0.0369588
-0.00504612
-0.00926342
0.00958631
-0.000322893
-0.00497741
0.00688647
-0.136628
0.0328984
-0.0138906
0.0137878
0.000102755
0.207057
-0.232261
0.0252038
-0.00865355
0.00103795
-0.273125
0.011151
0.386526
-0.461483
0.0749562
0.554484
-0.296632
-0.257851
-0.0042264
0.0820284
-0.077802
0.25756
0.230821
-0.488381
0.00493544
-0.00201776
-0.00291768
-0.572969
0.302672
0.270297
0.0438074
-0.211292
0.167484
-0.512905
0.0925676
0.420337
-0.0604534
-0.0382694
0.0386796
0.059316
-0.0979956
-0.581552
0.275379
-0.162567
-0.136761
0.141402
0.0756653
0.104939
0.0419236
0.116863
-0.158786
0.000800095
0.0051552
0.241743
-0.318879
0.077136
-0.11161
-0.114162
0.0146149
-0.00413894
0.00148819
-0.198427
0.196939
-0.203673
0.42097
-0.217297
7.40962e-07
0.212874
0.0806663
-0.29354
-0.0299658
0.141535
-0.111569
0.0710065
-0.00530129
0.351313
0.323203
0.49709
0.0164451
-0.0161953
-0.000249813
0.126649
-0.0116626
-0.114986
-0.0139579
-0.0993693
0.113327
0.220731
0.0773866
-0.298117
-0.114956
0.138045
-0.171991
-0.197195
0.369186
-0.0486095
-0.00765321
-0.0747623
0.0798886
-0.00512634
0.618895
-0.349644
-0.269252
0.00114497
-0.0651642
-0.0251448
0.0903089
0.0038634
-0.00170375
0.00640309
0.000761649
0.215093
-0.31661
0.101516
0.0619883
-0.0662147
0.0243228
-0.030362
0.00603928
0.00134832
0.00764237
-0.00899069
-0.0164525
-0.00114097
0.250657
-0.0436001
-0.00909886
-0.0234722
0.0325711
0.0628861
0.0689063
-0.0186211
0.117509
-0.00366317
0.00284281
-0.00324674
-0.0133797
0.0124353
-0.00571864
0.00559965
0.000118989
0.0052236
-0.00384286
-0.00138074
0.00129947
-0.00485778
0.0435006
0.268064
-0.266576
0.257569
-0.253404
-0.00416521
-0.0156137
0.178282
-0.162668
0.541637
0.0383257
-0.579962
-0.102444
0.124105
-0.158558
0.161409
-0.00285111
0.0129185
-0.000658437
0.119188
-0.14917
0.0299815
0.150457
-0.142427
-0.00802941
0.104717
-0.134506
-0.0340911
0.00420525
-0.0147613
-0.00238013
0.0171414
0.00555662
-0.00186896
-0.00368765
-0.130327
0.115421
0.0149059
-0.107356
0.0417974
-0.331782
-0.246179
0.280787
-0.273726
-0.007061
-0.0221161
-0.00752969
-0.154605
0.162134
-0.0272734
-0.00681767
-0.371646
0.0962609
0.275385
0.222529
0.0100348
-0.232564
-0.137533
-0.000375072
0.137908
0.00362521
-0.0175158
-0.10212
0.109716
-0.00759621
-0.00112456
-0.00656887
0.00769343
0.0182574
0.105792
-0.12405
0.00741337
-0.000957036
-0.00645633
0.245975
0.221979
-0.237467
-0.0365743
0.467932
-0.145389
-0.0171944
0.00274707
0.00352555
-0.171342
0.155728
0.0037009
-0.0284747
0.219133
-0.422806
0.169342
0.0432585
-0.2126
-0.00678134
0.00128782
0.00549352
0.108085
-0.496543
-0.0227835
0.113139
0.00693567
-0.00521301
0.00587901
0.00574448
0.000318752
-0.0163946
0.0160758
-0.246006
-0.180134
-0.297402
0.22289
0.102048
-0.218493
0.116444
-0.000345645
-0.0297854
0.0810176
-0.0992141
0.0181965
-0.214416
0.0182249
0.196191
-0.0134335
-0.466334
-0.562787
0.0502209
0.287777
0.266707
0.0735197
-0.0776233
0.00410365
-0.147819
0.142317
0.00550148
0.00967978
-0.00768239
-0.00199739
-0.000523441
-0.0051952
0.0221294
-0.261315
0.239186
0.155817
-0.0635357
-0.092281
0.285878
-0.00667646
-0.110495
-0.194166
0.0518437
-0.033238
-0.0186057
-0.350665
0.0191689
0.331496
0.00197343
0.228642
-0.230615
0.00628878
-0.00226323
-0.31094
-0.201965
-0.0117102
0.012597
-0.000886819
-0.00389908
-0.0708632
0.107009
0.103523
-0.117481
-2.38329e-05
0.0299989
-0.00567609
0.244383
-0.122911
-0.121473
0.0361586
-0.0452574
-0.0121117
0.0822713
-0.205714
0.015698
0.190016
-0.10322
0.472859
0.152451
0.0209164
-0.156348
0.160127
-0.00377837
0.0282096
0.0236341
0.137138
-0.214452
-0.6189
0.305503
0.313397
-0.00842238
-0.028366
-0.0270701
-0.410121
-0.0222829
-0.00543301
-0.0244443
-0.021848
-0.115685
-0.00027577
0.00251654
-0.225296
0.22278
-0.610187
0.337399
0.272788
0.472181
-0.224049
-0.248132
0.202524
-0.0553772
-0.147146
0.339943
0.278952
-0.00322498
0.0060367
0.279094
-0.0662202
0.145715
0.00474184
-0.0154727
0.0151291
0.000343685
0.548785
-0.0425048
-0.50628
0.0737359
-0.294588
0.220852
-0.00275212
-0.0127206
0.185902
-0.163014
-0.0228886
8.70124e-05
0.0567579
-0.056845
0.0252305
-0.0264276
0.0011971
0.192287
0.198273
0.0103766
-0.0747086
0.405153
-0.330444
-0.00725065
-0.00518936
0.0704028
-0.111552
0.0411494
0.0147244
0.0195408
-0.115669
0.00783348
0.000124742
0.000514244
0.0712849
-0.0871482
-0.10525
-0.193002
0.495938
-0.302936
0.0249042
-0.0209829
-0.0455923
0.0665751
0.00575424
-0.000902009
-0.00485223
0.162965
0.0207074
-0.0148284
0.226495
-0.0100389
0.00894863
-0.21943
-0.000526358
0.452062
-0.0921603
-0.142319
-0.229326
0.138685
-0.105949
-0.0327354
-0.120919
0.139177
-0.320364
0.11441
0.194254
-0.230407
0.0361532
-0.383456
0.241137
-0.0480636
0.00652002
-0.00764458
-0.0347103
-0.179706
-0.016167
0.0167739
-0.000606893
0.00454847
0.00495211
0.000271489
0.355109
-0.0201066
0.00534535
-0.0953666
0.238818
-0.133482
0.583666
-0.139819
0.133668
0.0061506
0.17865
-0.165607
-0.205866
-0.00717072
0.213037
0.00875326
-0.00564338
-0.00310988
-0.227335
0.229308
0.110491
0.092033
0.113104
0.00793527
-0.121039
0.0753916
-0.392024
0.316633
0.207664
0.341121
-0.0118762
0.00462553
-0.0716132
-0.0044545
0.0760677
0.469113
-0.181284
0.161204
0.409341
-0.135479
0.154724
-0.50917
0.410172
0.098998
0.000191607
-0.158073
0.13529
0.00614545
0.00168802
-0.0334387
0.0356524
-0.00221372
0.425655
0.0474222
0.105465
-0.152887
0.00250836
0.0129799
-0.0154883
-0.127554
0.173878
-0.0463242
-0.592956
0.296324
0.100337
0.000989684
-0.101327
0.218673
-0.0493317
0.376307
0.0733858
-0.0211223
0.00549412
0.00325915
-0.202841
-0.00232527
-0.0015229
-0.00158752
0.117467
-0.0184864
-0.21691
0.0140683
0.443759
0.127261
-0.571021
0.0107189
-0.0458625
0.0351436
0.0178716
0.425888
-0.223666
0.148008
-0.141845
-0.00616379
-0.287751
0.606302
-0.318551
0.338337
-0.242076
-0.148543
0.00872465
-0.0906231
0.00995563
0.0806674
0.00168389
0.00986135
0.00412155
0.0014781
-0.0646085
0.0726553
-0.00804682
-0.12603
-0.32261
0.448639
-0.00721824
0.00190189
-0.0133797
0.00436845
0.168088
-0.172457
-0.00788065
0.00797745
-9.67974e-05
-0.0265641
-0.0898188
0.116383
-0.107151
0.111813
-0.00466171
0.0119232
0.0513523
-0.00643031
0.00837375
-0.00194344
-0.105375
0.101135
0.00424024
-0.00866231
0.00939144
-0.000729123
0.00817797
0.0921591
0.212294
-0.0371555
-0.0257662
0.0947869
-0.0690207
0.0828028
0.055882
0.0659714
0.00268494
-0.0686563
-0.19186
0.371749
-0.179889
-0.0949289
0.108567
-0.00253871
0.00909054
0.100845
-0.122606
0.00644765
-0.220173
0.000970555
0.00961265
-0.000149642
-0.00946301
0.000900859
-0.000503508
-0.2174
0.334563
0.0933397
0.0253727
-0.118712
0.0108539
-0.000450385
-3.43343e-05
-0.0120267
0.0120611
0.0163928
-0.00109231
-0.0153005
-0.403335
0.171715
0.23162
-0.0490471
0.0737637
0.082053
0.000324447
0.00109609
-0.000596836
-0.000499255
-0.197505
0.237424
-0.0399185
-0.00910232
0.00267201
0.0039224
0.511099
-0.515021
0.0556083
0.0280863
0.229545
-0.0113394
-0.218205
0.000919549
-0.206634
-0.00178788
-0.00764261
-0.367505
-0.000262099
0.00622959
-0.0059675
0.217228
-0.22438
0.00715259
-0.0301519
0.164647
-0.169684
0.00503712
0.12237
-0.131225
-0.00237418
-0.00917106
0.458229
-0.561449
-0.359766
-0.0762203
0.00700385
-0.00839401
0.00139016
-0.000581186
-0.0137649
-0.00973202
-0.524701
0.2574
-0.202639
0.00936826
-0.000486575
-0.0116705
0.0121571
0.164115
-0.160033
-0.00408224
0.00259183
0.00682622
0.0363384
-0.0299588
-0.00637961
-0.213641
-0.00477038
0.540872
-0.253095
-0.00131408
0.00357431
-0.0852433
0.0594771
-0.00182486
0.00594641
0.226531
-0.224015
0.113134
-0.157525
0.160069
-0.00254401
0.151767
-0.532825
0.519391
-0.217185
0.0196801
-0.0650039
-0.0616415
-0.0425936
0.0426806
0.133126
-0.135932
0.00280637
0.543107
-0.0282237
-7.44741e-06
0.0152659
0.0582538
-0.108402
-0.192023
0.300424
0.0208584
-0.371524
0.164057
-0.161232
-0.00282505
-0.485766
0.274406
0.0458264
0.0535047
0.108628
-0.135192
-0.35475
-0.0672334
0.421983
-0.188085
-0.195541
-0.306618
-0.305234
0.329508
-0.244363
-0.0851448
-0.493841
0.254184
0.239657
-0.441826
-0.131144
0.0363114
0.0019289
-0.0382403
0.0246991
-0.157954
0.133255
0.138873
-0.146403
0.0101759
-0.000563242
0.0010266
0.457202
0.161153
0.240277
0.0793672
0.21575
-0.295118
-0.0210259
0.0254721
-0.0044462
0.0153145
-0.0166565
0.00455156
-0.00122575
-0.181157
0.234421
-0.0532636
-0.606749
0.300131
-0.000876806
-0.3733
0.0925138
-0.0017386
0.00371855
-0.00197995
-0.220854
0.229803
0.13353
0.0191721
-0.152703
-0.114442
-0.00191871
-0.0121858
0.0129483
-0.00076254
0.091741
0.243033
-0.334774
-0.10485
0.42639
-0.321541
-0.00262682
-0.0158879
0.0158536
0.196841
-0.245812
0.0489711
-0.179803
0.177249
0.0025539
-0.415366
-0.0098549
0.125276
0.244782
-0.0505276
0.250964
-0.0541235
-0.259837
0.0358502
0.423777
-0.121105
-0.0016025
-0.0105833
-0.213267
0.0472038
0.166063
0.57088
-0.409676
-0.0100177
-0.0298842
0.0399019
0.00213415
-0.00875179
0.00661764
-0.0124866
0.0124866
-0.000132976
-0.155223
-0.00629251
-0.301744
0.481882
-0.180138
-0.0107416
0.140728
-0.0257642
-0.120687
0.0300637
0.0205325
-0.20814
0.130306
0.0271658
0.0101919
-0.189995
0.00698947
0.00098798
-0.0333762
0.134227
-0.100851
-0.092823
-0.169002
0.0118151
0.157186
-0.00428895
-0.152699
0.156988
-0.165265
0.321005
-0.155739
-0.00129069
0.00473533
-0.115585
-0.214008
0.329593
0.202948
-0.19072
-0.0122281
0.0045259
0.00197198
-0.0298986
0.0309711
-0.00107255
-0.248181
0.323573
-0.00166775
0.00326493
-0.00159718
0.00268097
0.00307328
0.463037
-0.54076
0.306875
-0.233253
-0.0736217
0.0165439
0.10695
-0.123494
-0.0369029
0.0268853
0.0357751
-0.271049
0.500748
0.0275292
-0.185529
0.158
0.222257
-0.209217
-0.0130401
-0.0247344
0.0291499
-0.00441546
-0.00381037
-0.00332004
-0.00114398
0.00578044
-0.00463646
-0.0463126
0.0577002
-0.297702
-0.105633
-0.0020724
-0.0815433
0.0100796
-0.0877273
0.0776477
-0.209447
0.284613
-0.0751665
0.0075197
-0.00231951
0.0444971
0.0696474
-0.571031
0.606408
-0.0353765
0.237496
-0.0202682
0.0150913
0.00561608
-0.00813058
-0.0218579
0.0299885
-0.361499
0.252717
0.0621453
0.000266358
-0.00646909
0.00620273
-0.178557
-0.226912
0.405469
0.030134
-0.0142026
-0.0159314
0.0526517
-0.0852353
-0.195559
-0.308852
0.504411
-0.453741
0.138254
0.315487
-0.0141906
-0.219703
0.226151
0.000982333
0.00908003
-0.0100624
-0.0487248
0.0495888
-0.000863974
0.121525
0.220055
0.283796
-0.0930001
-0.190795
0.130484
0.0244754
0.238623
0.0463208
0.157744
0.000143418
-0.157887
-0.0100879
0.140572
0.132783
-0.0301734
-0.10261
0.0494476
-0.404197
-0.466607
-0.00332191
-0.0015259
0.0048478
-0.191947
0.212479
-0.261256
-0.232585
0.0020424
0.00424639
-0.0022778
-0.00517152
0.00744932
-0.306107
-0.0345194
0.340626
0.0425571
-0.00422248
-0.0383347
-0.225611
0.444744
0.126774
0.157022
-0.120289
0.308736
-0.188446
0.000240615
-0.00965322
0.00941261
0.00839923
0.000270057
-0.00866929
-0.0591749
0.274268
-0.294883
0.0183654
0.276517
-0.00511877
0.00565426
-0.000535486
-0.12279
0.152428
-0.152803
0.233425
-0.281788
-0.107893
-0.0303846
0.138278
-0.295332
0.285652
0.00967944
0.0270865
0.182459
0.293718
0.086656
0.0146922
-0.133771
-0.00475146
-0.00578278
0.216317
0.196891
-0.184388
-0.0125033
0.00109258
-0.147073
-0.147515
0.00312277
-0.0145952
0.0114725
-0.0208981
0.116819
-0.0378592
-0.195688
0.329535
0.182149
-0.511683
0.000595882
-0.00571465
-0.121049
0.0913807
0.0296685
0.452199
-0.402751
-0.0088134
-0.110544
0.119358
-0.33769
-0.112889
-0.0221748
0.135064
-0.00113196
0.0131417
-0.0120098
0.337822
0.267649
-0.60547
0.0331975
-0.0073166
-0.0258809
0.380065
0.0721336
0.00762867
0.00254722
-0.0742026
0.1167
-0.0424974
0.0898555
-0.0745896
-0.0200182
0.000217332
-0.464075
0.162332
0.00470866
-0.000182754
-0.438493
0.0203478
0.418145
0.0181073
0.239462
-0.000473831
-0.0029708
-0.00239974
-0.00160633
0.00400607
0.0544822
-0.0987982
0.044316
-0.00225785
0.00122827
-0.00494374
0.00371547
0.116694
-0.0655751
-0.0511185
0.00218377
0.0134194
-0.0237317
0.0344506
0.0121999
-0.0257205
-0.00294967
0.0286702
-0.109599
0.0860819
0.0235171
0.0943784
0.109437
-0.203815
0.033543
0.0226163
-0.0561592
-0.106687
-0.0424383
0.0158559
0.527251
-0.113848
0.0290076
0.0848405
0.130301
0.0233636
-0.153664
0.062705
0.0700784
-0.0140647
0.0116906
0.0214993
-0.0312854
0.00978615
0.376397
-0.138061
-0.238336
0.064441
-0.023404
-0.041037
-0.302855
0.0837119
0.219143
0.0968347
0.0116317
-0.108466
0.361621
-0.4804
0.11878
0.0125456
-0.0100372
0.382503
0.183615
0.000139676
-0.00744453
0.00730486
-1.25694e-05
-0.00870007
0.00871264
-0.00573244
0.126489
-0.120522
-0.00590718
-0.00323343
0.0122989
-0.00906546
0.0826037
-0.513144
0.407212
0.105931
-0.032742
-0.131376
-0.0123623
0.0423527
-0.116555
-0.526963
0.481587
0.0453754
0.0348745
-0.335693
0.143833
0.0956278
0.0768474
-0.0676288
0.0375789
0.00371039
-0.00242258
-0.000183296
0.0106878
-0.0105045
0.341092
0.259952
-0.601043
0.00553402
-0.00522087
-0.0465642
-0.122844
0.112132
-0.120945
-0.0113886
0.0748575
0.00329896
-0.063502
0.119487
-0.0559848
-0.382916
-0.144047
0.0735252
-0.0238726
0.00289972
0.196427
0.00503902
0.00950709
0.512394
-0.43589
-0.12738
0.456915
-0.386218
0.0152253
0.370992
0.150702
0.417354
-0.568056
-0.0303815
0.323847
0.048774
-0.015231
0.134679
0.101414
-0.15531
0.0234624
0.131848
0.0129707
-0.451463
0.178493
-0.343759
0.00596513
0.00240862
-0.0390478
0.0294526
-0.349989
0.153937
0.196052
0.157469
-0.00452677
-0.152942
0.000304023
0.000727649
0.0302546
-0.0213868
-0.00886771
0.0200117
-0.165401
-0.0128918
0.122032
-0.10914
-0.0108904
-0.26027
-0.193472
0.25677
-0.220578
0.110123
0.0262099
0.349732
0.122449
0.0106826
-0.010442
-0.559628
0.0904807
-0.521564
-0.0494668
-0.00442645
0.00565472
-0.22337
0.145931
0.12561
-0.019818
-0.000114828
0.00159495
-0.00148012
0.153724
-0.0528793
-0.256412
-0.312685
0.140693
0.130525
0.00320094
-0.00523913
0.00203819
0.010227
-0.00669497
-0.0134384
-0.000509917
0.0139483
-0.493572
-0.453451
-0.223157
0.302524
-0.31822
-0.288529
0.0384106
-0.239691
0.373257
-0.133566
0.588241
-0.498162
0.337998
0.133222
-0.160717
0.0274941
0.0995329
-0.413408
-0.464436
0.338406
0.0065658
0.00311399
-0.0011205
0.00964052
-0.00852002
0.211327
0.0132006
-0.224528
0.000341817
-0.370328
0.245355
0.124973
-0.198004
-0.0078629
-0.000151645
0.0134581
-0.0133065
0.0751541
0.0415395
0.121326
-0.191667
0.0703412
0.00824881
-0.00393639
-0.00431241
-0.0144631
0.000580399
0.0138827
-0.0261834
-0.0017532
0.389692
0.0970859
-0.486778
-0.11298
-0.00146184
0.00354736
-0.0109641
0.00741677
0.0645617
0.013198
-0.00962966
-0.00356834
0.00537016
0.00287865
-0.00588186
0.00393511
0.081458
-0.0154866
-0.203558
0.246817
0.20093
0.0364933
-0.011644
0.0527534
-0.0230856
-0.0296679
-0.208186
-0.0802806
0.288467
-0.0440309
-0.00933586
0.0102127
-0.000876865
0.137912
0.00835146
-0.146264
-0.00569168
-0.00338653
-0.570638
0.282888
0.444968
0.14258
-0.587548
0.00132182
-0.10141
0.120063
-0.0186531
-0.00552026
0.00533697
-0.179236
0.015433
0.163803
-0.60416
0.316195
0.287964
-0.108094
0.00405963
0.104034
-0.0344567
0.00449791
0.00494457
-0.0585277
0.0972073
-0.0673934
-0.0532934
0.108179
-0.0113444
0.0091263
0.000701435
0.282827
0.0240479
-0.000862952
0.147949
0.00714701
-0.155096
0.0983298
-0.100488
0.00215837
0.00230748
-0.130571
0.128264
0.00566839
-0.00794619
0.445995
-0.128397
0.130704
0.00150712
-0.00619607
-0.00914954
0.530658
0.0184982
-0.549156
0.0292031
0.433834
-0.0969854
0.109115
-0.0121299
0.163838
-0.030616
0.361422
0.265135
-0.626557
-0.00945806
0.0134199
-0.00396189
-0.0693201
0.178757
-0.155083
-0.251126
0.122123
-0.606924
0.484802
-0.0074775
0.00774386
0.0123047
-0.013278
0.000973211
-0.00604343
0.00621582
-0.000172392
-0.612404
0.280622
0.431551
-0.0337742
-0.397777
0.0101725
-0.105315
0.040478
-0.0747462
-0.00267999
-0.139463
0.142143
-0.0323226
-0.0049008
0.0372234
0.166341
-0.154545
-0.0117961
-0.214413
0.212582
0.00183013
-0.573711
0.544408
-0.00927801
-4.36508e-05
0.00932166
-0.127038
-0.0254121
-0.00568669
0.0310987
-0.0013395
0.0122838
-0.0109443
0.155461
-0.130762
0.0294388
0.0901366
-0.214393
-0.0295389
0.243932
-7.64665e-05
0.010367
-0.0102906
0.106685
0.0348507
-0.00142206
0.00414859
-0.00272652
0.00168965
-0.0151281
0.300272
0.296743
-0.173043
0.0102725
0.16277
-0.0322067
0.165737
-0.00616968
-0.00408805
0.0102577
-0.072425
0.248154
-0.175729
0.637236
-0.325634
-0.311602
0.00865417
-0.205692
0.0213039
0.00453406
0.00836903
3.02039e-05
0.0153675
-0.0152982
-6.92843e-05
0.0179027
-0.215608
0.197705
0.00373755
-0.0683461
0.0307084
-0.00480924
-0.0258991
0.0918455
0.152538
0.00316784
-0.00128277
-0.00188508
0.0180973
-0.00509796
-0.270527
0.275625
0.0127981
-0.0122495
-0.00054861
0.0158317
-0.00800519
-0.00782655
0.0416025
-0.0625625
0.0704088
-0.00784629
0.00157432
-0.0982906
-0.272038
0.00771261
0.00811913
-0.0978799
0.00235156
0.0955283
0.00269572
0.00619932
-0.159615
0.13107
0.0285453
-0.00166967
0.00487061
-0.108193
0.0112079
0.00464093
-0.11753
-0.219511
0.145827
-0.383857
0.23803
-0.193475
-0.225211
0.418686
0.237909
-0.614241
-0.336632
-0.275772