/*--------------------------------*- C++ -*----------------------------------*\
| =========                 |                                                 |
| \\      /  F ield         | OpenFOAM: The Open Source CFD Toolbox           |
|  \\    /   O peration     | Version:  v2012                                 |
|   \\  /    A nd           | Website:  www.openfoam.com                      |
|    \\/     M anipulation  |                                                 |
\*---------------------------------------------------------------------------*/
FoamFile
{
    version     2.0;
    format      ascii;
    class       surfaceScalarField;
    location    "100";
    object      phi_0;
}
// * * * * * * * * * * * * * * * * * * * * * * * * * * * * * * * * * * * * * //

dimensions      [0 3 -1 0 0 0 0];
oriented        oriented;


internalField   nonuniform List<scalar> 
22717
(
-0.00178393
-0.0112564
0.0130404
0.000702135
0.108295
-0.108997
-0.0157553
0.017715
-0.00195973
-0.129317
0.172475
-0.0431587
0.00890313
-0.00879717
-0.000105968
-0.334419
0.00614793
0.328271
0.179323
-0.0368374
-0.142486
0.151416
-0.0828273
-0.0685891
-0.223809
0.0230893
0.20072
-0.0134604
0.0116765
-0.0157362
-1.91098e-05
-0.130755
-0.216371
0.00188666
0.00701647
-0.000490345
0.00321035
-0.00272
0.000252599
-0.0301305
0.0298779
0.110693
-0.10279
-0.00790256
-0.600248
0.0116231
-0.00943006
-0.00219301
0.283841
-0.447163
0.163322
-0.00853836
0.00889559
-0.00035724
0.00391795
-0.000404039
-0.00351391
0.00490433
-0.000986379
0.10557
0.0737535
-0.418016
0.525437
-0.107421
-0.169401
0.108473
0.0609286
-0.15369
0.0701599
0.0835296
0.0153456
-0.0153456
-0.117313
-0.0363769
0.00445564
-0.0030226
-0.00143303
-0.254769
0.0751288
0.17964
0.0165633
-0.0165633
-0.0302789
0.0375978
-0.00731886
-0.648907
0.454451
-0.0430662
-0.280786
0.323852
-0.287624
0.467954
-0.18033
0.140729
-0.127176
-0.0135534
0.085927
0.0548021
0.030808
0.0598492
-0.0906572
-0.00864214
0.00881943
-0.000177285
-0.102783
-0.00253689
0.10532
0.123881
0.00483785
-0.128718
-0.107535
-0.00313033
0.110665
-0.229668
0.363941
-0.134272
0.280614
-0.233188
-0.0474259
-0.0153439
0.000252856
0.0150911
-0.10671
-0.30501
0.41172
-0.0111927
0.0129706
-0.00177795
0.00312265
-0.0323574
0.0292347
-0.00166278
0.00117243
0.218191
0.0201935
-0.238385
-0.572864
0.154848
0.0245546
0.00370553
-0.0282601
0.106822
0.00387041
-0.288309
-0.129725
0.379179
-0.249454
-0.176831
0.17824
-0.0014091
-0.0506668
0.0883434
-0.0376766
-0.00418264
0.0287372
-0.00031509
-0.0081981
0.00851319
0.0151757
-0.015678
0.000502323
-0.00152816
-0.00355849
0.00508666
0.0252888
-0.0221661
-0.00944548
0.136976
-0.12753
-0.19845
0.0601864
0.138264
-0.162802
0.426624
-0.263821
0.239175
-0.36993
0.114361
-0.101555
-0.0128057
-0.0369567
0.00667779
-0.108042
-0.313875
0.421918
0.0138113
-0.479767
0.465956
0.260827
-0.0773146
-0.183513
0.22699
0.0361929
-0.263183
-0.061577
-0.107824
0.00416616
-0.00229534
-0.00187082
-0.0810377
0.0993305
-0.0182928
0.00537708
-0.00713067
0.0017536
0.124594
-0.00071362
-0.00738638
-0.126817
0.134203
0.0237908
0.0159163
-0.0397071
-0.361193
-0.160409
0.521602
-0.00761568
0.00031314
0.00730254
0.0115452
-0.0115452
-0.00893497
-0.00075482
0.00968979
0.145733
-0.149125
0.00339246
0.00673737
0.00982592
0.500773
-0.607483
-0.222363
0.506205
-0.0167648
-0.188759
0.205523
-0.120155
-0.0125502
0.132705
0.00548653
-0.00777797
0.00229143
-0.163028
0.184691
-0.0216636
-0.294891
0.40143
-0.106539
0.0278388
-0.0357719
0.00793303
-0.00863594
0.00832085
-0.229829
-0.0726267
0.302456
0.634876
-0.469147
-0.165729
-0.24499
0.209545
0.0354442
0.287829
0.229699
-0.517528
0.257892
-0.619085
0.206601
-0.436269
0.00716498
-0.0017879
-0.131747
0.136334
-0.00458665
0.190584
-0.19325
0.0026653
-0.0483627
-0.28632
0.334683
-0.233547
0.00973851
-0.406209
0.276483
0.112777
-0.0123642
-0.100413
-0.00134188
-0.0123076
0.0136495
0.177837
-0.118108
-0.0597295
-0.0024715
0.00149316
0.000978339
-0.136112
-0.00502328
0.141135
-0.253654
-0.21136
0.465014
0.134165
-0.350536
-0.0700891
-0.032701
-0.223987
0.207222
0.104826
0.156002
-0.0095951
0.0374339
0.00795831
-0.00247178
-0.116361
0.00882641
0.00590134
0.00166867
-0.00757
-0.0988914
0.103033
-0.00414125
0.00354751
-0.00164414
-0.00190337
-0.0517944
0.0715668
-0.0197724
-0.155651
0.39065
-0.234999
0.103388
-0.361586
0.258199
-0.0839607
0.0332938
0.369638
-0.611851
0.242213
-0.00449303
-0.179278
-0.1879
0.367179
0.00928524
-0.0105344
0.00124914
-0.0141024
-0.00124149
-0.540538
0.514883
0.0256545
-0.0915528
0.105696
-0.0141431
0.131367
-0.138753
-0.512567
0.642228
-0.129661
-0.00971486
0.000779887
0.0120198
-0.00756418
-0.110076
0.100631
0.0829787
0.0684376
-0.168066
0.00503799
-0.134664
0.0145095
-0.144817
0.142672
0.00214488
-0.0293029
-0.570945
0.00101923
0.00205721
-0.00307643
0.064479
-0.033671
0.00129362
0.00287254
0.00344491
-0.00344491
-0.141114
0.0967031
0.0444112
0.00112011
-0.00860067
0.00748056
-0.306464
0.0460512
0.260413
0.0350897
-0.0342531
-0.000836675
-0.263756
0.367143
-0.302274
0.072445
-0.00423318
0.00324564
0.00098754
0.503295
0.157064
-0.660359
0.0147846
-0.0116516
-0.00313302
0.00015352
-0.00879566
-0.0205462
0.0169243
0.00362198
0.0458964
-0.0483299
0.00243357
0.0134809
0.489814
0.145656
-0.00885511
-0.136801
-0.0695479
0.0177535
-0.146353
0.198346
-0.0519924
-0.00759976
0.00862176
-0.00102201
0.010294
-0.0128722
0.00257819
0.0122675
-0.00197344
0.410585
-0.525253
0.114668
0.0446443
-0.0072376
-0.0374067
-0.00665977
-0.00453293
-0.0230078
0.0915562
-0.0685483
-0.117907
0.0478177
0.00655152
-0.00907792
0.0025264
0.0281201
0.0496529
-0.0777729
-0.0444462
0.15392
-0.109474
0.21314
-0.373549
-0.682693
0.372812
0.309881
-0.0680433
-0.00630087
0.0743442
-0.056262
0.0332542
-0.0010953
-0.0977961
0.0732764
-0.117723
0.0446443
0.00215983
-0.00368799
0.195598
-0.224382
0.0287841
-0.0116994
0.207297
0.00108276
-0.00932761
0.00824485
-0.0117756
-0.213726
0.225502
-0.162584
0.0332669
0.00125217
0.0104036
-0.00111838
0.0128199
-0.01667
0.00385015
-0.1331
0.102831
0.030269
0.279202
-0.0346581
-0.244544
-0.173449
0.111872
0.0156477
-0.119079
0.103432
-0.00311054
0.00353196
-0.000421417
-0.437191
0.480149
-0.0429579
0.0142248
-0.0134434
-0.000781354
-0.106173
0.380374
-0.274201
0.00627273
-0.00438606
-0.0774387
-0.167551
-0.105519
0.0139665
0.123723
0.0175547
-0.141277
-0.0131731
0.0167382
-0.00356511
-0.0159453
0.0166628
-0.000717513
0.0183213
-0.146203
0.127881
-0.376332
-0.306361
0.0723141
-0.00209962
-0.0702145
-0.150215
0.048433
0.101782
0.0130423
-0.193271
0.180228
0.0136383
-0.164118
0.15048
0.169706
-0.383626
0.213921
-0.00269058
-0.0015426
-0.0296744
-0.225094
-0.0655583
-0.0325839
0.0981422
0.0243009
0.0480132
-0.000560455
-0.00153964
0.0366294
-0.159313
0.181253
-0.0219398
-0.0247737
0.00401809
0.0207557
-0.42614
0.270489
0.298389
0.189014
-0.487404
-0.218412
0.0203943
0.198018
-0.37089
0.293467
0.0774237
-0.103729
0.13268
-0.0289506
0.111931
-0.138874
0.0269436
0.359902
-0.460073
0.100171
0.00941825
-0.00941825
0.172463
-0.199423
0.0269594
-0.0770214
0.0795263
-0.00250495
0.182685
-0.448971
0.266286
0.450184
0.0900796
-0.540264
-0.00109852
-0.000564254
-0.0241923
0.00528096
0.0189114
-0.000944418
0.115788
-0.160859
0.0450709
-0.100173
-0.163489
0.00417553
-0.647955
0.429818
0.218138
0.0821196
-0.066472
-0.011667
0.00883236
0.00283467
0.0903561
0.087481
-0.00281655
0.00117242
-0.205167
0.192141
0.013026
-0.0165314
0.00335832
-0.267301
0.566117
-0.298817
0.143451
0.159962
-0.303413
-0.00371151
0.0319851
-0.029886
-0.0020991
0.0322543
-0.000269165
-0.0183999
0.00245457
-0.0125768
0.0131527
-0.000575862
-0.50788
-0.0326579
-0.162279
-0.201817
0.0554636
-0.012807
0.0133007
-0.000493702
-0.172892
0.00482659
-0.00886506
0.0104085
-0.00154345
-0.447139
0.46095
-0.0996174
0.117939
-0.0145463
0.0145463
0.340026
0.223791
-0.563818
-0.478713
0.129392
0.349321
0.0440064
-0.378426
-0.336371
0.228329
-0.503201
0.0425628
0.460638
-0.00605026
0.0519466
0.00787453
-0.00722196
-0.000652571
0.00121967
-0.205954
0.362439
-0.156485
0.0428756
-0.042623
-0.0088782
0.00996096
0.000134372
0.00774015
0.473759
-0.291074
-0.00434044
0.00564572
-0.00130528
0.171369
0.070002
-0.241371
0.341579
-0.281275
-0.0603043
0.0192453
0.114964
-0.13421
-0.0390617
-0.159388
-0.0293537
0.00321035
-0.00531656
-0.00194674
0.0072633
-0.388459
-0.0330493
0.421508
-0.164121
-0.0087712
0.267417
-0.264026
-0.00339074
-0.00595773
0.00707784
0.0127066
0.00207796
-0.308542
-0.00988198
0.318424
-0.261974
0.20601
0.0559642
0.39056
-0.241015
-0.149545
0.0116915
0.000575985
0.0382873
-0.333178
-0.0158637
-0.0878983
0.103762
-0.0322914
-0.0778704
0.110162
-0.274339
0.109881
0.164458
-0.0224513
-0.367473
-0.111239
0.0144013
-0.12643
0.112029
-0.380637
0.0930133
-0.0104497
0.00158463
0.314863
0.0757871
-0.00771567
-0.00395136
0.16999
-0.114828
-0.0551618
0.0669166
-0.075776
0.00885942
0.469964
0.076504
-0.546468
-0.00790115
0.031692
0.011439
0.000252447
-0.275144
-0.0787896
0.0870932
-0.00830364
-0.0457717
0.180969
-0.135198
0.00896893
-0.00980517
0.000836242
-0.332016
-0.0170594
0.349076
0.143359
0.00237388
0.00814863
0.0634688
-0.0716174
-0.0846568
0.00586722
0.438431
-0.147348
-0.291083
0.117163
0.204651
-0.321815
0.00400313
-0.00490831
0.000905178
0.0988873
-0.126645
0.0277579
-0.0279365
0.00374414
-0.118467
-0.0146335
-0.356238
0.193436
0.00982773
-0.00982773
-0.0042591
0.00253842
0.00172068
0.0333206
0.175139
-0.20846
-0.00400509
0.00131452
0.0103194
-0.000285177
-0.0100342
-0.0716825
-0.00533886
0.0763292
0.196089
-0.272419
-0.112577
-0.193887
-0.306173
0.564065
0.100135
0.0698553
-0.274041
0.20723
0.0668112
0.0793191
-0.111958
0.0326386
-0.0621949
0.100047
-0.0378519
-0.000688444
-0.131059
0.142768
-0.0190455
0.000865903
-0.00520634
0.00647397
0.00887163
-0.0143463
0.0156034
-0.00125704
-0.0357663
-0.141064
-0.150717
0.142374
0.00834303
0.39106
0.165751
-0.55681
-0.139506
-0.0112107
-0.27042
0.0776062
0.192814
0.107342
-0.153114
-0.310848
0.267782
0.123214
-0.127335
0.00412094
0.570545
-0.193939
-0.376606
-0.00187663
0.00402571
-0.00300649
0.0108524
-0.00188352
-0.0379438
0.264933
0.0522633
0.0392929
0.0158219
-0.0165258
0.000703879
-0.090311
0.3887
3.01532e-05
0.115937
-0.115968
-0.169408
0.185176
-0.0157675
-0.137653
0.192092
-0.054439
-0.153531
0.158711
-0.0051801
-0.0877396
-0.220803
0.141994
-0.180482
0.0384873
0.259242
0.00817476
-0.0672854
0.088178
-0.0208926
-0.138253
-0.0119622
0.0107189
-0.00952886
-0.0104441
-0.0101021
0.178907
-0.0369124
0.284944
-0.276733
-0.0082117
0.674516
-0.247676
-0.426841
0.0740318
-0.00711515
-0.0189438
0.237135
0.173368
-0.184066
0.0106979
0.0342292
-0.0354091
0.00117992
0.262795
0.175636
0.111242
0.0319121
-0.0385686
0.00665652
-0.135328
-0.235562
-0.0228383
-0.0417847
0.0646229
-0.0020139
-0.00199119
-0.0777236
0.468783
-0.0745117
-0.199827
-0.0106782
0.011312
-0.000633788
0.0757469
0.0386139
0.194937
-0.206713
0.259049
0.21471
-0.143633
0.0075217
0.0840887
-0.0559686
0.100261
0.0136501
-0.113911
0.00012235
0.36761
0.0983635
-0.465974
0.227169
-0.0557999
0.491747
-0.232698
0.118721
-0.0184602
0.0941245
-0.08972
-0.00440445
-0.0961283
0.127922
-0.031794
0.126157
-0.00294296
-0.299328
0.221373
0.0779551
0.131793
-0.089851
-0.0419417
0.00954711
-0.0124399
0.00289281
-0.146143
-0.00738751
-0.166578
0.0204343
0.00226022
-0.00717795
0.00491772
-0.216887
0.293216
-0.0517472
-0.23712
0.288867
0.142011
0.0167
0.0657044
-0.0911368
0.0254324
-0.0367882
0.0254572
0.0113309
0.0836948
-0.0342681
-0.0494267
0.0845892
-0.116881
0.140704
0.00265495
0.00740303
0.0130868
-0.00119391
-0.00127759
-0.115119
0.131914
-0.0167957
0.0064976
-0.00249447
-0.00271821
-0.00154089
-0.304662
0.0443436
0.260319
0.0421776
-0.00549182
-0.0366857
-0.00651995
-0.138297
0.180605
-0.0293785
-0.151226
-0.0166621
0.016381
0.000281111
0.00352348
0.329866
0.120757
-0.133307
-0.0987224
0.0477873
0.0509351
0.135908
0.00646634
0.00595504
-0.00577247
-0.000182568
-0.269814
0.271328
-0.00151388
-0.0142201
0.0142201
0.00172263
0.0089268
-0.0106494
0.0959207
-0.113257
0.017336
0.0104761
0.00410004
-0.0145761
0.00281161
-0.0110916
0.00827994
0.00142298
-0.000878878
-0.0005441
-0.0311952
-0.109919
-0.0112465
0.00985604
0.0013905
-0.0175936
-4.74229e-05
0.017641
0.481085
-0.0464334
-0.434652
0.22616
-0.405438
0.0989803
0.0256663
-0.124647
-0.00924462
-0.000167906
0.00941253
0.168095
-0.435987
0.267891
0.119075
-0.0397554
0.00311481
0.173155
-0.17627
0.0113872
-0.0826881
0.0713009
-0.00720695
-0.00133141
0.15496
-0.0190524
-0.167917
0.00442802
0.081098
-0.0983276
0.0172297
-0.00257793
-0.0826264
0.0153411
0.146236
-0.0304478
-0.210066
0.23026
0.00390893
-0.0122923
0.00838333
-0.00358482
0.00749375
-0.212174
-0.113318
0.325492
0.00332603
0.0015783
-0.00174803
-0.00106853
-0.158511
-0.0094053
-0.00241418
-0.0297899
0.119576
-0.089786
0.0216611
-0.124444
0.0124887
-0.00294163
-0.190818
0.0531648
-0.187607
0.220928
-0.210482
-0.017069
0.227551
0.246257
-0.352429
-0.130199
0.039342
0.0908571
0.0628264
-0.0546777
0.00947553
-0.126012
0.126714
-0.103676
0.00212066
0.321935
0.045675
-0.577961
0.338717
0.239244
-0.349314
0.0172974
0.00190897
0.00726834
-0.0091773
0.0369581
-0.00504604
-0.00926355
0.00958642
-0.000322875
-0.00497764
0.00688661
-0.136628
0.0328987
-0.0138908
0.0137879
0.000102945
0.207058
-0.232261
0.0252035
-0.00865363
0.00103795
-0.273125
0.0111513
0.386527
-0.461483
0.0749562
0.554484
-0.296632
-0.257852
-0.00422607
0.0820282
-0.0778022
0.25756
0.230821
-0.488382
0.00493568
-0.00201781
-0.00291787
-0.572969
0.302672
0.270297
0.043807
-0.211292
0.167485
-0.512905
0.0925676
0.420337
-0.0604533
-0.0382691
0.0386798
0.0593162
-0.097996
-0.581552
0.275379
-0.162567
-0.136761
0.141402
0.0756658
0.104939
0.0419241
0.116862
-0.158786
0.0008001
0.00515494
0.241743
-0.318879
0.0771358
-0.111611
-0.114162
0.014615
-0.00413897
0.00148826
-0.198428
0.196939
-0.203673
0.42097
-0.217297
7.39258e-07
0.212874
0.0806665
-0.29354
-0.0299662
0.141536
-0.111569
0.0710057
-0.00530127
0.351313
0.323203
0.49709
0.0164451
-0.0161953
-0.00024981
0.126649
-0.0116627
-0.114987
-0.0139578
-0.0993695
0.113327
0.220731
0.0773866
-0.298118
-0.114956
0.138046
-0.171991
-0.197195
0.369186
-0.0486089
-0.00765315
-0.0747618
0.0798881
-0.00512629
0.618895
-0.349644
-0.269252
0.00114497
-0.0651637
-0.0251447
0.0903084
0.00386361
-0.00170378
0.00640335
0.000761626
0.215094
-0.31661
0.101516
0.0619886
-0.0662146
0.0243225
-0.0303619
0.00603939
0.00134834
0.00764244
-0.00899078
-0.0164526
-0.00114097
0.250658
-0.0435999
-0.00909903
-0.0234722
0.0325712
0.062886
0.0689067
-0.0186213
0.117509
-0.00366283
0.00284285
-0.00324689
-0.0133798
0.0124354
-0.00571878
0.00559983
0.000118942
0.00522382
-0.00384308
-0.00138075
0.00129949
-0.00485799
0.043501
0.268064
-0.266576
0.257569
-0.253404
-0.00416504
-0.0156139
0.178283
-0.162669
0.541637
0.0383257
-0.579962
-0.102444
0.124105
-0.158558
0.16141
-0.00285128
0.0129185
-0.000658468
0.119189
-0.14917
0.0299817
0.150457
-0.142428
-0.00802926
0.104717
-0.134507
-0.0340913
0.00420532
-0.0147612
-0.00237998
0.0171412
0.00555657
-0.00186898
-0.0036876
-0.130327
0.115422
0.014906
-0.107356
0.0417977
-0.331782
-0.246179
0.280788
-0.273727
-0.00706096
-0.022116
-0.00753001
-0.154605
0.162135
-0.0272735
-0.00681778
-0.371646
0.0962611
0.275385
0.22253
0.0100345
-0.232564
-0.137533
-0.000374894
0.137908
0.003625
-0.0175158
-0.102119
0.109715
-0.00759616
-0.00112453
-0.00656892
0.00769345
0.0182577
0.105792
-0.12405
0.00741357
-0.000957058
-0.00645651
0.245975
0.221979
-0.237467
-0.0365747
0.467932
-0.145389
-0.0171947
0.00274709
0.00352564
-0.171342
0.155728
0.00370116
-0.0284749
0.219133
-0.422806
0.169342
0.0432585
-0.212601
-0.00678145
0.00128783
0.00549362
0.108085
-0.496543
-0.0227833
0.113139
0.00693541
-0.00521278
0.00587892
0.00574416
0.000318758
-0.0163947
0.0160759
-0.246007
-0.180134
-0.297402
0.222891
0.102049
-0.218493
0.116444
-0.000345668
-0.0297848
0.0810169
-0.0992135
0.0181966
-0.214416
0.0182251
0.196191
-0.0134336
-0.466333
-0.562787
0.0502209
0.287777
0.266707
0.0735198
-0.0776237
0.00410386
-0.14782
0.142318
0.00550184
0.0096796
-0.00768235
-0.00199725
-0.00052336
-0.00519542
0.0221295
-0.261316
0.239186
0.155817
-0.063536
-0.0922812
0.285878
-0.00667609
-0.110495
-0.194167
0.0518432
-0.0332377
-0.0186055
-0.350665
0.0191687
0.331497
0.00197332
0.228642
-0.230616
0.00628909
-0.00226338
-0.31094
-0.201965
-0.01171
0.0125968
-0.00088678
-0.00389908
-0.0708627
0.107009
0.103524
-0.117482
-2.38564e-05
0.0299988
-0.00567629
0.244384
-0.122911
-0.121473
0.0361586
-0.0452576
-0.0121116
0.0822716
-0.205715
0.0156978
0.190017
-0.10322
0.472859
0.152451
0.0209167
-0.156348
0.160127
-0.00377881
0.0282094
0.0236338
0.137138
-0.214453
-0.6189
0.305503
0.313397
-0.00842194
-0.0283662
-0.02707
-0.410121
-0.0222827
-0.00543311
-0.0244445
-0.0218482
-0.115685
-0.000275515
0.00251634
-0.225296
0.22278
-0.610187
0.337399
0.272788
0.472181
-0.224049
-0.248132
0.202524
-0.0553777
-0.147146
0.339943
0.278952
-0.00322482
0.00603643
0.279094
-0.0662204
0.145715
0.00474168
-0.0154728
0.0151291
0.000343695
0.548785
-0.0425048
-0.50628
0.073736
-0.294589
0.220853
-0.00275215
-0.0127207
0.185903
-0.163014
-0.022889
8.66563e-05
0.0567582
-0.0568449
0.02523
-0.0264271
0.00119704
0.192287
0.198273
0.0103766
-0.0747086
0.405153
-0.330444
-0.00725048
-0.00518944
0.0704028
-0.111553
0.0411498
0.0147244
0.0195411
-0.115669
0.00783357
0.000124745
0.000514235
0.0712849
-0.0871486
-0.10525
-0.193002
0.495938
-0.302936
0.0249047
-0.0209832
-0.0455921
0.0665754
0.00575525
-0.000902613
-0.00485264
0.162965
0.0207068
-0.0148279
0.226495
-0.0100388
0.00894868
-0.219431
-0.00052623
0.452062
-0.0921603
-0.142319
-0.229326
0.138685
-0.10595
-0.0327357
-0.12092
0.139177
-0.320364
0.11441
0.194255
-0.230408
0.0361528
-0.383456
0.241137
-0.0480639
0.00652006
-0.0076446
-0.0347106
-0.179706
-0.0161671
0.016774
-0.000606891
0.0045487
0.00495235
0.000271469
0.355109
-0.0201064
0.00534518
-0.0953664
0.238818
-0.133482
0.583666
-0.139819
0.133669
0.00615074
0.17865
-0.165608
-0.205866
-0.00717112
0.213037
0.00875339
-0.00564345
-0.00310994
-0.227335
0.229308
0.110491
0.092033
0.113104
0.00793572
-0.121039
0.075392
-0.392024
0.316632
0.207664
0.341121
-0.0118761
0.00462557
-0.0716124
-0.00445442
0.0760668
0.469113
-0.181284
0.161204
0.409341
-0.135479
0.154725
-0.509171
0.410172
0.0989981
0.00019161
-0.158073
0.13529
0.00614554
0.00168803
-0.0334382
0.0356518
-0.00221366
0.425656
0.0474225
0.105465
-0.152887
0.00250839
0.0129799
-0.0154883
-0.127554
0.173879
-0.0463241
-0.592956
0.296324
0.100338
0.000989449
-0.101327
0.218674
-0.0493318
0.376307
0.0733853
-0.021122
0.00549421
0.00325918
-0.202842
-0.00232528
-0.00152287
-0.00158767
0.117467
-0.0184864
-0.21691
0.0140684
0.443759
0.127261
-0.571021
0.0107189
-0.0458622
0.0351433
0.0178717
0.425888
-0.223666
0.148009
-0.141845
-0.00616417
-0.287751
0.606302
-0.318551
0.338338
-0.242077
-0.148544
0.00872457
-0.0906234
0.00995585
0.0806676
0.00168389
0.00986134
0.00412175
0.00147809
-0.0646086
0.0726557
-0.0080471
-0.12603
-0.32261
0.448639
-0.00721846
0.0019019
-0.0133798
0.00436825
0.168089
-0.172457
-0.0078807
0.00797747
-9.67741e-05
-0.0265642
-0.0898189
0.116383
-0.107151
0.111813
-0.00466212
0.0119235
0.0513522
-0.0064304
0.00837385
-0.00194346
-0.105375
0.101135
0.00424063
-0.00866211
0.00939123
-0.000729119
0.00817827
0.0921592
0.212295
-0.0371557
-0.0257665
0.0947872
-0.0690207
0.0828029
0.0558823
0.065972
0.00268442
-0.0686564
-0.19186
0.371749
-0.179889
-0.0949294
0.108568
-0.00253876
0.00909028
0.100845
-0.122606
0.00644764
-0.220174
0.000970569
0.00961266
-0.000149643
-0.00946301
0.000900984
-0.000503512
-0.2174
0.334564
0.0933397
0.025373
-0.118713
0.010854
-0.000450411
-3.44124e-05
-0.0120267
0.0120611
0.0163928
-0.00109231
-0.0153005
-0.403335
0.171715
0.231621
-0.0490467
0.073764
0.0820532
0.000324455
0.00109621
-0.000596951
-0.000499259
-0.197506
0.237424
-0.0399185
-0.00910242
0.00267202
0.0039224
0.511099
-0.515021
0.0556086
0.0280862
0.229545
-0.0113398
-0.218205
0.000919774
-0.206634
-0.00178773
-0.00764233
-0.367505
-0.00026214
0.00622975
-0.00596761
0.217228
-0.224381
0.00715275
-0.0301523
0.164647
-0.169684
0.00503752
0.12237
-0.131225
-0.00237418
-0.00917105
0.458229
-0.561449
-0.359766
-0.0762204
0.00700386
-0.00839403
0.00139017
-0.000581201
-0.0137651
-0.00973178
-0.524701
0.2574
-0.202639
0.00936862
-0.000486575
-0.0116708
0.0121574
0.164116
-0.160033
-0.00408252
0.00259189
0.00682637
0.0363378
-0.0299583
-0.00637949
-0.213642
-0.00477039
0.540872
-0.253095
-0.00131423
0.00357445
-0.0852436
0.0594771
-0.00182484
0.00594659
0.226532
-0.224015
0.113134
-0.157525
0.160069
-0.00254434
0.151767
-0.532825
0.519391
-0.217186
0.01968
-0.0650036
-0.0616416
-0.0425939
0.0426806
0.133127
-0.135933
0.00280603
0.543107
-0.0282237
-7.4491e-06
0.0152657
0.0582541
-0.108401
-0.192023
0.300424
0.0208586
-0.371524
0.164057
-0.161232
-0.00282544
-0.485766
0.274406
0.0458261
0.0535044
0.108628
-0.135193
-0.35475
-0.0672336
0.421983
-0.188085
-0.195542
-0.306618
-0.305234
0.329508
-0.244363
-0.0851451
-0.493841
0.254184
0.239657
-0.441826
-0.131144
0.0363108
0.0019289
-0.0382397
0.0246994
-0.157955
0.133256
0.138873
-0.146404
0.0101759
-0.000563242
0.00102648
0.457202
0.161153
0.240277
0.0793673
0.215751
-0.295118
-0.0210253
0.0254715
-0.00444615
0.0153148
-0.0166567
0.00455173
-0.00122571
-0.181158
0.234421
-0.0532639
-0.606749
0.300131
-0.000876838
-0.3733
0.092514
-0.00173852
0.00371848
-0.00197996
-0.220854
0.229803
0.133531
0.0191724
-0.152703
-0.114442
-0.00191876
-0.012186
0.0129486
-0.000762526
0.0917413
0.243032
-0.334774
-0.104849
0.42639
-0.321541
-0.0026268
-0.015888
0.0158535
0.196841
-0.245812
0.0489711
-0.179803
0.177249
0.00255357
-0.415366
-0.00985498
0.125276
0.244782
-0.0505274
0.250965
-0.0541235
-0.259837
0.0358506
0.423777
-0.121105
-0.00160255
-0.0105835
-0.213267
0.0472041
0.166063
0.57088
-0.409676
-0.0100178
-0.0298841
0.0399019
0.00213413
-0.0087518
0.00661767
-0.0124866
0.0124866
-0.000132979
-0.155223
-0.00629298
-0.301744
0.481882
-0.180138
-0.0107415
0.140729
-0.0257643
-0.120687
0.0300636
0.0205327
-0.20814
0.130306
0.0271662
0.0101923
-0.189995
0.00698952
0.000987949
-0.0333764
0.134228
-0.100851
-0.0928231
-0.169002
0.011815
0.157187
-0.00428933
-0.152699
0.156989
-0.165265
0.321005
-0.15574
-0.00129063
0.00473554
-0.115586
-0.214008
0.329593
0.202948
-0.19072
-0.0122277
0.00452567
0.00197193
-0.0298984
0.0309711
-0.00107274
-0.248181
0.323573
-0.00166777
0.00326486
-0.00159709
0.00268036
0.00307489
0.463037
-0.54076
0.306875
-0.233253
-0.0736221
0.0165437
0.10695
-0.123494
-0.0369029
0.026885
0.035775
-0.271049
0.500748
0.0275292
-0.18553
0.158
0.222258
-0.209218
-0.0130401
-0.0247345
0.02915
-0.00441554
-0.00381048
-0.00332019
-0.00114395
0.0057805
-0.00463654
-0.0463129
0.0577002
-0.297702
-0.105633
-0.00207242
-0.0815433
0.01008
-0.0877275
0.0776476
-0.209447
0.284613
-0.0751667
0.00751978
-0.00231938
0.0444969
0.0696476
-0.571031
0.606408
-0.0353765
0.237497
-0.0202684
0.0150909
0.00561584
-0.00813042
-0.0218573
0.0299878
-0.361499
0.252717
0.0621456
0.000266354
-0.0064692
0.00620284
-0.178557
-0.226912
0.405469
0.0301339
-0.0142028
-0.0159311
0.0526517
-0.0852356
-0.195559
-0.308852
0.504411
-0.453741
0.138254
0.315487
-0.0141903
-0.219704
0.226152
0.000982287
0.00907976
-0.010062
-0.048725
0.0495895
-0.000864531
0.121525
0.220054
0.283796
-0.0930003
-0.190796
0.130484
0.0244758
0.238624
0.0463209
0.157744
0.000143326
-0.157888
-0.0100883
0.140572
0.132784
-0.0301737
-0.10261
0.0494477
-0.404197
-0.466607
-0.00332211
-0.00152591
0.00484802
-0.191947
0.21248
-0.261256
-0.232585
0.00204256
0.00424653
-0.00227781
-0.00517153
0.00744935
-0.306107
-0.0345195
0.340626
0.0425572
-0.00422226
-0.0383349
-0.225611
0.444744
0.126774
0.157022
-0.12029
0.308736
-0.188446
0.000240613
-0.00965344
0.00941283
0.00839933
0.000270067
-0.00866939
-0.0591746
0.274268
-0.294883
0.0183657
0.276517
-0.0051185
0.00565399
-0.000535494
-0.12279
0.152429
-0.152804
0.233425
-0.281788
-0.107893
-0.0303849
0.138278
-0.295332
0.285653
0.00967908
0.0270864
0.182459
0.293717
0.0866563
0.0146923
-0.133772
-0.00475151
-0.00578287
0.216317
0.196892
-0.184388
-0.0125033
0.0010926
-0.147073
-0.147515
0.00312282
-0.0145953
0.0114725
-0.020898
0.116819
-0.0378594
-0.195688
0.329535
0.182149
-0.511683
0.000595896
-0.0057144
-0.12105
0.0913809
0.0296688
0.452199
-0.402751
-0.00881375
-0.110545
0.119358
-0.33769
-0.112889
-0.0221751
0.135064
-0.00113198
0.0131418
-0.0120099
0.337822
0.267649
-0.60547
0.0331974
-0.00731676
-0.0258807
0.380065
0.0721337
0.00762867
0.00254722
-0.0742025
0.1167
-0.0424978
0.0898557
-0.07459
-0.0200183
0.000217332
-0.464075
0.162332
0.0047084
-0.000182734
-0.438493
0.0203476
0.418145
0.0181071
0.239462
-0.000473957
-0.00297095
-0.00239966
-0.00160635
0.00400601
0.0544819
-0.0987982
0.0443163
-0.00225782
0.0012283
-0.0049439
0.00371561
0.116694
-0.0655751
-0.0511188
0.0021838
0.0134196
-0.0237314
0.0344504
0.0122002
-0.0257202
-0.00294981
0.02867
-0.109599
0.0860813
0.0235172
0.0943781
0.109437
-0.203815
0.0335429
0.0226165
-0.0561595
-0.106687
-0.0424385
0.0158559
0.527251
-0.113848
0.0290072
0.0848408
0.130301
0.0233639
-0.153665
0.0627053
0.0700783
-0.0140647
0.0116906
0.0214992
-0.0312856
0.00978642
0.376397
-0.138061
-0.238336
0.0644412
-0.0234038
-0.0410373
-0.302856
0.0837122
0.219143
0.0968352
0.0116316
-0.108467
0.361621
-0.480401
0.118779
0.0125456
-0.0100372
0.382503
0.183615
0.000139684
-0.00744472
0.00730503
-1.25569e-05
-0.00870017
0.00871273
-0.00573277
0.12649
-0.120522
-0.00590753
-0.00323352
0.0122988
-0.0090653
0.0826035
-0.513144
0.407212
0.105931
-0.0327418
-0.131376
-0.0123625
0.0423531
-0.116556
-0.526963
0.481588
0.0453754
0.0348749
-0.335693
0.143833
0.0956282
0.0768473
-0.0676286
0.0375791
0.00371055
-0.00242273
-0.000183318
0.0106874
-0.0105041
0.341092
0.259952
-0.601043
0.00553414
-0.005221
-0.0465641
-0.122844
0.112132
-0.120946
-0.0113889
0.0748577
0.00329909
-0.0635021
0.119487
-0.0559851
-0.382916
-0.144047
0.0735252
-0.0238723
0.00289964
0.196427
0.00503909
0.00950721
0.512394
-0.43589
-0.12738
0.456915
-0.386218
0.0152252
0.370992
0.150702
0.417354
-0.568056
-0.030381
0.323848
0.0487741
-0.0152312
0.134679
0.101413
-0.15531
0.023462
0.131848
0.0129709
-0.451463
0.178494
-0.343759
0.00596519
0.00240866
-0.039048
0.0294529
-0.34999
0.153937
0.196053
0.15747
-0.00452717
-0.152943
0.000304032
0.000727888
0.0302543
-0.0213865
-0.00886778
0.0200121
-0.165401
-0.0128922
0.122032
-0.10914
-0.0108903
-0.26027
-0.193472
0.256771
-0.220578
0.110124
0.0262099
0.349732
0.122449
0.0106828
-0.0104422
-0.559628
0.0904807
-0.521564
-0.0494668
-0.00442658
0.00565488
-0.22337
0.145931
0.125611
-0.0198183
-0.000115013
0.00159507
-0.00148005
0.153724
-0.052879
-0.256412
-0.312685
0.140694
0.130525
0.00320111
-0.00523935
0.00203824
0.0102266
-0.00669466
-0.0134385
-0.000509913
0.0139484
-0.493572
-0.453451
-0.223158
0.302525
-0.31822
-0.288529
0.0384103
-0.239691
0.373257
-0.133566
0.588241
-0.498162
0.337998
0.133223
-0.160717
0.0274941
0.0995328
-0.413408
-0.464436
0.338406
0.00656563
0.00311397
-0.00112048
0.00964062
-0.00852014
0.211327
0.0132009
-0.224528
0.000341802
-0.370328
0.245355
0.124973
-0.198004
-0.00786254
-0.000151652
0.0134582
-0.0133066
0.0751545
0.0415395
0.121326
-0.191667
0.0703415
0.0082491
-0.00393655
-0.00431255
-0.0144632
0.000580411
0.0138828
-0.0261836
-0.00175292
0.389692
0.0970859
-0.486778
-0.112981
-0.00146175
0.00354732
-0.0109643
0.00741695
0.0645619
0.013198
-0.00962952
-0.00356844
0.00537031
0.00287879
-0.0058821
0.00393535
0.0814585
-0.0154865
-0.203559
0.246817
0.200931
0.0364935
-0.011644
0.0527533
-0.0230858
-0.0296676
-0.208186
-0.080281
0.288467
-0.0440309
-0.00933591
0.0102128
-0.00087687
0.137913
0.00835163
-0.146264
-0.00569159
-0.00338633
-0.570638
0.282888
0.444968
0.14258
-0.587548
0.0013219
-0.10141
0.120064
-0.0186534
-0.00552001
0.00533669
-0.179237
0.0154327
0.163804
-0.60416
0.316195
0.287964
-0.108094
0.00405929
0.104035
-0.0344561
0.0044978
0.00494422
-0.0585279
0.0972077
-0.0673934
-0.0532936
0.10818
-0.0113443
0.00912622
0.000701512
0.282827
0.0240481
-0.000862603
0.14795
0.00714684
-0.155097
0.0983293
-0.100488
0.00215852
0.00230755
-0.130572
0.128264
0.00566842
-0.00794623
0.445995
-0.128397
0.130705
0.00150712
-0.00619607
-0.00914954
0.530658
0.0184981
-0.549156
0.0292032
0.433834
-0.0969858
0.109116
-0.0121299
0.163839
-0.030616
0.361422
0.265135
-0.626557
-0.00945817
0.0134201
-0.00396193
-0.0693197
0.178757
-0.155083
-0.251126
0.122122
-0.606924
0.484802
-0.00747759
0.00774395
0.0123048
-0.013278
0.000973211
-0.00604363
0.00621599
-0.000172357
-0.612404
0.280622
0.431551
-0.0337742
-0.397777
0.0101728
-0.105315
0.0404784
-0.0747465
-0.00268013
-0.139464
0.142144
-0.0323226
-0.00490098
0.0372236
0.166342
-0.154545
-0.0117962
-0.214413
0.212583
0.00182992
-0.573711
0.544408
-0.00927813
-4.36351e-05
0.00932176
-0.127038
-0.0254118
-0.00568686
0.0310987
-0.00133952
0.0122839
-0.0109444
0.155461
-0.130762
0.0294391
0.0901367
-0.214393
-0.0295395
0.243933
-7.6488e-05
0.0103667
-0.0102902
0.106685
0.0348511
-0.00142208
0.00414874
-0.00272665
0.00168966
-0.0151281
0.300272
0.296743
-0.173044
0.0102725
0.162771
-0.032207
0.165738
-0.00616944
-0.00408814
0.0102576
-0.0724254
0.248154
-0.175729
0.637236
-0.325634
-0.311602
0.0086542
-0.205692
0.0213039
0.00453414
0.00836913
3.01963e-05
0.0153676
-0.0152983
-6.92803e-05
0.0179027
-0.215608
0.197706
0.0037378
-0.0683464
0.0307085
-0.00480933
-0.0258992
0.0918458
0.152538
0.00316778
-0.00128278
-0.001885
0.0180972
-0.00509824
-0.270527
0.275625
0.0127984
-0.0122498
-0.000548609
0.015832
-0.00800531
-0.00782666
0.0416029
-0.0625624
0.0704085
-0.00784615
0.00157432
-0.0982903
-0.272038
0.00771273
0.00811924
-0.0978798
0.00235118
0.0955286
0.00269655
0.00619905
-0.159616
0.13107
0.0285455
-0.00166969
0.00487081
-0.108194
0.011208
0.00464114
-0.11753
-0.219511
0.145827
-0.383857
0.23803
-0.193475
-0.225211
0.418686
0.237909
-0.614241
-0.336632
-0.275772
0.00210073
0.0746227
-0.116724