/*--------------------------------*- C++ -*----------------------------------*\
| =========                 |                                                 |
| \\      /  F ield         | OpenFOAM: The Open Source CFD Toolbox           |
|  \\    /   O peration     | Version:  v2012                                 |
|   \\  /    A nd           | Website:  www.openfoam.com                      |
|    \\/     M anipulation  |                                                 |
\*---------------------------------------------------------------------------*/
FoamFile
{
    version     2.0;
    format      ascii;
    class       volVectorField;
    location    "100";
    object      U;
}
// * * * * * * * * * * * * * * * * * * * * * * * * * * * * * * * * * * * * * //

dimensions      [0 1 -1 0 0 0 0];


internalField   nonuniform List<vector> 
15335
(
(-0.30808 -0.0101861 0)
(1.20886 0.0869901 -3.60074e-20)
(-0.31018 -0.0126208 1.12847e-19)
(0.940364 -0.186361 -2.47247e-20)
(-0.145845 -0.0253592 1.18618e-19)
(0.986314 -0.0336105 -8.06572e-21)
(1.20357 0.0539069 0)
(1.29963 -0.207133 9.3825e-20)
(1.13786 -0.0876403 -1.03513e-20)
(-0.289295 -0.00800169 0)
(-0.298585 -0.0121788 -9.69753e-20)
(1.0785 0.0152209 -3.83566e-20)
(-0.129399 -0.0275544 -7.8249e-20)
(-0.056614 0.00194799 4.6702e-20)
(0.463521 -0.0123162 0)
(1.26256 -0.23359 1.80444e-19)
(1.01805 0.000125722 1.22346e-20)
(0.120697 -0.0348204 3.63158e-21)
(1.03642 -0.00307646 -2.11662e-20)
(-0.175446 -0.0269615 -6.52738e-20)
(-0.0689903 0.0136102 0)
(-0.0597209 0.0149084 0)
(1.20239 0.0564794 3.20238e-20)
(1.03133 -0.00657983 4.28892e-21)
(1.28649 -0.0450561 0)
(1.13838 -0.333504 1.03132e-19)
(-0.209163 -0.0105702 -1.07497e-19)
(1.13085 -0.34117 -7.68376e-20)
(0.0218243 -0.0499972 -6.56291e-20)
(0.953264 -0.0831739 -4.54127e-20)
(-0.2322 -0.0122915 -5.39826e-20)
(0.487395 0.0438287 1.56438e-20)
(0.999879 -0.00122498 2.26194e-21)
(1.01819 -0.056347 3.11234e-21)
(1.03287 -0.0393772 1.29122e-21)
(1.32605 -0.0869453 3.98254e-20)
(1.32209 -0.08282 -5.4142e-20)
(1.17134 -0.625306 1.18317e-19)
(-0.151874 0.0010373 2.30503e-20)
(1.15239 -0.430995 0)
(1.17417 0.0982721 9.27845e-21)
(1.3093 -0.0929773 -5.45806e-20)
(1.00003 -0.0418845 0)
(1.0985 0.0249427 1.79747e-20)
(-0.272888 -0.00664697 -3.51477e-20)
(1.01768 -0.0022593 0)
(-0.169117 -0.076359 5.7228e-21)
(0.42994 0.0786682 2.79115e-20)
(-0.0339351 0.00559751 -9.14159e-21)
(1.02399 -0.118183 4.59665e-21)
(1.03044 -0.00643699 0)
(0.367342 0.0149685 4.04249e-20)
(1.31163 -0.23726 -1.015e-19)
(0.999948 -0.000685811 5.71114e-21)
(1.05073 -0.0315463 -9.07007e-21)
(1.20155 0.0481738 0)
(0.76711 -0.399242 0)
(0.411579 0.0167896 6.91079e-23)
(-0.194385 -0.0135777 1.75107e-19)
(-0.300045 -0.0124325 -2.12147e-19)
(-0.0819595 0.0183831 -3.16271e-22)
(0.37902 0.0752005 2.94281e-20)
(0.912755 -0.209608 2.16338e-20)
(0.896879 -0.0652965 2.10674e-20)
(1.04588 -0.0150432 0)
(1.07696 0.0138663 -1.67041e-20)
(1.17932 -0.0190965 0)
(0.441933 0.0401505 -3.22883e-20)
(1.04745 -0.00830394 -7.32671e-21)
(1.02952 -0.000862598 1.50532e-20)
(1.1632 -0.033157 -8.29003e-20)
(1.05028 -0.093807 0)
(1.28629 -0.0482661 0)
(-0.0401125 0.0236795 0)
(1.08866 0.019326 -7.9131e-20)
(-0.114762 0.013877 9.44917e-20)
(1.17337 0.100017 -1.88912e-20)
(1.26391 -0.118438 -2.45726e-20)
(0.520131 -0.110046 -2.44625e-20)
(0.999836 -0.00293188 3.28227e-21)
(-0.125837 -0.0238592 7.44794e-20)
(-0.173788 -0.00862339 0)
(-0.151251 -0.0219203 -1.76347e-20)
(1.28201 -0.0337515 0)
(-0.321494 -0.0146605 0)
(1.01744 -0.00164963 8.83114e-21)
(1.03585 -0.0027718 9.78753e-21)
(1.09686 0.0258429 0)
(0.972256 -0.0948635 -1.85048e-20)
(1.22061 0.0785965 -4.79657e-20)
(-0.111698 -0.0277184 -1.42834e-19)
(1.18457 0.0476566 -5.69805e-21)
(1.07967 0.0104987 -4.22127e-20)
(0.15237 -0.636341 7.57362e-20)
(-0.179682 -0.0151032 0)
(1.09602 -0.0270958 -3.96294e-21)
(1.01665 -0.00296511 0)
(1.09728 -0.158922 -2.73964e-20)
(1.02565 -0.0106217 0)
(0.999878 -0.00213781 0)
(1.0008 -0.0405533 1.13462e-21)
(-0.102142 0.0149957 -1.0299e-19)
(1.32495 -0.0411878 -9.80318e-20)
(1.14304 0.0660515 1.44514e-20)
(1.07892 -0.0088807 0)
(1.13382 -0.0889444 0)
(1.04898 -0.0304135 -7.93304e-21)
(0.827157 -0.0833234 0)
(0.0949894 -0.236148 0)
(1.01312 -0.253586 -1.01538e-21)
(-0.0398353 0.0152851 5.65556e-20)
(1.2264 0.0133523 -3.77836e-20)
(1.004 -0.0203101 0)
(1.08054 0.015092 -3.47604e-22)
(1.30359 -0.248714 0)
(0.976124 -0.0945061 1.50883e-20)
(1.16262 -0.0309426 -2.393e-22)
(0.215858 -0.662299 2.18858e-20)
(-0.124801 -0.0273502 1.52775e-19)
(1.33828 -0.101325 6.10954e-20)
(-0.114209 -0.02658 -7.59752e-20)
(1.12501 0.0903261 9.88031e-21)
(-0.0348568 0.024115 0)
(0.832782 0.103686 0)
(0.985587 -0.0243086 1.1026e-20)
(0.996399 -0.0338685 7.24107e-21)
(0.777685 -0.379269 3.75984e-20)
(0.999305 -0.00842007 0)
(1.14083 0.0658126 0)
(1.0471 -0.0403853 0)
(-0.176133 -0.00239566 1.39382e-19)
(-0.260175 -0.00487262 0)
(1.02038 -0.00114399 0)
(0.941973 -0.30403 0)
(1.25815 -0.118129 -6.88663e-20)
(1.01149 -0.00380028 7.34845e-21)
(-0.140791 -0.022236 0)
(0.132051 -0.067077 0)
(0.903357 -0.213649 3.20028e-20)
(1.30095 -0.202633 -1.59992e-19)
(1.18442 0.0457152 -5.69396e-21)
(1.22224 0.0787407 1.29031e-19)
(1.09418 -0.237601 -8.52751e-21)
(1.02731 0.000296285 -1.09937e-20)
(-0.050486 0.0224107 -5.31336e-20)
(1.0349 -0.528957 -1.32346e-19)
(-0.0522068 0.0207953 2.07248e-20)
(0.0248349 -0.0448774 -1.40544e-19)
(1.22169 -0.280411 6.97233e-20)
(-0.144087 -0.0192291 -8.63623e-21)
(1.10315 -0.039084 -3.66734e-20)
(0.496095 0.0324056 8.43586e-21)
(0.997187 -0.0342873 3.07219e-21)
(1.09374 -0.0277032 0)
(0.0460576 0.0265174 1.82891e-20)
(0.999847 -0.00148233 -1.47716e-20)
(0.197889 0.0515521 -7.27894e-21)
(-0.161074 -0.00121237 0)
(0.100588 0.321119 -1.28633e-19)
(0.667105 -0.0351124 7.69729e-20)
(0.999705 -0.00181295 2.08562e-20)
(0.88135 -0.0932097 2.64905e-20)
(0.789471 0.0999991 8.33586e-21)
(1.18448 -0.0544376 0)
(-0.155556 0.00125657 0)
(-0.250724 -0.00701901 1.8866e-20)
(-0.239373 -0.00609574 2.46984e-20)
(1.02912 -0.00673143 1.66623e-20)
(0.192839 0.804662 1.00634e-19)
(-0.167102 -0.0161667 -8.13666e-21)
(1.0316 -0.445084 2.38267e-20)
(1.33873 -0.264955 3.1585e-20)
(0.104977 0.0414166 3.12836e-20)
(0.706774 0.09943 -3.15257e-20)
(1.27168 -0.0562722 5.63707e-20)
(0.999803 -0.00269713 -5.56631e-21)
(1.00029 -0.00423433 0)
(0.83146 0.103121 -8.09985e-20)
(0.738726 -0.325673 8.91886e-20)
(1.16419 0.0882008 8.64649e-21)
(1.27651 -0.0562775 -7.67773e-20)
(0.107989 0.699425 -9.20449e-20)
(-0.0614708 0.0222067 0)
(1.1509 -0.0802209 0)
(1.15007 -0.077601 0)
(-0.202646 -0.00100791 -6.89226e-20)
(1.12573 -0.046793 2.14618e-22)
(0.943401 -0.178657 2.58406e-20)
(-0.04957 0.0215256 0)
(-0.161713 -0.00236619 -1.05354e-19)
(-0.328681 -0.012228 -7.53359e-20)
(1.23295 -0.354917 1.04441e-19)
(1.10445 0.0146137 -1.86607e-20)
(1.28063 -0.0502572 7.66559e-20)
(1.33463 -0.0727587 1.0707e-19)
(-0.00334196 -0.0413866 0)
(1.00295 -0.0188985 3.34615e-22)
(-0.258202 -0.00472101 0)
(0.996314 -0.0409555 3.99527e-21)
(-0.0971818 -0.0313858 -1.43685e-19)
(1.092 -0.16211 -1.09855e-20)
(0.929656 -0.30122 -6.6531e-21)
(1.04107 -0.226043 -1.28902e-20)
(-0.331696 -0.0123428 2.20462e-19)
(-0.314747 -0.0132745 0)
(1.26435 -0.0791605 0)
(1.00024 -0.00354132 0)
(0.674825 -0.0126825 -2.99013e-21)
(0.868231 -0.112216 -1.14027e-21)
(0.995538 -0.144802 -4.84596e-21)
(1.12788 -0.252107 -4.21919e-20)
(1.00277 -0.0402034 0)
(0.0545568 0.0282063 -5.89905e-21)
(0.955625 -0.0801789 2.83738e-20)
(1.03253 -0.534182 0)
(0.659138 -0.0157405 5.00458e-20)
(-0.312543 -0.0119551 1.1346e-19)
(0.451143 0.0354824 0)
(1.1563 0.0753412 0)
(0.313708 -0.114557 2.09469e-21)
(0.986821 -0.0248768 0)
(1.00679 -0.0240387 3.33281e-22)
(1.13198 -0.0528611 -3.18215e-20)
(1.09522 0.0200489 -2.41849e-20)
(1.24383 -0.271718 0)
(1.28147 -0.0385642 0)
(1.03145 -0.0144047 5.08278e-21)
(-0.149275 -0.000807806 -4.01288e-21)
(1.18113 -0.0631191 6.87128e-20)
(0.929657 0.0650864 0)
(1.01424 -0.0120954 -5.45132e-21)
(1.02106 -0.00343384 -5.22018e-21)
(-0.02255 0.00742735 0)
(0.326038 0.0153306 7.62719e-20)
(-0.245903 -0.0104896 -1.28047e-19)
(1.12639 -0.219929 4.59666e-21)
(1.28027 -0.0541064 -9.08233e-20)
(1.15681 0.0738744 0)
(1.00046 -0.00558462 1.40417e-22)
(1.30796 -0.0667507 -3.7396e-20)
(0.132717 0.0491957 7.57972e-21)
(1.02232 -0.255535 0)
(-0.043585 0.0216984 0)
(1.15585 -0.0545204 0)
(-0.318589 -0.0109451 -1.83402e-19)
(1.01859 -0.0128366 0)
(0.997698 -0.0790813 4.94271e-21)
(-0.318797 -0.0131719 0)
(0.41489 0.0768756 -5.71829e-20)
(0.392335 0.0756527 5.87434e-20)
(-0.326406 -0.012407 0)
(-0.255862 -0.00653209 -1.70047e-22)
(1.02009 -0.00153639 1.07905e-20)
(1.03004 -0.00701625 -1.70153e-20)
(1.18121 -0.0556659 2.10402e-21)
(-0.258176 -0.00882042 0)
(1.18765 0.0439819 6.51233e-21)
(-0.16494 -0.00378356 8.5272e-20)
(1.02975 -0.00113323 -1.56553e-20)
(1.26911 -0.0780911 6.47503e-20)
(-0.223868 -0.00478093 1.33659e-19)
(0.999869 -0.0015695 0)
(1.03097 -0.0101919 1.06713e-20)
(0.987518 -0.0329258 0)
(1.04856 -0.00877687 6.24987e-23)
(1.0305 -0.00129236 -1.34178e-20)
(0.600863 -0.0209011 2.13644e-20)
(-0.135983 0.00275572 5.98193e-21)
(-0.165843 -0.00126652 -2.98291e-20)
(0.976876 -0.0194019 0)
(0.569147 -0.0185591 -8.60686e-20)
(-0.221342 -0.00415555 0)
(-0.14799 -6.07471e-05 3.41161e-21)
(1.01423 -0.0115523 9.70974e-21)
(-0.119316 0.00113597 1.13543e-19)
(0.97248 -0.0856688 9.10972e-21)
(1.00092 -0.0560972 6.90395e-21)
(1.26116 -0.0068769 4.22909e-20)
(0.901928 -0.0644737 -2.05961e-20)
(1.1792 -0.0608661 -6.96098e-20)
(-0.055172 0.00429352 -2.20516e-20)
(-0.116197 0.0133214 0)
(1.03834 -0.0148698 1.16181e-20)
(1.18768 0.0417894 -2.29783e-20)
(1.10538 0.00405089 4.35208e-20)
(-0.116731 -0.0202521 1.31996e-19)
(0.173854 0.0509185 0)
(1.10668 -0.0149659 0)
(0.95425 -0.0583828 0)
(1.04487 -0.0576751 0)
(-0.252063 -0.00678412 -4.77118e-23)
(1.08156 0.010074 3.48462e-20)
(0.869128 -0.27822 -4.45676e-20)
(1.27413 0.00848157 0)
(1.09502 -0.0796035 2.30047e-20)
(0.75838 0.597785 -3.82797e-21)
(1.03053 -0.0106891 0)
(1.20481 0.079591 -4.27197e-20)
(1.03214 -0.0404303 0)
(-0.178654 -0.00380038 -1.40336e-19)
(0.984453 -0.0250356 -1.4076e-22)
(0.148811 0.0507286 0)
(1.18588 -0.28644 -3.95381e-20)
(0.910139 0.0809135 3.05998e-21)
(1.00969 -0.00298222 5.1948e-21)
(0.41253 -0.0835207 9.17082e-20)
(-0.242262 -0.00470535 -5.27404e-22)
(1.00031 -0.00502894 0)
(1.09562 0.00796013 7.81709e-20)
(0.925291 -0.0735697 -3.08309e-20)
(-0.160792 -0.00644739 1.16809e-19)
(1.04997 -0.0103905 -5.08337e-21)
(1.2841 -0.029883 -4.12209e-21)
(0.881253 0.100577 -3.74728e-20)
(1.0428 0.00890933 -4.15923e-20)
(0.993187 -0.0267688 0)
(0.986197 -0.0457592 -2.27025e-20)
(0.0724176 0.00587842 -4.71108e-20)
(1.20397 0.0596329 0)
(0.35736 0.0303393 -1.24854e-19)
(1.22994 -0.365083 -9.86647e-20)
(1.04451 -0.0146722 1.75578e-20)
(-0.183498 -0.0044851 0)
(-0.0441871 -0.0238267 0)
(1.12886 -0.101004 -4.98093e-21)
(0.0417154 0.0265352 0)
(-0.161579 -0.00634703 -1.07552e-19)
(0.968578 0.0617058 0)
(1.10375 -0.00336192 1.80389e-20)
(1.10141 -0.0403184 0)
(0.999868 -0.00263521 7.01055e-21)
(1.19341 -0.280216 -4.24658e-20)
(0.968298 -0.0592145 -4.57907e-21)
(1.20459 0.0905416 7.20575e-21)
(0.956034 -0.319539 0)
(1.327 -0.0444919 9.12508e-20)
(1.04675 -0.232464 1.34445e-20)
(-0.10664 0.00404025 -9.89395e-20)
(-0.288978 -0.0128302 0)
(-0.271273 -0.00564877 0)
(1.20454 0.047261 0)
(1.16503 0.0871019 -7.0448e-21)
(1.00391 -0.0166496 0)
(1.16611 0.0855879 2.54154e-20)
(1.10339 0.0291342 0)
(0.92279 -0.0703146 0)
(1.01724 -0.0577608 1.44131e-21)
(1.2895 -0.234177 9.62937e-20)
(1.02305 -0.00751709 -6.22507e-21)
(-0.128112 -0.0262681 -1.1104e-20)
(-0.0726897 0.0201644 -6.51864e-20)
(-0.174291 -0.00774345 -1.25123e-19)
(1.05267 -0.0958291 0)
(1.08751 -0.452629 0)
(-0.314602 -0.0105586 4.54632e-20)
(1.00695 -0.0251677 -1.35345e-21)
(0.851208 -0.0771937 0)
(1.09093 -0.182341 1.94658e-20)
(1.13922 0.0498105 2.49154e-20)
(1.2363 -0.0549602 0)
(1.10537 -0.0163773 2.04097e-20)
(1.18204 0.0182672 0)
(1.1038 0.00493729 -3.665e-20)
(1.13653 -0.0280908 -1.37185e-19)
(0.87041 -0.104341 -2.69132e-20)
(-0.191946 0.00438762 7.09411e-20)
(0.122931 0.275386 6.22856e-20)
(1.17927 0.0190737 -1.86684e-20)
(1.09437 -0.056059 3.32854e-20)
(1.0123 -0.00287763 0)
(0.947151 0.0815235 0)
(1.02545 -0.121971 -7.1994e-21)
(1.11055 -0.167576 2.16231e-20)
(0.504949 0.0287467 7.55686e-20)
(0.99253 -0.0280802 0)
(1.31089 -0.0396582 0)
(0.535763 0.00720419 0)
(1.09682 0.0189555 -1.26753e-20)
(0.616401 -0.632981 5.98621e-20)
(0.0494723 0.0283653 1.19417e-20)
(1.00429 -0.0168827 0)
(1.09224 -0.0804128 0)
(-0.193198 -0.0178621 -7.57109e-20)
(1.14371 -0.0133903 0)
(1.12866 -0.0480877 -2.35875e-22)
(1.01513 -0.011711 -5.0679e-21)
(1.22893 0.0118188 0)
(0.718815 0.112887 3.11772e-20)
(1.16608 0.105539 4.32881e-20)
(-0.272137 -0.00610738 0)
(0.994009 -0.0291775 0)
(0.969868 -0.0872927 5.05948e-21)
(1.01522 -0.0111504 0)
(1.16525 0.104812 0)
(1.08421 0.0145221 0)
(1.2202 -0.308513 -3.01853e-22)
(1.28753 -0.227829 -8.52672e-20)
(1.10428 0.0257744 -4.07356e-20)
(0.81499 -0.245414 2.81926e-20)
(0.180335 0.0541768 -1.34097e-20)
(1.23354 -0.0592894 -6.56122e-20)
(1.23632 -0.0622287 9.02055e-20)
(-0.0942458 -0.0310579 1.44471e-19)
(1.1013 -0.00296356 -1.63153e-20)
(1.0718 -0.0486883 -5.41365e-21)
(1.23425 -0.0517608 0)
(1.07216 -0.137064 2.01898e-19)
(0.364699 -0.274003 1.38699e-19)
(0.765563 -0.596301 0)
(1.27181 0.0060832 -7.79845e-20)
(1.28067 -0.0263306 6.48625e-20)
(0.878804 -0.102081 6.19435e-21)
(1.03292 0.0192539 0)
(-0.0318735 0.016286 1.66974e-20)
(1.17007 0.101252 2.47642e-21)
(0.0985774 0.00950209 0)
(-0.0658474 -0.0218686 0)
(1.08959 -0.0542962 0)
(0.508144 0.459579 0)
(1.08833 -0.242348 0)
(0.90706 -0.118688 3.68735e-20)
(-0.31411 -0.0121619 -4.85811e-20)
(0.799793 0.10204 6.48856e-20)
(1.01731 -0.00288951 5.77428e-21)
(1.21855 0.0756572 0)
(0.96017 0.0724888 4.8595e-20)
(1.1624 0.0872565 -5.63065e-20)
(0.0804272 -0.0030239 -1.71218e-19)
(1.11055 -0.0211782 0)
(-0.236747 -0.00957464 7.92709e-21)
(0.157405 0.036242 1.8741e-20)
(1.3094 -0.078138 0)
(-0.324961 -0.0111241 8.19583e-20)
(0.146013 0.0295633 0)
(-0.0179275 0.00693366 3.61365e-20)
(1.21763 -0.289488 1.02484e-21)
(0.134394 0.0495399 -2.7676e-20)
(-0.317981 -0.0126213 -5.12641e-20)
(1.03001 -0.00172561 1.81938e-20)
(1.04553 -0.0389124 0)
(1.29341 -0.0266425 -5.38634e-20)
(-0.160927 -0.00470006 6.19344e-20)
(1.03665 -0.0355775 -1.2343e-20)
(1.20264 0.0898184 2.4378e-20)
(1.14746 0.0388502 2.98863e-20)
(0.735511 -0.174421 0)
(-0.124779 -0.0321526 9.75353e-21)
(1.16164 0.0886112 5.27562e-20)
(1.15963 0.0734317 -8.76941e-20)
(1.13697 -0.154213 4.30902e-21)
(-0.326019 -0.0121217 2.50012e-20)
(1.1925 -0.0402726 1.31471e-19)
(1.13346 -0.22194 0)
(1.02726 -0.115517 3.54795e-21)
(0.166101 0.0407747 -8.82893e-21)
(0.127475 0.0382889 9.53592e-21)
(0.999987 -0.0453511 -8.34571e-22)
(-0.0768851 0.0139678 0)
(-0.034233 0.0231822 4.08157e-20)
(1.16037 0.0717548 7.60591e-20)
(0.152772 0.0505769 -6.70072e-21)
(1.27479 -0.324593 0)
(1.13701 -0.429338 -6.1336e-20)
(0.198896 0.0563507 2.3061e-20)
(1.13903 0.0485142 -5.42025e-20)
(1.12635 -0.0975177 4.68765e-21)
(1.11677 -0.0611707 -2.61068e-20)
(0.994999 -0.04062 -4.21401e-21)
(0.979356 -0.336422 0)
(0.819315 0.0990725 3.8443e-20)
(1.17099 0.0999962 1.76931e-20)
(1.20543 0.0847354 3.06776e-20)
(1.12684 -0.0180421 0)
(0.994346 -0.0305863 1.07573e-21)
(1.0002 -0.00348163 -6.96459e-22)
(1.05035 -0.0109734 0)
(0.110351 -0.127141 1.46896e-19)
(0.480847 0.0118889 -2.79023e-20)
(-0.161587 -0.00395704 0)
(0.0753295 -0.120999 -1.55089e-19)
(1.23574 -0.271564 6.69315e-20)
(0.23836 -0.0395712 5.59438e-20)
(1.12271 0.0126524 1.36448e-20)
(-0.144131 -0.0219795 0)
(0.957104 -0.0573364 0)
(1.04113 -0.0149978 0)
(0.999855 -0.00226459 8.264e-21)
(1.06611 0.0982673 -1.80467e-20)
(1.03523 -0.0327626 0)
(-0.0661939 0.0217485 7.34891e-20)
(1.02965 -0.00256024 0)
(0.941812 -0.0188267 4.01788e-20)
(1.03159 -0.0161321 -1.30843e-20)
(0.961707 0.0724134 0)
(1.2454 -0.465895 1.38503e-19)
(0.999918 -0.00211495 5.03853e-22)
(1.1055 0.0247739 0)
(1.20113 0.0509748 5.67772e-20)
(0.906776 -0.124628 0)
(0.885411 -0.0162443 -7.96382e-20)
(0.105403 -0.00254621 5.1119e-20)
(1.10481 0.000586114 7.05429e-21)
(1.2066 0.0817856 -4.90965e-20)
(1.07503 0.01417 3.77191e-20)
(-0.314965 -0.011967 -6.13e-20)
(1.07355 -0.0539094 3.43362e-21)
(1.02484 -0.0309434 0)
(-0.326205 -0.0125261 -6.81527e-21)
(1.06132 -0.0641131 -1.05475e-20)
(0.930297 -0.214787 -1.9771e-20)
(0.997156 -0.11813 -1.98148e-19)
(1.0129 -0.00285871 0)
(0.999787 -0.00194187 0)
(-0.311153 -0.0120752 -8.904e-20)
(1.32529 -0.0969101 3.18797e-21)
(1.31813 -0.01904 7.57155e-20)
(1.0911 -0.0305315 -1.57644e-20)
(1.14095 -0.0889196 1.69962e-20)
(1.06363 -0.0205533 -2.42748e-20)
(0.680234 -0.311876 -1.60101e-19)
(0.946564 0.0497451 -1.32978e-19)
(1.0001 -0.00071757 3.41151e-21)
(-0.175313 -0.00422905 3.3017e-20)
(0.991356 0.0532536 0)
(-0.0527455 0.02374 2.30292e-21)
(-0.115698 0.0134783 0)
(0.973955 -0.0260305 1.31456e-20)
(1.00654 0.0970859 -5.85706e-20)
(0.407202 0.0741327 0)
(-0.141923 -0.02108 4.321e-21)
(-0.308607 -0.0123577 -2.33226e-20)
(1.12352 0.0140855 0)
(0.461259 0.0831021 4.19627e-20)
(0.818739 -0.259622 -7.01604e-20)
(1.24106 0.0598654 -5.66917e-20)
(1.20649 0.0885846 8.24665e-20)
(-0.0925906 0.013197 3.74277e-20)
(-0.310625 -0.0113111 7.32126e-20)
(-0.104911 0.0117143 0)
(-0.0709795 0.0215574 0)
(-0.0899504 0.0167387 -4.24681e-20)
(0.952652 -0.313166 0)
(1.07209 -0.0525848 -2.5293e-21)
(1.11123 -0.0136265 0)
(1.12262 -0.15457 2.61179e-20)
(1.00413 -0.00162703 4.84063e-21)
(1.13361 -0.408582 -8.85654e-20)
(1.2084 -0.19002 -7.90651e-20)
(-0.257461 -0.0100756 -3.63332e-20)
(1.23214 0.00681676 1.16037e-20)
(1.20335 0.0181506 1.59178e-20)
(1.2933 -0.336051 1.02467e-19)
(0.389828 0.0760872 0)
(0.23546 0.0574591 0)
(0.0866526 0.0301564 7.01976e-20)
(1.27883 -0.0187579 -1.49485e-19)
(1.01212 -0.518865 0)
(1.00013 -0.00248095 1.39587e-21)
(1.10801 -0.0392228 6.38915e-22)
(1.03048 -0.00159473 -1.01151e-21)
(1.01913 -0.180034 0)
(0.411549 0.0781416 -4.51989e-22)
(1.06112 -0.0230922 5.80799e-21)
(1.1236 0.00890833 0)
(1.22351 -0.162197 -1.98434e-20)
(0.259362 -0.0132853 6.28944e-22)
(1.14674 -0.0675329 6.14442e-20)
(-0.147029 -0.0210946 0)
(1.2679 -0.217655 6.98683e-20)
(-0.131485 0.00250068 1.20241e-20)
(1.03437 -0.0394648 -1.48513e-21)
(0.968504 -0.056224 9.53201e-21)
(0.999837 -0.00166745 -2.84123e-21)
(0.937752 -0.170976 1.08847e-20)
(-0.0716305 -0.0350297 1.77163e-19)
(1.1251 -0.159847 0)
(0.34635 -0.119029 2.48842e-21)
(1.02388 -0.029596 0)
(1.16016 -0.042676 0)
(-0.0950986 -0.0229649 -1.74926e-20)
(1.03704 -0.0148027 0)
(1.03085 -0.250235 0)
(0.116646 0.0338736 5.79207e-20)
(0.148914 -0.0353942 -5.80596e-20)
(-0.313312 -0.0120169 0)
(0.987894 -0.0236318 1.29564e-20)
(1.09004 -0.0770128 -3.40446e-22)
(0.926799 -0.0359231 -2.25393e-20)
(0.415067 -0.0122565 0)
(1.20061 -0.176389 -7.74048e-20)
(1.06123 -0.164952 -1.87829e-20)
(1.02912 -0.000912083 1.36577e-20)
(1.01094 -0.00326328 -6.67778e-21)
(0.999738 -0.00314175 -8.99689e-21)
(0.817276 0.104804 5.42223e-20)
(1.17973 0.084134 3.0521e-20)
(0.0927749 0.130524 7.60113e-20)
(-0.090279 0.0142277 4.57564e-20)
(1.07592 -0.0612078 -2.2909e-20)
(1.30241 -0.151941 0)
(1.10481 0.0163094 1.8053e-20)
(1.08721 -0.0549833 1.67949e-20)
(0.568291 0.0624397 1.92246e-19)
(1.01459 -0.0450576 0)
(1.12623 -0.0260047 2.84216e-20)
(-0.0925075 0.0166755 2.1911e-20)
(1.03089 -0.0166963 1.88082e-20)
(-0.249244 -0.00460658 0)
(0.98571 0.0450414 1.0705e-19)
(0.920255 -0.217232 -4.70541e-20)
(1.32054 -0.020822 -2.46054e-20)
(0.455202 0.0301061 9.66337e-21)
(0.436387 0.0778239 0)
(1.14715 -0.101107 -1.22026e-20)
(0.520723 0.0876893 -4.05077e-21)
(1.13793 -0.326962 -3.75613e-20)
(1.05103 -0.112361 0)
(0.999053 -0.00887008 0)
(1.11468 -0.163426 2.88822e-21)
(1.15157 0.0766551 0)
(0.567729 0.064117 -6.15172e-20)
(1.16727 -0.0346072 0)
(1.00018 -0.000221072 0)
(0.40024 -0.312288 -1.85531e-19)
(1.00286 -0.018018 -4.6096e-22)
(1.10601 0.00178216 -2.59574e-21)
(-0.11341 -0.0219 -7.22128e-20)
(1.22886 0.0079555 0)
(1.22382 -0.167576 -8.93422e-23)
(-0.00543634 -0.0462163 0)
(1.13143 -0.00888723 3.06319e-20)
(1.00465 -0.0130042 1.77382e-22)
(1.05051 -0.00417831 1.6863e-20)
(0.98714 -0.167223 0)
(1.0002 -0.000998998 -3.58654e-21)
(0.103055 0.0270996 0)
(1.06356 -0.065436 4.43964e-21)
(1.20073 0.0196239 0)
(-0.248723 -0.0125469 7.86426e-20)
(1.02488 -0.00298102 0)
(1.08527 -0.0742682 0)
(-0.258703 -0.0123841 0)
(0.975027 -0.166887 -5.86564e-21)
(0.659064 -0.305392 4.58535e-20)
(0.343739 0.0256613 1.66172e-19)
(1.04707 -0.0576591 1.10888e-20)
(1.28224 -0.0229223 -7.28557e-20)
(1.0005 -0.00695754 0)
(0.193348 0.0567733 -2.92719e-20)
(1.21164 -0.369863 0)
(0.940187 0.0496403 1.68314e-21)
(1.21045 -0.309283 0)
(-0.121916 -0.0267608 -4.01652e-20)
(-0.173729 -0.00698278 1.2915e-19)
(0.857433 -0.285156 0)
(1.22327 -0.0808876 -6.87511e-20)
(1.03441 -0.00276945 0)
(1.15392 0.077076 4.78753e-21)
(0.689 -0.342792 -1.2263e-19)
(-0.0898267 -0.0418841 -1.22739e-19)
(0.941945 -0.0167467 -2.65426e-20)
(0.253328 -0.0458899 1.52985e-19)
(1.00357 -0.020071 -3.52889e-22)
(1.03231 -0.129656 -7.81698e-20)
(1.11353 -0.0624656 2.64399e-20)
(1.3196 -0.0912258 -8.49854e-20)
(1.03265 -0.0147353 0)
(1.05979 -0.0241593 -1.9909e-20)
(1.18876 -0.325394 -5.91572e-20)
(1.26019 -0.214008 0)
(0.977562 -0.0178922 0)
(1.11693 0.0294633 5.13356e-20)
(1.05797 -0.0235215 -5.95359e-21)
(1.22165 -0.371091 3.02028e-20)
(-0.163906 -0.0186419 0)
(1.05622 -0.166517 1.78546e-20)
(-0.30542 -0.0132709 7.52252e-20)
(-0.166142 -0.0276051 0)
(-0.0841289 0.0187557 -7.68029e-21)
(1.00048 -0.00678348 -4.20311e-23)
(0.269161 0.0566157 0)
(1.00034 -0.0798394 -3.88117e-21)
(1.02173 -0.00384659 -4.43747e-21)
(1.27377 -0.114601 0)
(0.991196 -0.148761 0)
(0.957779 -0.0976003 -3.35669e-20)
(-0.121408 -0.0195162 0)
(1.12312 -0.0252907 -8.76893e-23)
(0.991719 -0.170883 4.23603e-21)
(0.863499 -0.0835894 3.53675e-20)
(0.996378 -0.0465438 7.71575e-21)
(1.02547 -0.00299223 -7.95718e-21)
(0.171962 0.0531197 3.7474e-20)
(1.04226 -0.111652 -1.15248e-19)
(1.02656 -0.010973 4.25562e-21)
(1.02373 -0.00721489 6.50981e-21)
(1.25626 -0.00767489 -1.28768e-19)
(1.02392 -0.0158934 1.05955e-20)
(-0.144671 0.000773598 0)
(1.03351 -0.243374 -1.96024e-20)
(-0.103179 -0.0302425 -3.83404e-20)
(0.51437 0.0232514 0)
(1.03654 -0.0340204 0)
(1.11973 -0.179128 -1.61331e-20)
(0.235681 0.0567114 5.08434e-21)
(1.1793 0.0241998 0)
(0.9999 -0.00190644 -8.06812e-21)
(0.898487 -0.29502 -5.41477e-20)
(1.16307 -0.041233 2.14167e-21)
(1.00211 -0.0413926 0)
(0.872449 -0.350489 1.71412e-21)
(-0.121518 -0.0173713 0)
(1.15685 -0.057991 0)
(-0.0559657 -0.0297836 0)
(1.31558 -0.0267441 0)
(1.15357 -0.0602801 4.8823e-20)
(1.00102 -0.0139364 -4.13592e-22)
(0.585896 0.0729246 0)
(1.00129 -0.0144403 4.97777e-22)
(1.08744 -0.0773239 -4.61479e-22)
(1.16988 0.0838389 0)
(1.0005 -0.000356751 0)
(1.06306 -0.023708 -1.43856e-20)
(1.27656 -0.120091 4.78854e-20)
(1.3498 -0.339362 0)
(-0.244926 -0.011625 1.50212e-19)
(-0.106271 0.0114238 -1.11769e-19)
(0.841515 0.105466 0)
(1.00035 -0.0077689 0)
(-0.127976 0.0123698 -3.53741e-21)
(-0.228302 -0.00524838 -6.98453e-20)
(1.1616 -9.40409e-05 2.97975e-20)
(-0.170504 -0.0156863 1.83341e-20)
(1.3021 0.022476 4.61011e-20)
(1.19882 0.0915913 0)
(1.20026 0.0919837 -3.52753e-21)
(1.17836 0.0225074 3.72913e-20)
(-0.153332 -0.0111889 0)
(0.809913 -0.0614659 1.27554e-19)
(-0.186415 0.00444851 0)
(0.908739 -0.299498 3.8794e-20)
(1.13337 -0.100715 0)
(0.895224 -0.411406 -7.28039e-21)
(1.19409 -0.31706 6.51716e-20)
(0.925301 -0.726613 4.6657e-20)
(1.06976 0.00457934 -2.48767e-22)
(1.13243 -0.259628 0)
(0.127135 0.0443426 0)
(0.880857 0.000583005 1.00765e-19)
(1.12293 -0.0487887 -1.7772e-21)
(0.0791289 0.0283271 -5.32682e-20)
(-0.203567 -0.0136502 -1.42252e-19)
(-0.00843181 0.00723266 3.47084e-20)
(0.98772 -0.0465912 7.22047e-21)
(1.3494 -0.281587 0)
(-0.174716 -0.00314797 0)
(0.222316 0.0565579 -3.97168e-20)
(-0.31534 -0.0107726 1.88644e-19)
(1.05704 -0.0352786 -1.2803e-20)
(1.10513 0.027649 3.69272e-20)
(1.30245 -0.148177 1.05026e-19)
(-0.0295374 0.00499042 0)
(-0.0125811 0.00722982 0)
(1.14285 -0.0256085 -1.2823e-21)
(-0.168449 -0.0101997 -1.79506e-20)
(1.01452 -0.00157039 -8.54816e-21)
(0.794244 -0.615045 0)
(1.11884 0.0264246 0)
(1.04853 -0.109913 9.62289e-21)
(0.156435 -0.0412821 -7.40367e-20)
(1.03088 -0.014993 -4.99248e-21)
(-0.123314 0.00249629 0)
(1.13369 -0.0153038 -1.85261e-20)
(0.965524 -0.334428 0)
(0.917944 -0.103153 4.06564e-21)
(0.876171 -0.0883152 -1.02041e-21)
(-0.248147 -0.0140577 1.35583e-19)
(0.999078 -0.00811837 0)
(1.03543 -0.0359125 0)
(-0.179506 -0.0132998 -7.57735e-20)
(-0.282245 -0.00760976 8.12898e-20)
(1.12447 0.0105947 -1.6928e-20)
(1.01787 -0.0119467 0)
(0.994525 -0.138943 -1.00109e-21)
(-0.247661 -0.00499167 -8.50957e-20)
(1.19078 0.037665 -2.56634e-20)
(-0.204424 3.3373e-05 -4.08878e-20)
(0.5076 0.021371 0)
(1.13234 -0.0559301 5.72305e-20)
(0.999639 -0.00342467 -1.50308e-22)
(-0.0546744 -0.0348988 0)
(0.881764 -0.423861 -4.37287e-21)
(-0.0942644 0.0115949 9.12382e-20)
(1.12854 -0.0092217 -5.81332e-23)
(0.854742 -0.0840546 0)
(1.17924 0.0506852 -2.34447e-20)
(1.00071 -0.0438691 -2.8045e-21)
(1.02886 -0.000551212 1.23394e-20)
(1.14084 -0.0269419 -1.79149e-20)
(1.22108 0.0561361 0)
(0.635628 -0.302513 6.32707e-20)
(1.17331 0.0817969 -3.94623e-20)
(1.0214 -0.00151739 -1.35917e-21)
(-0.322064 -0.0119141 1.11225e-19)
(0.839858 0.105533 0)
(0.976383 -0.0284098 -6.21409e-21)
(1.01404 -0.0434362 0)
(0.900255 -0.106877 -5.60327e-21)
(1.00397 -0.0193624 -2.40187e-22)
(1.06802 0.0224898 5.91333e-22)
(1.29866 0.0194041 0)
(1.00244 -0.028343 -8.04097e-22)
(1.00235 -0.0384211 -6.56057e-21)
(0.999449 -0.00743336 7.29e-21)
(1.02895 -0.0527224 3.30046e-22)
(1.00131 -0.0206503 3.43099e-22)
(1.02936 -0.00275999 0)
(0.556727 0.00510996 7.14863e-20)
(1.14341 -0.169999 0)
(1.01601 -0.185296 1.36972e-21)
(-0.20707 -0.0122325 1.29819e-19)
(0.998817 -0.00858489 0)
(1.07949 0.0120746 -7.7175e-21)
(1.08983 -0.0370275 1.50734e-20)
(0.290369 -0.069631 -3.60992e-21)
(0.140565 -0.250781 0)
(-0.0595527 0.0144461 -1.22872e-20)
(1.08302 -0.121463 0)
(0.999614 -0.00714987 -7.18341e-21)
(-0.171835 -0.0168875 -8.02708e-20)
(1.01762 -0.0541652 -3.95992e-21)
(0.060998 0.0291613 7.58899e-22)
(1.11094 -0.0602987 -2.46743e-20)
(1.20386 -0.172414 -4.3512e-21)
(1.31815 -0.103458 -6.13163e-20)
(-0.208422 0.0021295 -5.45397e-20)
(0.992763 -0.0413465 0)
(1.04105 0.00302876 -7.68147e-23)
(1.0374 0.0145065 -4.88121e-20)
(0.253226 0.0610948 -3.81495e-20)
(1.12727 -0.0212862 0)
(1.01937 -0.168337 0)
(1.03497 -0.00305286 2.29586e-20)
(1.28013 -0.0156617 1.42577e-19)
(1.11729 0.0309109 -4.35906e-20)
(1.12937 -0.0201113 1.13966e-21)
(0.977896 -0.0900945 -1.64842e-20)
(1.02952 -0.00212666 -9.15471e-21)
(-0.215682 0.000805555 1.01597e-19)
(1.08756 -0.134197 -2.45977e-20)
(1.02343 -0.00637546 0)
(0.347085 0.694131 9.80279e-20)
(-0.182667 -0.0144363 1.15081e-19)
(-0.212823 -0.00800319 1.42322e-19)
(-0.326064 -0.011048 -2.75957e-19)
(1.14847 0.0784875 0)
(1.02696 -0.00339387 1.81838e-20)
(-0.235434 -0.00872865 0)
(1.26271 -0.00427051 -5.70744e-20)
(1.3284 -0.345256 4.27002e-20)
(1.12201 -0.0976773 -4.33146e-24)
(0.868076 -0.0897226 6.45973e-20)
(1.18218 0.0503974 5.94692e-21)
(1.01668 -0.162316 -8.31309e-22)
(-0.165785 -0.0165156 6.55828e-20)
(1.32924 -0.0532021 1.04831e-19)
(1.01025 -0.00352793 1.8316e-21)
(1.2082 -0.0274922 6.59114e-21)
(1.17642 0.0541046 -4.34214e-20)
(1.00407 -0.0505328 6.11255e-22)
(0.0422869 -0.101105 5.03525e-22)
(1.08141 -0.00295217 -1.54068e-20)
(0.961088 -0.0876134 1.41096e-20)
(0.0977462 0.00837722 -4.66576e-20)
(0.436557 0.0755252 0)
(0.997906 -0.0466885 0)
(0.0444344 0.0279935 0)
(-0.0898797 -0.0295936 0)
(1.00421 -0.0159084 3.07754e-22)
(1.00003 -0.0726811 0)
(1.22721 0.0596127 0)
(0.437756 0.617682 -4.62249e-20)
(0.665691 -0.336659 4.95259e-20)
(1.02555 -0.00994071 7.23425e-21)
(1.18414 -0.0413181 0)
(1.16539 -0.0511271 0)
(0.417035 0.0783021 6.90911e-20)
(-0.108419 0.014071 0)
(-0.111434 -0.0215634 6.09361e-21)
(0.7213 -0.170141 -7.97547e-20)
(1.05543 -0.0357953 0)
(-0.156226 -0.0210854 0)
(1.09347 -0.0302546 3.22748e-20)
(0.757043 -0.00630016 -9.24647e-20)
(1.06784 -0.0649611 -1.43796e-21)
(0.3923 0.0747073 -5.56968e-20)
(0.503035 0.512611 5.91143e-20)
(1.06567 -0.0639827 -4.88878e-21)
(1.00559 -0.00102448 5.28088e-21)
(1.1319 -0.0134317 3.55707e-20)
(0.257497 -0.04397 -7.37337e-20)
(0.357086 -0.153109 0)
(0.998653 -0.044774 -3.72172e-21)
(0.984303 -0.0262882 5.29673e-21)
(-0.128032 -0.012565 6.4516e-20)
(1.02298 -0.0314374 8.63857e-22)
(0.381732 0.183836 0)
(1.03097 -0.558918 0)
(1.02424 -0.00872305 1.36284e-20)
(1.02136 -0.0342625 -2.06844e-22)
(0.171591 0.0486604 0)
(1.12004 -0.0473252 -2.51573e-20)
(0.144087 0.0224349 0)
(0.516899 -0.678862 1.78898e-19)
(1.00223 -0.0581611 -3.40217e-21)
(1.0759 -0.0863907 2.65867e-20)
(1.1593 0.0900318 0)
(1.09475 -0.0534937 -3.36597e-20)
(1.20535 -0.00902334 -8.8567e-22)
(1.15714 0.0895059 0)
(0.825088 -0.101527 -1.33337e-20)
(1.00265 -0.0274474 0)
(1.02441 -0.00941176 -7.3796e-21)
(-0.0786128 0.0202128 0)
(1.11959 -0.0942964 4.22666e-24)
(1.00112 -0.0195931 2.61232e-21)
(-0.0934628 0.0186626 -2.30841e-20)
(-0.179027 -0.0221281 0)
(1.03619 -0.0460308 0)
(0.540367 -0.546047 7.21257e-20)
(1.02438 -0.0287277 -7.09574e-21)
(1.07821 -0.0855156 4.92233e-21)
(0.990532 -0.0459125 1.0752e-20)
(-0.214644 -0.000658364 -7.64768e-20)
(-0.144982 -0.0149426 -1.28572e-19)
(0.973495 -0.027373 -8.84296e-21)
(1.03705 -0.0675813 0)
(0.0799601 -0.00511567 0)
(1.10555 -0.00168044 2.53866e-20)
(1.21797 -0.159945 1.77355e-20)
(1.08083 -0.00934276 4.67106e-20)
(1.06134 -0.236944 -2.24894e-20)
(0.981737 -0.0326384 -1.92646e-20)
(1.10284 -0.160873 -7.59752e-23)
(0.996724 -0.0427408 1.87912e-21)
(1.33916 -0.0793098 -1.00644e-19)
(-0.170315 -0.0022805 -7.29418e-20)
(1.07318 -0.050685 5.95677e-21)
(1.15075 -0.0656786 1.22878e-20)
(-0.0782317 0.0197753 -8.73384e-20)
(1.08251 -0.07479 1.81961e-20)
(0.222468 0.0562255 -2.75668e-21)