/*--------------------------------*- C++ -*----------------------------------*\
| =========                 |                                                 |
| \\      /  F ield         | OpenFOAM: The Open Source CFD Toolbox           |
|  \\    /   O peration     | Version:  v2012                                 |
|   \\  /    A nd           | Website:  www.openfoam.com                      |
|    \\/     M anipulation  |                                                 |
\*---------------------------------------------------------------------------*/
FoamFile
{
    version     2.0;
    format      ascii;
    class       volVectorField;
    location    "100";
    object      U_0;
}
// * * * * * * * * * * * * * * * * * * * * * * * * * * * * * * * * * * * * * //

dimensions      [0 1 -1 0 0 0 0];


internalField   nonuniform List<vector> 
15335
(
(-0.308083 -0.0101864 0)
(1.20887 0.0869935 -3.60088e-20)
(-0.310181 -0.0126209 1.12853e-19)
(0.940366 -0.186363 -2.47256e-20)
(-0.145846 -0.0253593 1.18628e-19)
(0.986314 -0.0336114 -8.06696e-21)
(1.20357 0.0539092 0)
(1.29964 -0.207137 9.383e-20)
(1.13786 -0.0876409 -1.03518e-20)
(-0.289298 -0.00800197 0)
(-0.298586 -0.0121789 -9.69799e-20)
(1.07851 0.0152223 -3.83568e-20)
(-0.1294 -0.0275545 -7.82556e-20)
(-0.0566169 0.00194791 4.6703e-20)
(0.463512 -0.0123164 0)
(1.26255 -0.233591 1.80454e-19)
(1.01805 0.000125745 1.22342e-20)
(0.120691 -0.0348205 3.63176e-21)
(1.03642 -0.00307616 -2.11658e-20)
(-0.175452 -0.0269592 -6.52713e-20)
(-0.0689936 0.0136094 0)
(-0.0597242 0.0149075 0)
(1.2024 0.0564818 3.20248e-20)
(1.03133 -0.00657971 4.28883e-21)
(1.2865 -0.045057 0)
(1.13838 -0.333507 1.03142e-19)
(-0.209163 -0.0105702 -1.07503e-19)
(1.13085 -0.341173 -7.68453e-20)
(0.0218205 -0.0499967 -6.56341e-20)
(0.953264 -0.0831756 -4.54166e-20)
(-0.2322 -0.0122915 -5.39853e-20)
(0.487388 0.0438278 1.56444e-20)
(0.999879 -0.00122505 2.26247e-21)
(1.01819 -0.0563477 3.11158e-21)
(1.03287 -0.0393775 1.2912e-21)
(1.32606 -0.0869469 3.98271e-20)
(1.32209 -0.0828215 -5.41443e-20)
(1.17134 -0.625301 1.18328e-19)
(-0.151878 0.00103725 2.30511e-20)
(1.15239 -0.430999 0)
(1.17417 0.0982755 9.27867e-21)
(1.3093 -0.092978 -5.45828e-20)
(1.00003 -0.0418853 0)
(1.0985 0.0249445 1.79749e-20)
(-0.272892 -0.00664722 -3.5149e-20)
(1.01768 -0.0022593 0)
(-0.169121 -0.0763548 5.72391e-21)
(0.429939 0.0786701 2.79122e-20)
(-0.0339377 0.00559748 -9.14178e-21)
(1.02399 -0.118185 4.59688e-21)
(1.03044 -0.00643687 0)
(0.367334 0.0149679 4.04264e-20)
(1.31163 -0.237262 -1.01505e-19)
(0.999948 -0.000685846 5.71248e-21)
(1.05073 -0.0315463 -9.0701e-21)
(1.20155 0.0481759 0)
(0.767111 -0.399245 0)
(0.411571 0.016789 6.91093e-23)
(-0.194385 -0.0135776 1.75127e-19)
(-0.300046 -0.0124326 -2.12157e-19)
(-0.0819633 0.0183833 -3.16289e-22)
(0.379019 0.0752022 2.94288e-20)
(0.912756 -0.209611 2.16345e-20)
(0.89688 -0.0652986 2.10691e-20)
(1.04588 -0.015043 0)
(1.07696 0.0138676 -1.67042e-20)
(1.17932 -0.0190966 0)
(0.441926 0.0401495 -3.22895e-20)
(1.04745 -0.00830357 -7.32666e-21)
(1.02952 -0.000862526 1.50528e-20)
(1.1632 -0.0331568 -8.29034e-20)
(1.05029 -0.093808 0)
(1.28629 -0.048267 0)
(-0.0401158 0.0236798 0)
(1.08866 0.019326 -7.91338e-20)
(-0.114766 0.0138765 9.4495e-20)
(1.17337 0.100021 -1.88916e-20)
(1.26392 -0.118439 -2.45738e-20)
(0.520121 -0.110045 -2.44639e-20)
(0.999836 -0.00293195 3.28316e-21)
(-0.125839 -0.0238594 7.44837e-20)
(-0.173788 -0.00862338 0)
(-0.151252 -0.0219205 -1.76357e-20)
(1.28201 -0.0337522 0)
(-0.321495 -0.0146606 0)
(1.01744 -0.00164963 8.83071e-21)
(1.03585 -0.00277152 9.78734e-21)
(1.09686 0.0258447 0)
(0.972257 -0.0948651 -1.85064e-20)
(1.22061 0.0786007 -4.79666e-20)
(-0.1117 -0.0277185 -1.42843e-19)
(1.18457 0.0476588 -5.69822e-21)
(1.07968 0.0104999 -4.2213e-20)
(0.152369 -0.636346 7.57608e-20)
(-0.179682 -0.0151031 0)
(1.09602 -0.0270954 -3.96305e-21)
(1.01665 -0.00296512 0)
(1.09729 -0.158924 -2.73983e-20)
(1.02565 -0.0106217 0)
(0.999878 -0.00213787 0)
(1.0008 -0.040554 1.13492e-21)
(-0.102146 0.0149952 -1.02994e-19)
(1.32496 -0.0411888 -9.80358e-20)
(1.14304 0.0660543 1.44517e-20)
(1.07892 -0.00888003 0)
(1.13382 -0.0889451 0)
(1.04898 -0.0304136 -7.93305e-21)
(0.827157 -0.083326 0)
(0.0949891 -0.236152 0)
(1.01313 -0.253589 -1.01574e-21)
(-0.0398379 0.0152852 5.6557e-20)
(1.2264 0.0133531 -3.77851e-20)
(1.004 -0.0203104 0)
(1.08054 0.0150934 -3.47622e-22)
(1.30359 -0.248715 0)
(0.976125 -0.0945077 1.50896e-20)
(1.16262 -0.0309422 -2.393e-22)
(0.215858 -0.662305 2.19008e-20)
(-0.124802 -0.0273503 1.52785e-19)
(1.33828 -0.101326 6.10979e-20)
(-0.114211 -0.0265801 -7.59798e-20)
(1.12501 0.090329 9.88068e-21)
(-0.03486 0.0241154 0)
(0.832783 0.103689 0)
(0.985587 -0.0243095 1.10278e-20)
(0.996399 -0.0338691 7.24261e-21)
(0.777686 -0.379273 3.76006e-20)
(0.999305 -0.00842029 0)
(1.14083 0.0658154 0)
(1.0471 -0.0403855 0)
(-0.176135 -0.00239612 1.39387e-19)
(-0.260179 -0.0048729 0)
(1.02038 -0.00114398 0)
(0.941974 -0.304033 0)
(1.25815 -0.118131 -6.88696e-20)
(1.01149 -0.00380031 7.34789e-21)
(-0.140793 -0.0222362 0)
(0.132045 -0.0670761 0)
(0.903358 -0.213652 3.20041e-20)
(1.30095 -0.202636 -1.6e-19)
(1.18443 0.0457173 -5.69413e-21)
(1.22225 0.078745 1.29034e-19)
(1.09418 -0.237603 -8.52831e-21)
(1.02731 0.000296317 -1.09933e-20)
(-0.0504903 0.0224106 -5.31354e-20)
(1.03491 -0.528947 -1.32366e-19)
(-0.0522102 0.0207956 2.07255e-20)
(0.0248356 -0.044881 -1.40556e-19)
(1.22169 -0.280414 6.97283e-20)
(-0.144089 -0.0192293 -8.63667e-21)
(1.10315 -0.0390839 -3.66745e-20)
(0.496087 0.0324048 8.43616e-21)
(0.997187 -0.0342879 3.07287e-21)
(1.09374 -0.0277029 0)
(0.0460562 0.0265176 1.82895e-20)
(0.999847 -0.0014824 -1.47751e-20)
(0.197885 0.0515524 -7.2792e-21)
(-0.161078 -0.00121246 0)
(0.100587 0.321116 -1.28642e-19)
(0.667096 -0.0351124 7.69761e-20)
(0.999705 -0.00181303 2.08611e-20)
(0.881351 -0.0932121 2.64924e-20)
(0.789471 0.100002 8.33609e-21)
(1.18448 -0.0544377 0)
(-0.15556 0.00125652 0)
(-0.250729 -0.00701923 1.88666e-20)
(-0.239378 -0.00609599 2.46993e-20)
(1.02912 -0.00673134 1.66619e-20)
(0.192837 0.804657 1.00652e-19)
(-0.167107 -0.0161659 -8.13824e-21)
(1.03159 -0.445092 2.383e-20)
(1.33873 -0.264958 3.15868e-20)
(0.104973 0.0414167 3.12847e-20)
(0.706774 0.0994267 -3.15282e-20)
(1.27169 -0.056273 5.63731e-20)
(0.999803 -0.0026972 -5.56781e-21)
(1.00029 -0.0042344 0)
(0.831461 0.103124 -8.10006e-20)
(0.738716 -0.325667 8.9197e-20)
(1.16419 0.0882041 8.64691e-21)
(1.27651 -0.0562784 -7.67805e-20)
(0.107988 0.699418 -9.20598e-20)
(-0.0614744 0.0222069 0)
(1.15091 -0.0802214 0)
(1.15008 -0.0776015 0)
(-0.202651 -0.00100805 -6.8925e-20)
(1.12573 -0.0467929 2.14626e-22)
(0.943402 -0.17866 2.58416e-20)
(-0.0495733 0.0215259 0)
(-0.161715 -0.00236666 -1.05358e-19)
(-0.328683 -0.0122282 -7.53388e-20)
(1.23295 -0.35492 1.04449e-19)
(1.10446 0.0146152 -1.8661e-20)
(1.28064 -0.0502581 7.6659e-20)
(1.33464 -0.0727601 1.07074e-19)
(-0.00334509 -0.0413859 0)
(1.00295 -0.0188988 3.34991e-22)
(-0.258206 -0.00472128 0)
(0.996314 -0.0409563 3.99605e-21)
(-0.0971834 -0.0313858 -1.43697e-19)
(1.092 -0.162111 -1.09863e-20)
(0.929658 -0.301223 -6.65294e-21)
(1.04107 -0.226045 -1.2892e-20)
(-0.331698 -0.0123429 2.20471e-19)
(-0.314748 -0.0132746 0)
(1.26435 -0.0791615 0)
(1.00024 -0.00354138 0)
(0.674825 -0.0126857 -2.99034e-21)
(0.868232 -0.112219 -1.14032e-21)
(0.995539 -0.144804 -4.84612e-21)
(1.12788 -0.252109 -4.21955e-20)
(1.00277 -0.0402041 0)
(0.0545555 0.0282066 -5.89918e-21)
(0.955626 -0.0801805 2.83762e-20)
(1.03253 -0.534185 0)
(0.659138 -0.0157439 5.00494e-20)
(-0.312544 -0.0119552 1.13465e-19)
(0.451136 0.0354815 0)
(1.1563 0.0753441 0)
(0.313708 -0.11456 2.09529e-21)
(0.986822 -0.0248776 0)
(1.00679 -0.0240391 3.32543e-22)
(1.13198 -0.0528612 -3.18228e-20)
(1.09522 0.0200504 -2.41852e-20)
(1.24383 -0.271721 0)
(1.28147 -0.0385645 0)
(1.03145 -0.0144046 5.08267e-21)
(-0.149278 -0.000807877 -4.01301e-21)
(1.18114 -0.0631194 6.87157e-20)
(0.929652 0.065087 0)
(1.01424 -0.0120955 -5.45092e-21)
(1.02106 -0.00343382 -5.21998e-21)
(-0.0225523 0.00742733 0)
(0.326038 0.015327 7.62774e-20)
(-0.245904 -0.0104899 -1.28037e-19)
(1.12639 -0.219931 4.59702e-21)
(1.28027 -0.0541073 -9.08271e-20)
(1.15682 0.0738773 0)
(1.00046 -0.00558471 1.40428e-22)
(1.30796 -0.0667516 -3.73975e-20)
(0.132714 0.0491965 7.57997e-21)
(1.02233 -0.255538 0)
(-0.0435882 0.0216987 0)
(1.15586 -0.0545205 0)
(-0.318591 -0.0109453 -1.83409e-19)
(1.01859 -0.0128367 0)
(0.997699 -0.0790825 4.94346e-21)
(-0.318799 -0.0131721 0)
(0.414892 0.0768767 -5.71841e-20)
(0.392337 0.0756538 5.87446e-20)
(-0.326408 -0.0124071 0)
(-0.255858 -0.00653156 -1.70012e-22)
(1.02009 -0.00153639 1.079e-20)
(1.03004 -0.00701614 -1.70149e-20)
(1.18121 -0.0556661 2.10411e-21)
(-0.258173 -0.00881924 0)
(1.18765 0.0439839 6.51253e-21)
(-0.164942 -0.00378399 8.52751e-20)
(1.02975 -0.00113314 -1.56549e-20)
(1.26911 -0.0780921 6.47531e-20)
(-0.223871 -0.00478108 1.33664e-19)
(0.999869 -0.00156956 0)
(1.03097 -0.0101918 1.0671e-20)
(0.987519 -0.0329267 0)
(1.04856 -0.0087765 6.25052e-23)
(1.0305 -0.00129223 -1.34174e-20)
(0.600854 -0.020901 2.13652e-20)
(-0.135987 0.00275571 5.98212e-21)
(-0.165847 -0.00126661 -2.983e-20)
(0.976876 -0.0194029 0)
(0.569138 -0.0185592 -8.6072e-20)
(-0.221347 -0.00415571 0)
(-0.147994 -6.07873e-05 3.41172e-21)
(1.01423 -0.0115524 9.70905e-21)
(-0.119319 0.00113593 1.13546e-19)
(0.972481 -0.0856703 9.11057e-21)
(1.00092 -0.0560981 6.90549e-21)
(1.26117 -0.00687696 4.22926e-20)
(0.901928 -0.0644759 -2.05977e-20)
(1.1792 -0.0608664 -6.96128e-20)
(-0.0551741 0.00429348 -2.20521e-20)
(-0.116201 0.0133208 0)
(1.03834 -0.0148697 1.1618e-20)
(1.18769 0.0417913 -2.2979e-20)
(1.10538 0.00405205 4.35216e-20)
(-0.116732 -0.0202524 1.32003e-19)
(0.17385 0.0509189 0)
(1.10668 -0.0149652 0)
(0.95425 -0.0583844 0)
(1.04487 -0.0576756 0)
(-0.252068 -0.00678436 -4.7714e-23)
(1.08156 0.0100753 3.48465e-20)
(0.86913 -0.278224 -4.45691e-20)
(1.27414 0.0084816 0)
(1.09503 -0.0796041 2.30056e-20)
(0.758451 0.597783 -3.82794e-21)
(1.03053 -0.010689 0)
(1.20482 0.0795942 -4.27211e-20)
(1.03214 -0.0404307 0)
(-0.178656 -0.00380078 -1.40341e-19)
(0.984453 -0.0250365 -1.40775e-22)
(0.148808 0.0507294 0)
(1.18589 -0.286443 -3.95413e-20)
(0.910136 0.0809152 3.0601e-21)
(1.00969 -0.00298224 5.19435e-21)
(0.41252 -0.0835198 9.17137e-20)
(-0.242267 -0.00470559 -5.27423e-22)
(1.00031 -0.00502902 0)
(1.09561 0.00795999 7.81737e-20)
(0.925291 -0.0735716 -3.08334e-20)
(-0.160794 -0.00644774 1.16814e-19)
(1.04997 -0.0103901 -5.08336e-21)
(1.2841 -0.0298836 -4.12226e-21)
(0.881253 0.10058 -3.74739e-20)
(1.04279 0.00890916 -4.15937e-20)
(0.993187 -0.0267695 0)
(0.986198 -0.0457602 -2.27058e-20)
(0.0724136 0.00587781 -4.71125e-20)
(1.20397 0.0596342 0)
(0.35736 0.0303357 -1.24864e-19)
(1.22994 -0.365087 -9.86702e-20)
(1.04451 -0.014672 1.75577e-20)
(-0.183498 -0.00448412 0)
(-0.0441896 -0.023827 0)
(1.12886 -0.101005 -4.98118e-21)
(0.041714 0.0265354 0)
(-0.161581 -0.00634739 -1.07556e-19)
(0.968573 0.0617064 0)
(1.10376 -0.00336098 1.80393e-20)
(1.10141 -0.0403183 0)
(0.999868 -0.00263528 7.01233e-21)
(1.19342 -0.280219 -4.2469e-20)
(0.968298 -0.0592159 -4.57956e-21)
(1.20459 0.0905454 7.20599e-21)
(0.956035 -0.319542 0)
(1.327 -0.044493 9.12544e-20)
(1.04675 -0.232466 1.34464e-20)
(-0.106644 0.00404023 -9.89423e-20)
(-0.288978 -0.0128303 0)
(-0.271278 -0.00564907 0)
(1.20454 0.0472631 0)
(1.16504 0.087105 -7.04496e-21)
(1.00391 -0.0166498 0)
(1.16611 0.085591 2.5416e-20)
(1.1034 0.0291361 0)
(0.92279 -0.0703166 0)
(1.01724 -0.0577615 1.44091e-21)
(1.2895 -0.23418 9.62997e-20)
(1.02305 -0.00751707 -6.22486e-21)
(-0.128113 -0.0262682 -1.11047e-20)
(-0.072694 0.0201642 -6.51887e-20)
(-0.174293 -0.00774377 -1.25128e-19)
(1.05267 -0.0958301 0)
(1.08749 -0.452633 0)
(-0.314604 -0.0105588 4.5465e-20)
(1.00695 -0.025168 -1.3517e-21)
(0.851209 -0.0771961 0)
(1.09093 -0.182342 1.94673e-20)
(1.13922 0.0498129 2.4916e-20)
(1.2363 -0.0549607 0)
(1.10537 -0.0163767 2.04102e-20)
(1.18204 0.0182686 0)
(1.1038 0.00493846 -3.66507e-20)
(1.13652 -0.0280909 -1.3719e-19)
(0.87041 -0.104343 -2.6915e-20)
(-0.19195 0.00439353 7.09371e-20)
(0.122931 0.275382 6.229e-20)
(1.17928 0.0190751 -1.8669e-20)
(1.09437 -0.0560592 3.32865e-20)
(1.0123 -0.00287764 0)
(0.947148 0.0815253 0)
(1.02545 -0.121972 -7.19978e-21)
(1.11056 -0.167578 2.16246e-20)
(0.504941 0.0287459 7.55713e-20)
(0.99253 -0.0280809 0)
(1.31089 -0.0396588 0)
(0.535754 0.00720374 0)
(1.09683 0.018957 -1.26755e-20)
(0.616401 -0.632985 5.98698e-20)
(0.0494709 0.0283656 1.1942e-20)
(1.00429 -0.0168829 0)
(1.09224 -0.0804134 0)
(-0.193199 -0.0178623 -7.57148e-20)
(1.1437 -0.0133903 0)
(1.12866 -0.0480877 -2.35884e-22)
(1.01513 -0.011711 -5.06754e-21)
(1.22894 0.0118196 0)
(0.718815 0.112884 3.11796e-20)
(1.16608 0.105541 4.32891e-20)
(-0.272142 -0.00610763 0)
(0.994009 -0.0291781 0)
(0.969869 -0.0872943 5.05993e-21)
(1.01522 -0.0111505 0)
(1.16526 0.104815 0)
(1.08421 0.014522 0)
(1.2202 -0.308516 -3.01876e-22)
(1.28753 -0.227832 -8.52721e-20)
(1.10428 0.0257761 -4.07361e-20)
(0.814991 -0.245418 2.81942e-20)
(0.180334 0.0541779 -1.34101e-20)
(1.23355 -0.05929 -6.56151e-20)
(1.23632 -0.0622293 9.02094e-20)
(-0.0942475 -0.0310579 1.44481e-19)
(1.10131 -0.00296261 -1.63156e-20)
(1.0718 -0.0486885 -5.41378e-21)
(1.23425 -0.0517612 0)
(1.07215 -0.137064 2.01908e-19)
(0.364688 -0.273998 1.38723e-19)
(0.765564 -0.596306 0)
(1.27182 0.00608321 -7.79877e-20)
(1.28068 -0.0263311 6.48652e-20)
(0.878804 -0.102083 6.19478e-21)
(1.03291 0.0192538 0)
(-0.031876 0.0162862 1.66979e-20)
(1.17007 0.101255 2.47648e-21)
(0.0985731 0.00950145 0)
(-0.0658497 -0.0218689 0)
(1.08959 -0.0542964 0)
(0.508144 0.459576 0)
(1.08833 -0.24235 0)
(0.907061 -0.118691 3.6876e-20)
(-0.314111 -0.012162 -4.85831e-20)
(0.799794 0.102043 6.48873e-20)
(1.01731 -0.00288951 5.774e-21)
(1.21856 0.0756603 0)
(0.960166 0.0724901 4.85962e-20)
(1.16241 0.0872596 -5.63078e-20)
(0.080423 -0.00302428 -1.71224e-19)
(1.11055 -0.0211777 0)
(-0.236747 -0.00957467 7.92745e-21)
(0.157401 0.0362411 1.87417e-20)
(1.3094 -0.0781389 0)
(-0.324963 -0.0111243 8.19614e-20)
(0.146008 0.0295623 0)
(-0.0179299 0.00693363 3.61372e-20)
(1.21763 -0.289491 1.02492e-21)
(0.134391 0.0495408 -2.76769e-20)
(-0.317983 -0.0126213 -5.12664e-20)
(1.03001 -0.0017255 1.81933e-20)
(1.04553 -0.0389126 0)
(1.29341 -0.0266431 -5.38654e-20)
(-0.160929 -0.00470045 6.19367e-20)
(1.03665 -0.0355777 -1.23428e-20)
(1.20264 0.0898221 2.43788e-20)
(1.14746 0.0388523 2.98871e-20)
(0.735512 -0.174425 0)
(-0.124783 -0.0321547 9.75325e-21)
(1.16164 0.0886143 5.27574e-20)
(1.15963 0.0734346 -8.76961e-20)
(1.13696 -0.154213 4.30923e-21)
(-0.326021 -0.0121218 2.50023e-20)
(1.19249 -0.0402727 1.31476e-19)
(1.13346 -0.221942 0)
(1.02726 -0.115518 3.5481e-21)
(0.166097 0.0407741 -8.82923e-21)
(0.12747 0.0382883 9.53625e-21)
(0.999988 -0.0453519 -8.34768e-22)
(-0.0768883 0.013967 0)
(-0.034236 0.0231826 4.08169e-20)
(1.16037 0.0717576 7.60609e-20)
(0.152769 0.0505778 -6.70094e-21)
(1.2748 -0.324596 0)
(1.13701 -0.429342 -6.13432e-20)
(0.198895 0.0563519 2.30616e-20)
(1.13903 0.0485166 -5.42037e-20)
(1.12635 -0.0975185 4.68789e-21)
(1.11677 -0.061171 -2.61078e-20)
(0.994999 -0.0406208 -4.21483e-21)
(0.979358 -0.336425 0)
(0.819316 0.0990756 3.84442e-20)
(1.17099 0.0999994 1.76935e-20)
(1.20543 0.0847388 3.06786e-20)
(1.12683 -0.018042 0)
(0.994347 -0.030587 1.07595e-21)
(1.0002 -0.00348168 -6.97103e-22)
(1.05035 -0.010973 0)
(0.110351 -0.127145 1.4691e-19)
(0.480838 0.0118884 -2.79034e-20)
(-0.16159 -0.00395745 0)
(0.0753296 -0.121003 -1.55103e-19)
(1.23574 -0.271567 6.69362e-20)
(0.238361 -0.0395748 5.59483e-20)
(1.12272 0.0126538 1.36452e-20)
(-0.144132 -0.0219797 0)
(0.957105 -0.057338 0)
(1.04113 -0.0149976 0)
(0.999855 -0.00226467 8.26602e-21)
(1.06611 0.0982702 -1.80473e-20)
(1.03523 -0.0327628 0)
(-0.0661978 0.0217488 7.34915e-20)
(1.02965 -0.00256014 0)
(0.941812 -0.0188283 4.01833e-20)
(1.03159 -0.0161321 -1.3084e-20)
(0.961703 0.0724146 0)
(1.24541 -0.465898 1.38513e-19)
(0.999918 -0.00211501 5.0395e-22)
(1.10551 0.0247756 0)
(1.20113 0.050977 5.6779e-20)
(0.906777 -0.124631 0)
(0.885411 -0.0162465 -7.96453e-20)
(0.105398 -0.00254659 5.11209e-20)
(1.10481 0.000587167 7.05443e-21)
(1.2066 0.0817888 -4.90982e-20)
(1.07503 0.0141714 3.77192e-20)
(-0.314967 -0.0119672 -6.13022e-20)
(1.07355 -0.0539097 3.43371e-21)
(1.02484 -0.0309437 0)
(-0.326206 -0.0125262 -6.81555e-21)
(1.06132 -0.0641136 -1.05477e-20)
(0.930298 -0.214789 -1.97716e-20)
(0.997144 -0.118129 -1.98157e-19)
(1.0129 -0.00285872 0)
(0.999787 -0.00194195 0)
(-0.311154 -0.0120753 -8.90439e-20)
(1.32529 -0.0969116 3.1881e-21)
(1.31814 -0.0190408 7.57184e-20)
(1.0911 -0.0305313 -1.57648e-20)
(1.14095 -0.0889202 1.6997e-20)
(1.06363 -0.020553 -2.42751e-20)
(0.680226 -0.311873 -1.60114e-19)
(0.946557 0.049745 -1.32983e-19)
(1.0001 -0.000717578 3.41072e-21)
(-0.175315 -0.00422945 3.30182e-20)
(0.99135 0.0532537 0)
(-0.0527492 0.0237403 2.303e-21)
(-0.115702 0.0134778 0)
(0.973955 -0.0260316 1.31474e-20)
(1.00654 0.097089 -5.85726e-20)
(0.4072 0.0741345 0)
(-0.141924 -0.0210802 4.32122e-21)
(-0.308608 -0.0123578 -2.33236e-20)
(1.12352 0.0140869 0)
(0.46126 0.0831039 4.19637e-20)
(0.81874 -0.259626 -7.01643e-20)
(1.24106 0.0598668 -5.66935e-20)
(1.20649 0.0885882 8.24696e-20)
(-0.0925939 0.0131962 3.74289e-20)
(-0.310627 -0.0113111 7.3207e-20)
(-0.104915 0.0117136 0)
(-0.0709835 0.0215576 0)
(-0.0899542 0.0167389 -4.24695e-20)
(0.952654 -0.313169 0)
(1.07209 -0.052585 -2.52937e-21)
(1.11123 -0.0136258 0)
(1.12263 -0.154572 2.61196e-20)
(1.00413 -0.00162705 4.83996e-21)
(1.13361 -0.408586 -8.85753e-20)
(1.20841 -0.190022 -7.90698e-20)
(-0.257461 -0.0100747 -3.63306e-20)
(1.23214 0.00681742 1.16041e-20)
(1.20336 0.0181519 1.59184e-20)
(1.29331 -0.336054 1.02475e-19)
(0.389829 0.0760883 0)
(0.235456 0.0574596 0)
(0.0866517 0.0301566 7.01989e-20)
(1.27883 -0.0187583 -1.49491e-19)
(1.01212 -0.518869 0)
(1.00013 -0.00248099 1.39717e-21)
(1.10802 -0.0392227 6.38935e-22)
(1.03048 -0.00159461 -1.01148e-21)
(1.01913 -0.180036 0)
(0.41155 0.0781428 -4.51998e-22)
(1.06112 -0.023092 5.80804e-21)
(1.1236 0.00890963 0)
(1.22351 -0.162199 -1.98445e-20)
(0.259362 -0.013289 6.28832e-22)
(1.14673 -0.0675327 6.14466e-20)
(-0.14703 -0.0210941 0)
(1.2679 -0.217658 6.98724e-20)
(-0.131489 0.00250067 1.20244e-20)
(1.03438 -0.0394652 -1.4851e-21)
(0.968504 -0.0562254 9.53306e-21)
(0.999837 -0.00166754 -2.84189e-21)
(0.937753 -0.170979 1.08851e-20)
(-0.0716323 -0.0350298 1.77178e-19)
(1.1251 -0.159848 0)
(0.34635 -0.119033 2.48891e-21)
(1.02388 -0.0295962 0)
(1.16016 -0.0426759 0)
(-0.0951005 -0.0229651 -1.74935e-20)
(1.03704 -0.0148026 0)
(1.03085 -0.250237 0)
(0.116641 0.0338727 5.79227e-20)
(0.148908 -0.0353944 -5.80625e-20)
(-0.313313 -0.012017 0)
(0.987894 -0.0236325 1.29586e-20)
(1.09004 -0.0770133 -3.40458e-22)
(0.926799 -0.0359249 -2.25415e-20)
(0.415058 -0.0122567 0)
(1.2006 -0.17639 -7.74086e-20)
(1.06123 -0.164954 -1.87845e-20)
(1.02912 -0.000912024 1.36573e-20)
(1.01094 -0.0032633 -6.67727e-21)
(0.999738 -0.00314186 -8.99908e-21)
(0.817279 0.104807 5.42235e-20)
(1.17973 0.0841372 3.05218e-20)
(0.0927748 0.13052 7.60166e-20)
(-0.0902825 0.014227 4.5758e-20)
(1.07592 -0.0612082 -2.29097e-20)
(1.30241 -0.151943 0)
(1.10481 0.0163109 1.80533e-20)
(1.08721 -0.0549835 1.67954e-20)
(0.568286 0.0624397 1.92253e-19)
(1.01459 -0.0450582 0)
(1.12624 -0.0260043 2.84226e-20)
(-0.0925118 0.0166753 2.19117e-20)
(1.03089 -0.0166963 1.88078e-20)
(-0.24924 -0.00460707 0)
(0.985704 0.0450413 1.07054e-19)
(0.920256 -0.217235 -4.70556e-20)
(1.32055 -0.0208231 -2.46063e-20)
(0.455194 0.0301052 9.66371e-21)
(0.436385 0.0778258 0)
(1.14715 -0.101108 -1.22032e-20)
(0.520724 0.0876913 -4.05087e-21)
(1.13794 -0.326965 -3.7565e-20)
(1.05103 -0.112362 0)
(0.999053 -0.00887031 0)
(1.11468 -0.163427 2.88842e-21)
(1.15158 0.0766581 0)
(0.567723 0.0641171 -6.15193e-20)
(1.16727 -0.0346069 0)
(1.00018 -0.000221074 0)
(0.400239 -0.312283 -1.85562e-19)
(1.00286 -0.0180183 -4.61419e-22)
(1.10602 0.00178325 -2.59579e-21)
(-0.113412 -0.0219002 -7.22165e-20)
(1.22886 0.00795623 0)
(1.22382 -0.167578 -8.93453e-23)
(-0.00543922 -0.0462159 0)
(1.13144 -0.0088864 3.06328e-20)
(1.00465 -0.0130043 1.77318e-22)
(1.05051 -0.00417779 1.68629e-20)
(0.987141 -0.167225 0)
(1.0002 -0.000999009 -3.58575e-21)
(0.103051 0.0270985 0)
(1.06356 -0.0654365 4.43976e-21)
(1.20073 0.0196252 0)
(-0.248724 -0.0125471 7.86461e-20)
(1.02488 -0.00298098 0)
(1.08528 -0.0742687 0)
(-0.258704 -0.0123843 0)
(0.975028 -0.166889 -5.8658e-21)
(0.659065 -0.305395 4.58573e-20)
(0.343732 0.0256604 1.66178e-19)
(1.04707 -0.0576596 1.10889e-20)
(1.28224 -0.0229227 -7.28586e-20)
(1.0005 -0.00695765 0)
(0.193346 0.0567745 -2.92727e-20)
(1.21165 -0.369866 0)
(0.940181 0.0496403 1.6832e-21)
(1.21046 -0.309286 0)
(-0.121918 -0.026761 -4.01678e-20)
(-0.173731 -0.00698313 1.29155e-19)
(0.857434 -0.285159 0)
(1.22326 -0.0808875 -6.87539e-20)
(1.03441 -0.0027692 0)
(1.15392 0.0770789 4.78764e-21)
(0.689001 -0.342795 -1.2264e-19)
(-0.0898405 -0.0418963 -1.22772e-19)
(0.941945 -0.0167484 -2.65456e-20)
(0.25332 -0.0458898 1.52993e-19)
(1.00357 -0.0200713 -3.53286e-22)
(1.0323 -0.129656 -7.81736e-20)
(1.11353 -0.0624659 2.6441e-20)
(1.31961 -0.0912273 -8.4989e-20)
(1.03265 -0.0147353 0)
(1.05979 -0.0241591 -1.99092e-20)
(1.18877 -0.325397 -5.91621e-20)
(1.26019 -0.214011 0)
(0.977562 -0.0178932 0)
(1.11693 0.0294652 5.13365e-20)
(1.05797 -0.0235214 -5.95362e-21)
(1.22166 -0.371094 3.02057e-20)
(-0.163907 -0.0186414 0)
(1.05622 -0.166519 1.78562e-20)
(-0.305421 -0.013271 7.52286e-20)
(-0.166145 -0.027598 0)
(-0.084133 0.0187558 -7.68055e-21)
(1.00048 -0.00678358 -4.20355e-23)
(0.269156 0.0566163 0)
(1.00034 -0.0798406 -3.88173e-21)
(1.02173 -0.00384658 -4.4373e-21)
(1.27377 -0.114603 0)
(0.991197 -0.148763 0)
(0.95778 -0.097602 -3.35696e-20)
(-0.12141 -0.0195166 0)
(1.12312 -0.0252903 -8.76807e-23)
(0.991721 -0.170885 4.23591e-21)
(0.8635 -0.0835918 3.53701e-20)
(0.996378 -0.0465446 7.71723e-21)
(1.02547 -0.00299219 -7.95694e-21)
(0.17196 0.0531207 3.7475e-20)
(1.04224 -0.111651 -1.15253e-19)
(1.02656 -0.010973 4.2555e-21)
(1.02373 -0.00721486 6.50959e-21)
(1.25626 -0.0076749 -1.28773e-19)
(1.02392 -0.0158935 1.05951e-20)
(-0.144675 0.000773556 0)
(1.03351 -0.243376 -1.96056e-20)
(-0.10318 -0.0302426 -3.8343e-20)
(0.514362 0.0232507 0)
(1.03654 -0.0340206 0)
(1.11973 -0.17913 -1.61343e-20)
(0.235682 0.056712 5.08443e-21)
(1.1793 0.0242014 0)
(0.9999 -0.0019065 -8.0701e-21)
(0.898489 -0.295023 -5.4148e-20)
(1.16307 -0.0412329 2.14175e-21)
(1.00211 -0.0413933 0)
(0.872446 -0.350479 1.71427e-21)
(-0.121519 -0.0173716 0)
(1.15685 -0.0579912 0)
(-0.055968 -0.0297831 0)
(1.31558 -0.0267449 0)
(1.15357 -0.0602803 4.8825e-20)
(1.00102 -0.0139367 -4.13795e-22)
(0.585892 0.0729255 0)
(1.00129 -0.0144406 4.98034e-22)
(1.08744 -0.0773245 -4.61494e-22)
(1.16988 0.083842 0)
(1.0005 -0.000356755 0)
(1.06306 -0.0237078 -1.43857e-20)
(1.27656 -0.120093 4.78877e-20)
(1.3498 -0.339364 0)
(-0.244926 -0.0116249 1.50224e-19)
(-0.106274 0.011423 -1.11772e-19)
(0.841518 0.105469 0)
(1.00035 -0.00776905 0)
(-0.12798 0.0123692 -3.53754e-21)
(-0.228303 -0.00524841 -6.984e-20)
(1.1616 -9.30347e-05 2.97985e-20)
(-0.170505 -0.0156863 1.83371e-20)
(1.3021 0.0224759 4.61029e-20)
(1.19882 0.0915948 0)
(1.20026 0.0919873 -3.52765e-21)
(1.17836 0.0225089 3.72925e-20)
(-0.153334 -0.0111892 0)
(0.809913 -0.0614686 1.27563e-19)
(-0.186411 0.00444892 0)
(0.90874 -0.299501 3.87942e-20)
(1.13338 -0.100716 0)
(0.895226 -0.41141 -7.2787e-21)
(1.1941 -0.317063 6.5177e-20)
(0.925299 -0.726617 4.66653e-20)
(1.06976 0.00458034 -2.48782e-22)
(1.13243 -0.259631 0)
(0.127131 0.0443428 0)
(0.880857 0.000580707 1.00775e-19)
(1.12293 -0.0487887 -1.77727e-21)
(0.0791279 0.0283273 -5.32692e-20)
(-0.203568 -0.0136502 -1.42266e-19)
(-0.00843407 0.00723262 3.47091e-20)
(0.987721 -0.0465922 7.22153e-21)
(1.3494 -0.28159 0)
(-0.174719 -0.00314841 0)
(0.222316 0.0565589 -3.97177e-20)
(-0.315341 -0.0107727 1.88652e-19)
(1.05704 -0.0352787 -1.28031e-20)
(1.10513 0.0276508 3.69276e-20)
(1.30245 -0.148179 1.0503e-19)
(-0.0295399 0.00499037 0)
(-0.0125834 0.00722977 0)
(1.14286 -0.0256081 -1.28235e-21)
(-0.168451 -0.0102 -1.79513e-20)
(1.01452 -0.0015704 -8.54764e-21)
(0.794245 -0.61505 0)
(1.11884 0.0264264 0)
(1.04853 -0.109914 9.62336e-21)
(0.156429 -0.0412821 -7.40405e-20)
(1.03088 -0.0149929 -4.99238e-21)
(-0.123316 0.00249572 0)
(1.13369 -0.0153031 -1.85266e-20)
(0.965525 -0.334431 0)
(0.917945 -0.103155 4.06593e-21)
(0.876171 -0.0883175 -1.02044e-21)
(-0.248147 -0.0140577 1.35594e-19)
(0.999078 -0.00811859 0)
(1.03543 -0.0359128 0)
(-0.179507 -0.0132998 -7.57852e-20)
(-0.282249 -0.00761004 8.12928e-20)
(1.12447 0.010596 -1.69284e-20)
(1.01787 -0.0119468 0)
(0.994526 -0.138945 -1.0012e-21)
(-0.247665 -0.00499192 -8.50988e-20)
(1.19079 0.037667 -2.56642e-20)
(-0.204428 3.33276e-05 -4.08892e-20)
(0.507592 0.0213703 0)
(1.13234 -0.0559302 5.72327e-20)
(0.999639 -0.00342479 -1.50344e-22)
(-0.0546768 -0.0348987 0)
(0.881766 -0.423865 -4.37242e-21)
(-0.0942678 0.0115941 9.12414e-20)
(1.12854 -0.00922087 -5.81349e-23)
(0.854742 -0.084057 0)
(1.17924 0.0506875 -2.34454e-20)
(1.00071 -0.0438699 -2.80523e-21)
(1.02886 -0.00055117 1.23391e-20)
(1.14084 -0.0269415 -1.79155e-20)
(1.22107 0.0561372 0)
(0.635629 -0.302516 6.32761e-20)
(1.17331 0.0817999 -3.94633e-20)
(1.0214 -0.00151738 -1.35912e-21)
(-0.322065 -0.0119142 1.11229e-19)
(0.839861 0.105536 0)
(0.976383 -0.0284109 -6.21494e-21)
(1.01404 -0.0434368 0)
(0.900256 -0.10688 -5.60366e-21)
(1.00397 -0.0193627 -2.40923e-22)
(1.06801 0.0224898 5.91337e-22)
(1.29867 0.0194038 0)
(1.00244 -0.0283435 -8.04406e-22)
(1.00235 -0.0384218 -6.56268e-21)
(0.999449 -0.00743356 7.29197e-21)
(1.02895 -0.052723 3.30075e-22)
(1.00131 -0.0206506 3.43127e-22)
(1.02936 -0.00275989 0)
(0.556718 0.00510957 7.1489e-20)
(1.14341 -0.170001 0)
(1.01601 -0.185298 1.36984e-21)
(-0.20707 -0.0122325 1.29832e-19)
(0.998817 -0.00858514 0)
(1.07949 0.0120759 -7.71754e-21)
(1.08983 -0.0370274 1.50738e-20)
(0.290361 -0.0696303 -3.61015e-21)
(0.140565 -0.250785 0)
(-0.059556 0.0144453 -1.22876e-20)
(1.08302 -0.121464 0)
(0.999614 -0.00715005 -7.18535e-21)
(-0.171836 -0.0168875 -8.02833e-20)
(1.01762 -0.0541659 -3.95897e-21)
(0.0609968 0.0291615 7.58915e-22)
(1.11094 -0.060299 -2.46752e-20)
(1.20386 -0.172416 -4.35145e-21)
(1.31815 -0.103459 -6.13189e-20)
(-0.208426 0.00212909 -5.45416e-20)
(0.992764 -0.0413474 0)
(1.04105 0.00302934 -7.68216e-23)
(1.03739 0.0145064 -4.88138e-20)
(0.253226 0.0610959 -3.81503e-20)
(1.12727 -0.0212857 0)
(1.01937 -0.168339 0)
(1.03497 -0.0030526 2.29582e-20)
(1.28013 -0.0156621 1.42583e-19)
(1.11729 0.0309128 -4.35914e-20)
(1.12937 -0.0201107 1.1397e-21)
(0.977897 -0.090096 -1.64857e-20)
(1.02952 -0.00212657 -9.15448e-21)
(-0.215686 0.000805177 1.01601e-19)
(1.08756 -0.134198 -2.45993e-20)
(1.02343 -0.00637543 0)
(0.347087 0.694129 9.80407e-20)
(-0.182667 -0.014436 1.15096e-19)
(-0.212824 -0.00800403 1.42312e-19)
(-0.326066 -0.0110481 -2.75968e-19)
(1.14847 0.0784905 0)
(1.02696 -0.00339381 1.81833e-20)
(-0.235431 -0.00872727 0)
(1.26272 -0.00427056 -5.70767e-20)
(1.3284 -0.345258 4.27029e-20)
(1.12201 -0.0976781 -4.33167e-24)
(0.868077 -0.089725 6.46019e-20)
(1.18218 0.0503997 5.9471e-21)
(1.01668 -0.162318 -8.31769e-22)
(-0.165785 -0.0165151 6.55951e-20)
(1.32924 -0.0532033 1.04835e-19)
(1.01025 -0.00352795 1.83145e-21)
(1.20821 -0.027492 6.59139e-21)
(1.17642 0.0541069 -4.34226e-20)
(1.00407 -0.0505336 6.11444e-22)
(0.0422873 -0.101112 5.03309e-22)
(1.08141 -0.00295131 -1.5407e-20)
(0.961089 -0.0876151 1.41109e-20)
(0.097742 0.0083766 -4.66592e-20)
(0.436555 0.0755271 0)
(0.997906 -0.0466893 0)
(0.0444329 0.0279938 0)
(-0.0899076 -0.0295799 0)
(1.00421 -0.0159086 3.07444e-22)
(1.00003 -0.0726822 0)
(1.22722 0.0596149 0)
(0.437757 0.617678 -4.623e-20)
(0.665692 -0.336662 4.95301e-20)
(1.02555 -0.00994068 7.23404e-21)
(1.18415 -0.041318 0)
(1.16539 -0.0511272 0)
(0.417037 0.0783032 6.90924e-20)
(-0.108423 0.0140705 0)
(-0.111435 -0.0215631 6.0943e-21)
(0.721301 -0.170144 -7.97603e-20)
(1.05543 -0.0357953 0)
(-0.156227 -0.0210856 0)
(1.09347 -0.0302544 3.22756e-20)
(0.757043 -0.00630312 -9.24716e-20)
(1.06784 -0.0649615 -1.438e-21)
(0.392302 0.0747083 -5.56978e-20)
(0.503035 0.512608 5.91201e-20)
(1.06567 -0.0639832 -4.8889e-21)
(1.00559 -0.00102449 5.28027e-21)
(1.1319 -0.013431 3.55718e-20)
(0.257489 -0.04397 -7.37374e-20)
(0.357077 -0.153106 0)
(0.998653 -0.0447748 -3.72252e-21)
(0.984303 -0.0262891 5.29757e-21)
(-0.128034 -0.0125653 6.45188e-20)
(1.02298 -0.0314377 8.63807e-22)
(0.381732 0.183832 0)
(1.03097 -0.558922 0)
(1.02424 -0.00872302 1.3628e-20)
(1.02136 -0.0342628 -2.06826e-22)
(0.171587 0.0486607 0)
(1.12005 -0.0473252 -2.51582e-20)
(0.144082 0.022434 0)
(0.517032 -0.678852 1.78925e-19)
(1.00223 -0.058162 -3.40293e-21)
(1.0759 -0.0863914 2.65878e-20)
(1.15931 0.0900349 0)
(1.09475 -0.0534939 -3.36608e-20)
(1.20535 -0.00902278 -8.85703e-22)
(1.15714 0.089509 0)
(0.825089 -0.10153 -1.33346e-20)
(1.00265 -0.0274478 0)
(1.02441 -0.00941173 -7.37936e-21)
(-0.078617 0.0202129 0)
(1.11959 -0.0942971 4.22687e-24)
(1.00112 -0.0195934 2.61341e-21)
(-0.0934672 0.0186624 -2.30848e-20)
(-0.179027 -0.0221281 0)
(1.03619 -0.0460312 0)
(0.540367 -0.546051 7.21374e-20)
(1.02438 -0.028728 -7.09538e-21)
(1.07821 -0.0855163 4.92253e-21)
(0.990532 -0.0459135 1.07537e-20)
(-0.214649 -0.00065854 -7.64796e-20)
(-0.144984 -0.0149429 -1.28578e-19)
(0.973496 -0.0273741 -8.84418e-21)
(1.03705 -0.0675821 0)
(0.0799559 -0.00511596 0)
(1.10555 -0.00167944 2.53871e-20)
(1.21797 -0.159947 1.77365e-20)
(1.08083 -0.00934208 4.67113e-20)
(1.06134 -0.236946 -2.2492e-20)
(0.981738 -0.0326394 -1.92675e-20)
(1.10285 -0.160875 -7.59431e-23)
(0.996724 -0.0427416 1.8795e-21)
(1.33917 -0.0793113 -1.00648e-19)
(-0.170317 -0.00228097 -7.29444e-20)
(1.07318 -0.0506852 5.95691e-21)
(1.15075 -0.0656789 1.22884e-20)
(-0.0782357 0.0197755 -8.73413e-20)
(1.08251 -0.0747905 1.81968e-20)
(0.222468 0.0562262 -2.75673e-21)