/*--------------------------------*- C++ -*----------------------------------*\
| =========                 |                                                 |
| \\      /  F ield         | OpenFOAM: The Open Source CFD Toolbox           |
|  \\    /   O peration     | Version:  v2012                                 |
|   \\  /    A nd           | Website:  www.openfoam.com                      |
|    \\/     M anipulation  |                                                 |
\*---------------------------------------------------------------------------*/
FoamFile
{
    version     2.0;
    format      ascii;
    class       volScalarField;
    location    "300";
    object      ddt0(k);
}
// * * * * * * * * * * * * * * * * * * * * * * * * * * * * * * * * * * * * * //

dimensions      [0 2 -3 0 0 0 0];


internalField   nonuniform List<scalar> 
14804
(
6.48908e-05
-7.11323e-12
4.20008e-08
3.68365e-10
-3.01894e-10
-2.39265e-08
-2.44457e-11
1.0598e-10
2.37217e-07
-2.80853e-14
-0.00018846
1.76301e-07
-1.6675e-10
-4.73766e-10
3.6071e-06
3.09941e-05
-3.18303e-10
2.92301e-10
-1.62535e-06
7.13786e-10
-4.85357e-11
1.15336e-10
1.02353e-07
-1.96506e-11
1.81324e-05
-1.59354e-11
1.00936e-09
-7.80442e-10
0.000107909
-3.85081e-11
-2.64544e-11
9.36381e-08
3.31266e-10
-2.21846e-09
-1.45643e-07
-2.54766e-11
3.52743e-05
2.17259e-12
-0.00190092
-3.60299e-09
1.80199e-08
-1.5277e-07
2.20328e-06
5.2279e-12
-3.75716e-10
-9.54085e-11
-6.76652e-05
-5.51884e-11
1.07221e-10
2.42162e-05
-7.1387e-11
-5.49176e-12
1.30078e-11
3.44701e-10
-5.16655e-05
9.15281e-05
1.54824e-06
0.000110168
3.01632e-10
-1.07238e-10
3.4182e-06
-4.30796e-11
1.78867e-11
0.000121975
1.0585e-11
1.30057e-11
-7.34975e-11
1.76299e-11
-2.79356e-13
-2.21028e-06
-6.19236e-11
1.12566e-09
-7.69202e-05
4.10625e-05
-8.80475e-11
5.53342e-06
-1.54422e-05
-7.33876e-12
-5.04589e-07
-3.9194e-12
2.29558e-05
-2.07303e-12
-9.56725e-12
-7.90781e-11
7.18224e-13
1.13421e-06
9.87379e-13
1.3456e-10
-4.2134e-12
-6.85466e-10
2.50609e-10
5.6782e-11
-1.05843e-07
-4.97432e-11
4.92555e-05
-2.01911e-05
9.27774e-05
2.79974e-07
7.85044e-11
-1.68667e-05
9.70366e-05
7.24079e-05
-4.68952e-13
-8.80179e-10
-9.25016e-07
4.03986e-05
1.84804e-07
2.7729e-06
-4.6601e-11
-3.26342e-11
1.61859e-11
2.17445e-05
-8.20236e-08
-6.4256e-06
1.78717e-05
1.65398e-05
1.53076e-05
1.33683e-09
-6.97573e-14
2.52875e-10
-1.58196e-05
-4.85925e-12
1.18519e-11
-4.28449e-10
-1.31932e-10
2.8148e-12
-6.22042e-06
-5.89648e-10
3.2816e-07
1.87578e-10
1.56814e-10
-1.30779e-06
-5.34643e-05
-7.88817e-05
-6.1417e-05
-1.57718e-09
-8.12214e-13
-0.0105836
-2.41215e-12
-1.48324e-09
-6.24214e-12
3.86575e-05
-6.1019e-12
1.32103e-06
2.76486e-06
-3.82917e-13
-6.01842e-07
-3.42731e-11
3.58799e-05
-1.60831e-06
2.29615e-07
-2.49169e-06
-2.93523e-09
-5.6666e-10
-7.72188e-12
7.48467e-05
2.05701e-09
-0.000144498
-1.8951e-05
-4.71993e-05
-6.06397e-13
8.91933e-13
-6.24155e-05
2.94939e-06
1.2479e-10
5.93583e-05
-7.66906e-11
3.65104e-06
-2.96042e-11
5.48957e-11
-7.93646e-05
1.02866e-10
8.12397e-08
2.08274e-06
0.000233006
-6.45294e-05
1.61626e-07
5.00464e-09
1.06112e-12
3.4664e-05
9.98803e-09
-6.01977e-05
-5.37054e-12
2.28485e-08
3.3099e-11
-3.34798e-05
4.92447e-08
-1.66765e-07
7.26635e-11
-1.36426e-11
2.8059e-06
0.00044908
8.73624e-11
-0.0103394
2.51283e-05
-4.76511e-12
9.51312e-05
-9.63517e-11
-1.18873e-08
9.40026e-06
2.00532e-05
-1.36016e-11
2.9632e-11
2.3236e-10
-3.98333e-10
-1.89438e-05
2.07534e-09
6.81479e-05
1.65981e-09
-1.65597e-11
-3.29576e-11
3.20311e-06
7.72767e-12
-4.89822e-13
1.33344e-10
-1.00579e-11
-4.1849e-10
-4.23478e-11
-5.82659e-11
8.75721e-12
-6.15899e-09
3.67939e-08
-2.61398e-08
8.85415e-11
-4.24649e-11
0.00071308
-1.34183e-09
2.33312e-05
-7.20475e-05
1.23704e-10
-4.1038e-11
1.22518e-11
-6.34689e-11
1.38336e-06
2.96081e-05
1.13142e-12
-9.05843e-11
-5.07662e-07
-1.63424e-06
-1.91419e-11
2.27771e-05
-2.37246e-06
8.16604e-11
3.07951e-12
-2.0576e-11
3.0701e-06
1.3831e-10
1.05517e-10
-9.02767e-10
-2.60447e-11
-0.000360558
-2.06428e-12
-6.6191e-14
-5.02237e-12
7.17324e-06
-1.19139e-10
-1.02184e-11
5.89449e-11
-5.53673e-11
-4.716e-12
-1.32913e-05
7.25168e-11
2.92228e-07
5.65237e-11
0.00137787
-4.54782e-11
2.06783e-09
-1.85403e-11
-1.05631e-05
4.60666e-06
-4.15903e-05
7.65004e-05
2.03475e-13
6.69905e-10
9.10962e-05
4.35031e-06
1.79753e-10
-1.51008e-06
-1.40601e-06
3.14033e-05
-8.37124e-07
4.31555e-13
6.18937e-06
2.87147e-06
-1.87109e-05
-0.00301995
-1.7478e-06
1.63484e-10
-1.12134e-08
-2.15325e-05
-3.79252e-11
-4.53177e-11
1.11885e-10
-3.36244e-11
-2.56931e-08
0.000883782
-8.4466e-07
-4.54691e-08
-4.32964e-11
-1.35717e-09
2.13641e-13
7.06634e-13
-6.88548e-08
-8.12031e-10
-8.7472e-07
-6.59778e-12
0.00108035
6.72193e-05
2.01065e-07
1.06503e-05
7.88611e-06
-3.87634e-11
-1.41335e-11
-1.93375e-11
-3.05312e-06
1.14768e-10
-5.30265e-05
1.39539e-05
-1.33928e-12
-0.000791856
-2.24977e-06
1.48067e-05
1.78426e-05
-6.08621e-06
-1.56252e-10
-3.35717e-10
1.60278e-05
5.9938e-10
-0.000100839
-1.84432e-05
-8.81587e-10
2.89815e-10
-2.7905e-07
-1.53101e-12
-1.47655e-11
-2.58815e-11
8.58574e-13
2.5565e-06
4.16695e-12
4.38838e-07
7.87745e-11
8.80053e-11
1.37163e-10
-2.35685e-10
-4.45215e-11
7.99138e-05
-1.39645e-05
-3.23629e-05
-4.88518e-08
2.32351e-05
5.83377e-06
6.16244e-11
9.08422e-13
-1.52621e-11
-7.01679e-12
-2.33315e-06
8.68654e-11
-2.51373e-06
-6.77057e-12
-5.13013e-13
-1.58109e-11
-1.19834e-07
3.56438e-08
-5.5942e-07
2.50141e-06
2.77746e-05
1.6448e-10
-2.83769e-10
-6.27303e-08
6.14161e-12
-1.09357e-11
-1.52537e-10
9.72931e-08
-4.22864e-11
-6.53256e-12
-0.0010129
-1.8406e-11
2.84128e-11
-5.43734e-05
0.000154163
0.000721028
-1.24999e-11
2.0321e-07
-2.17984e-05
1.28941e-10
1.14554e-12
4.57894e-05
-1.14838e-10
1.40196e-12
3.95638e-05
-4.36486e-09
-1.7492e-11
-4.42305e-11
3.15156e-10
2.24732e-05
2.63099e-12
0.000188513
4.11126e-10
0.000186432
-2.65602e-10
-1.68831e-07
4.60981e-13
-2.63268e-06
-0.00256035
5.92395e-10
-2.90624e-11
-3.49295e-05
8.90981e-12
-2.50843e-10
1.82309e-11
-4.55419e-11
1.65335e-07
0.00574484
-2.00408e-13
1.61909e-11
-0.00110149
5.88031e-11
-1.40164e-11
-1.51355e-11
7.08389e-05
5.90708e-07
-3.63856e-08
-2.46526e-11
9.0106e-07
8.20285e-11
1.95872e-09
-8.17084e-06
-7.61e-07
8.79127e-10
-3.1156e-11
1.55479e-11
-1.232e-11
8.27876e-05
-7.36092e-14
-2.21023e-11
4.51693e-11
2.57891e-12
9.27532e-05
-3.38077e-11
-6.35852e-11
-6.17155e-10
-5.3507e-06
-7.5234e-12
-4.42479e-11
9.17067e-12
4.92906e-10
5.63358e-06
-0.00180577
2.41321e-06
1.29296e-11
-2.91822e-05
-1.20053e-11
-6.40362e-12
-2.0843e-11
-1.81369e-11
-5.04537e-11
-3.02202e-11
-0.000614915
7.89811e-11
-1.44707e-11
-0.00184572
8.24477e-12
-0.000116177
-5.60449e-06
-6.08885e-10
-0.00749057
1.62871e-11
7.84469e-05
-4.92606e-08
1.31788e-10
-4.6148e-13
2.52302e-08
1.79778e-11
9.85757e-12
-2.86659e-06
4.31584e-10
-2.17163e-10
6.01019e-10
-1.98275e-05
-2.47108e-05
-3.76063e-10
1.03936e-10
-1.93343e-11
-6.53097e-08
-1.49251e-10
2.58821e-09
1.20338e-05
2.75312e-11
-1.21482e-11
2.12278e-11
1.60414e-09
1.55611e-05
-9.26603e-09
-1.72947e-12
-4.68685e-10
2.57176e-12
3.07764e-11
1.95781e-06
-1.303e-09
-4.47496e-11
1.9313e-08
-6.38752e-11
-4.71114e-12
4.39628e-08
4.02411e-05
2.7633e-11
1.42457e-11
2.51165e-12
-4.04546e-11
5.86168e-06
8.87608e-11
-3.14052e-11
-0.0122175
7.85683e-11
9.22118e-11
3.52276e-06
-7.17115e-12
-0.00258411
3.21354e-12
2.42897e-06
-4.51744e-07
1.10471e-05
-1.13401e-10
1.5738e-11
3.91593e-10
1.9129e-10
1.14351e-12
-5.66937e-12
3.57384e-12
-1.12132e-09
-2.79913e-11
-1.39012e-09
-8.61006e-10
9.6281e-12
3.09424e-05
4.31402e-08
0.000281816
9.13502e-11
3.01706e-12
4.53488e-07
2.52276e-11
9.52107e-10
1.98644e-05
-1.08811e-08
1.51189e-05
-2.41992e-05
1.10148e-12
2.18759e-05
3.66585e-08
7.37471e-11
-9.21462e-11
2.90512e-05
-1.74108e-05
-5.44049e-12
8.24987e-13
8.76472e-13
8.06122e-06
1.03757e-07
4.92303e-05
-1.26273e-05
1.22729e-11
-5.70188e-09
2.0299e-06
0.000148094
2.02496e-09
4.40325e-10
8.16214e-11
-1.83576e-11
4.32657e-07
-1.86652e-05
9.51598e-10
-5.62392e-06
-7.3108e-13
5.98841e-13
-1.31116e-11
-3.14564e-10
-2.04277e-12
-5.2563e-06
7.52494e-13
-1.21564e-06
9.58401e-05
-3.68928e-10
5.15681e-07
-1.92615e-11
-2.98043e-12
-3.54873e-05
1.66745e-10
-1.34001e-06
-7.10394e-12
-1.48021e-11
8.64392e-12
1.93704e-15
-3.9462e-09
-3.17845e-11
-2.22954e-05
-9.2094e-06
7.84988e-11
9.1005e-11
1.18611e-10
-4.20825e-07
2.1056e-07
-7.40377e-11
-1.4619e-11
-4.26987e-05
6.72663e-11
0.000387149
-1.69882e-11
-0.000108268
1.22575e-05
-1.5293e-12
1.76118e-11
-2.28881e-07
-8.93989e-11
1.54226e-12
3.42513e-09
4.41207e-11
5.13281e-08
3.90869e-08
-5.54611e-05
-2.2551e-11
-1.63006e-05
-0.001181
-2.18367e-07
-1.90712e-10
5.11335e-06
6.10728e-11
-5.93776e-05
-7.12213e-12
3.60024e-10
1.53834e-06
-1.08886e-07
-0.000164631
-5.96839e-09
1.04653e-09
-6.59333e-12
5.26373e-05
3.07115e-12
-0.00128161
-0.000113833
1.15896e-10
7.89219e-14
-2.94523e-11
1.04096e-09
1.18108e-10
3.49799e-12
7.79196e-08
-1.04352e-06
-4.56819e-10
5.62377e-10
9.77598e-06
3.29943e-05
2.60021e-05
-2.90303e-11
5.07025e-08
-5.59599e-12
7.86799e-12
-6.25085e-08
-1.70749e-05
-2.26962e-07
1.03554e-05
-2.2002e-08
-3.90902e-07
3.03557e-07
2.60084e-11
-7.25438e-06
0.00411501
-2.32866e-13
2.98576e-10
1.61923e-07
1.26636e-10
-1.36072e-07
-1.75677e-11
-7.79033e-11
0.00755726
2.15464e-12
6.4013e-10
-1.83129e-12
-3.0486e-11
9.19888e-05
-5.52204e-05
-1.0172e-07
5.7047e-11
-2.64361e-12
-7.75223e-12
1.05304e-10
6.29703e-08
6.15209e-06
-7.78402e-08
-1.11548e-05
-2.82727e-06
-1.97023e-07
3.03164e-11
4.0301e-06
8.37749e-11
2.57393e-05
-2.84904e-11
6.74293e-13
1.87345e-11
4.65727e-10
6.06686e-08
2.14448e-12
2.48921e-10
2.23375e-09
-4.01289e-08
4.03947e-11
-6.72918e-06
8.68117e-11
-2.57013e-06
1.83304e-09
1.8808e-10
5.1959e-10
-3.28157e-13
2.03874e-11
2.7062e-06
5.00632e-05
1.62519e-11
-1.70955e-07
6.3115e-11
-1.20259e-11
5.56135e-10
9.60458e-11
-1.2506e-05
1.17609e-11
-1.67458e-07
-5.12417e-12
-1.96014e-11
-2.21457e-11
9.99232e-09
1.60274e-10
-9.56929e-13
8.4306e-11
-1.62494e-08
3.13087e-09
0.00458533
2.72696e-05
-2.47616e-13
3.56991e-12
6.16252e-13
1.65347e-05
-7.17721e-09
-3.0434e-07
-2.27131e-05
3.19905e-09
1.60709e-10
5.66159e-05
1.48021e-11
1.1973e-12
5.55808e-13
-1.19868e-11
-7.53073e-07
8.70992e-12
-6.04774e-12
4.17736e-05
-1.12748e-06
-1.00148e-09
-5.34226e-11
7.05834e-05
2.55569e-05
-4.14522e-09
4.69175e-11
-1.78771e-11
3.99829e-05
-1.81948e-07
0.0001439
0.000910069
-1.65128e-07
7.43076e-06
8.24768e-11
-1.48713e-09
-6.87476e-05
2.46945e-13
0.00013366
8.43061e-11
2.90047e-15
-1.12743e-05
1.13357e-09
-2.82682e-06
-1.59803e-06
-7.39093e-07
-1.71038e-11
1.5126e-05
-6.44033e-12
2.66105e-11
1.84699e-10
1.66432e-11
-3.49714e-10
2.40754e-05
-2.08389e-05
2.21183e-09
-2.31811e-06
6.78549e-11
1.31662e-05
-0.021824
5.32089e-09
-6.22134e-06
1.00496e-10
-7.09071e-13
-1.59787e-11
5.35693e-11
-1.45985e-11
-1.79023e-06
1.2064e-10
3.39447e-05
-9.77811e-07
-7.46551e-12
-5.81545e-09
-1.1057e-08
5.49706e-12
-3.06686e-11
-3.29421e-05
-1.02239e-05
-5.08343e-11
-1.82574e-07
9.39395e-11
-2.3728e-12
4.99711e-09
3.43936e-10
3.93163e-05
-5.90213e-07
5.1737e-05
6.75816e-05
4.13218e-11
-9.76136e-07
1.63629e-12
0.0010486
1.20193e-06
-2.11484e-11
4.97578e-10
-1.22833e-05
-2.68996e-11
3.21112e-08
-1.7671e-11
-2.32851e-06
-2.70537e-08
3.01236e-11
9.0629e-11
-3.63769e-11
7.1657e-12
4.36202e-11
0.00176395
5.99242e-11
-8.52381e-12
1.27212e-09
-1.16971e-11
-2.35014e-05
2.33673e-07
2.57737e-11
-4.04054e-12
2.3653e-11
1.08296e-06
3.91387e-11
3.11743e-14
-3.8166e-07
0.00457535
4.57742e-12
-5.64077e-12
7.0935e-09
2.11883e-06
8.3064e-12
-8.47064e-11
-4.07028e-11
-1.66615e-07
-8.28832e-12
2.26142e-05
-1.57299e-10
-6.51387e-10
0.000465438
-6.7276e-05
-1.41958e-11
-0.000303538
4.26074e-12
5.38529e-06
3.2709e-10
4.38027e-10
8.93161e-11
1.85072e-11
2.3695e-05
-5.82813e-11
-4.03805e-06
-1.69949e-12
-6.54672e-09
1.5816e-06
3.94556e-05
-3.24198e-06
1.85416e-10
2.97579e-06
7.03288e-15
6.05515e-11
1.23407e-09
-0.00123399
-5.2174e-11
-1.03946e-05
-5.26707e-09
6.0681e-11
1.70245e-10
1.81308e-12
1.01783e-10
-2.5787e-11
-5.66482e-12
9.59423e-14
2.96288e-07
2.58035e-11
-2.15255e-09
1.22682e-10
0.000516831
-9.88126e-11
-0.00357521
-1.52805e-11
4.86696e-07
1.93792e-09
5.17737e-08
2.11424e-10
2.35108e-07
1.38185e-10
5.63884e-10
2.86533e-09
3.57347e-10
2.00666e-06
1.5584e-09
8.36873e-12
-1.10003e-11
4.61475e-05
-2.34637e-10
-3.44531e-09
-2.65558e-11
3.86921e-13
-1.81179e-07
-8.12252e-08
1.27644e-05
6.64645e-06
-8.55169e-07
6.33871e-09
5.49027e-05
-5.31741e-12
-8.83888e-14
-7.01278e-07
7.34775e-10
-7.50322e-05
-2.01292e-08
-3.85949e-11
-2.40616e-13
-5.22019e-08
-1.35267e-11
-3.43787e-06
1.28392e-11
-5.02794e-09
-2.61043e-11
-2.2837e-06
-8.32662e-13
0.0152071
-2.08729e-11
-2.75138e-11
4.93032e-07
2.01103e-06
-1.20212e-06
8.06021e-07
2.56491e-09
-4.73869e-05
6.82417e-09
2.16472e-07
1.05046e-05
2.31095e-09
1.08111e-05
1.20524e-10
-1.60898e-11
-4.68392e-08
1.00534e-05
-8.68958e-09
-3.32988e-11
-1.56709e-11
5.04793e-07
1.97332e-11
0.000112798
9.42065e-06
6.22976e-12
-4.0347e-11
-8.44829e-12
6.57725e-11
0.00427675
4.61881e-11
1.07062e-05
-0.000521064
-6.43997e-05
-8.66484e-10
1.39139e-11
-6.5959e-10
0.000323092
-1.01491e-11
-0.020277
7.24958e-09
-8.56413e-10
3.67744e-12
1.59981e-11
-2.33663e-08
-7.67732e-10
0.00619717
6.00982e-06
-3.95082e-07
-7.3954e-12
-6.95778e-13
-2.32385e-11
1.7622e-06
-3.9729e-09
0.0202373
1.7995e-10
2.62801e-05
3.69803e-06
8.33638e-08
3.44202e-11
1.06297e-10
8.56377e-11
7.15487e-11
-2.2513e-05
7.35917e-09
-1.75268e-11
2.95266e-08
1.41785e-05
4.85309e-10
-3.69704e-09
2.77143e-09
6.35073e-13
-0.000220828
4.53614e-11
5.93808e-10
-9.4211e-12
5.56595e-10
-1.17481e-09
-1.56483e-11
-4.20732e-08
-4.05214e-11
-2.00984e-05
1.14293e-11
8.78382e-11
-1.95585e-11
6.75528e-05
4.65217e-05
4.48166e-10
1.88663e-05
-5.63314e-08
9.26366e-11
-7.09729e-12
2.58926e-11
5.89493e-06
2.37077e-06
-6.04865e-07
0.000345629
-1.08448e-10
1.94156e-10
-1.01471e-05
2.97939e-11
3.55006e-11
0.00161281
-1.10502e-08
1.61958e-12
-1.832e-05
5.25038e-07
-4.18752e-05
4.29686e-12
-1.52361e-06
-1.87443e-10
-0.000313882
5.24026e-07
5.0147e-11
7.16332e-12
-6.01558e-05
-1.54646e-07
4.96891e-09
-3.29952e-12
3.97926e-05
2.30021e-05
1.80054e-11
8.29101e-10
-6.14243e-12
3.6471e-11
0.00103452
1.24221e-11
-5.29339e-09
3.92823e-10
-2.35073e-06
-2.93411e-11
1.67753e-12
-1.82809e-11
6.74359e-08
7.63874e-11
-1.23637e-05
4.73446e-05
-1.87712e-07
0.000563471
-1.7165e-11
6.64074e-11
-4.56478e-11
-1.2851e-11
4.55395e-09
1.2727e-10
1.01094e-05
-1.23163e-10
-1.39764e-13
1.44867e-07
-5.37807e-12
-1.78938e-12
-1.75661e-11
-4.97514e-06
1.11306e-05
-8.04752e-06
-4.70542e-12
1.65729e-09
1.80004e-05
-1.10409e-12
-9.32179e-12
6.33188e-11
6.87725e-05
-2.8633e-05
3.54584e-11
1.85491e-07
-2.67131e-10
1.39157e-10
1.30685e-10
6.37755e-11
9.43861e-07
-8.25096e-09
1.5305e-09
-2.20449e-05
0.00596868
-2.65939e-11
5.71117e-10
5.24765e-08
6.35512e-12
7.70927e-08
1.87016e-10
-1.1025e-07
2.51059e-10
6.76789e-06
7.20545e-06
-2.49987e-11
1.00166e-11
1.83088e-11
-7.47153e-12
3.55523e-07
-6.99528e-12
1.01342e-10
-6.36025e-12
-3.72885e-08
-1.56087e-11
3.19391e-07
-3.86373e-10
-1.10892e-12
-0.00046059
6.95156e-10
-2.06761e-11
-1.44999e-06
-1.45469e-05
-0.000425204
3.86118e-12
-1.86479e-05
7.14743e-11
1.58804e-12
-4.28093e-11
4.26223e-10
9.66377e-11
-3.89121e-07
-5.61994e-10
-3.02793e-12
-3.78378e-10
-1.5948e-11
3.98566e-05
-6.12737e-08
-4.9412e-06
5.45719e-05
-4.33194e-12
-6.18894e-05
-4.22405e-08
-4.54653e-11
2.17177e-12
-9.99122e-09
-5.5376e-08
-9.33533e-11
3.83635e-06
0.000130114
0.000142275
-1.39121e-09
1.92359e-12
-5.02715e-10
9.51455e-11
-4.65057e-11
3.80164e-11
3.79021e-08
-1.94497e-12
-5.11612e-12
-3.13448e-10
2.44494e-05
-2.0303e-05
4.51537e-05
-3.4562e-05
3.11634e-10
4.44142e-12
5.82662e-05
-4.95401e-05
5.55967e-07
-9.23463e-12
-8.70826e-11
2.94749e-11
1.41821e-10
3.65118e-10
5.34952e-07
-3.11053e-11
-8.03227e-09
1.08133e-05
2.69377e-11
3.98888e-11
4.03515e-08
7.9076e-08
-2.17388e-12
-2.6653e-06
-2.05956e-11
2.18788e-05
-6.08784e-12
1.39588e-05
-4.56892e-06
1.34012e-06
-9.59213e-09
3.47959e-11
-3.72777e-11
-3.44093e-13
-3.72797e-11
-2.69306e-11
0.00223494
5.15805e-05
1.77547e-11
-2.38849e-06
2.1613e-07
1.85709e-10
-1.80179e-11
-0.00351479
4.55409e-10
0.0021911
2.97286e-07
-1.03951e-05
1.4663e-07
3.62517e-12
-4.54002e-12
-9.17566e-05
-5.63475e-12
8.29312e-12
5.41994e-10
1.8579e-06
1.78336e-10
-1.72078e-13
3.7422e-06
2.28178e-07
-4.18448e-05
6.50526e-05
-7.27121e-05
-1.04334e-11
-3.54981e-11
1.16787e-06
-1.44788e-11
6.97242e-11
2.86845e-13
2.34737e-05
8.30469e-06
-1.64123e-10
1.94895e-10
2.86015e-06
1.12553e-11
5.16988e-10
3.82662e-05
-2.21992e-13
3.76278e-11
-5.63175e-08
8.96912e-08
1.30727e-09
1.93025e-05
-3.24507e-07
-4.88936e-11
-4.46212e-11
6.73382e-12
1.48903e-05
4.22682e-12
-2.74272e-05
1.05996e-11
4.67782e-05
3.41495e-11
-1.79271e-10
-1.46086e-11
-2.35891e-09
-9.46093e-06
5.05983e-05
0.000158397
-4.37292e-10
4.56828e-12
-4.62073e-09
1.20519e-10
-4.45667e-08
2.98698e-05
-1.32376e-11
1.37461e-07
4.52972e-12
1.24504e-12
-8.18149e-12
-6.2019e-05
-9.2866e-08
-1.55419e-14
1.95747e-11
-3.87426e-08
-8.01495e-11
-5.79822e-06
-0.000204638
1.05761e-05
-0.00456612
1.60321e-10
9.92365e-09
-1.83999e-11
-1.9522e-05
4.14977e-10
7.33313e-11
7.32301e-05
3.83925e-10
6.268e-05
-2.7537e-11
3.97365e-07
1.27673e-08
-2.88235e-15
-4.11257e-06
-1.37389e-05
1.02075e-09
-1.24161e-06
0.000724582
-6.82127e-05
6.06458e-10
-1.32352e-05
2.29795e-12
6.30635e-11
1.81847e-06
4.24842e-06
-2.06581e-09
-3.49873e-13
-1.71482e-11
-4.33226e-11
1.33511e-10
3.62438e-12
1.68758e-05
-1.06916e-05
4.46544e-12
-1.22775e-05
2.3577e-09
1.88298e-09
5.21951e-05
-3.16544e-06
-7.10414e-12
-7.37218e-12
-2.18549e-07
1.22062e-05
8.94538e-12
0.000675946
-2.73452e-11
-3.34697e-12
5.05056e-10
-1.98123e-11
0.000801739
-6.52855e-12
5.21342e-05
-2.67609e-06
1.00746e-10
-9.00117e-09
5.54716e-11
4.75741e-08
-1.10014e-12
4.12935e-10
1.76217e-05
1.03734e-05
-1.29536e-11
-1.68735e-07
7.61189e-10
5.07027e-06
2.11321e-06
-3.77232e-11
5.35364e-10
-1.55425e-06
9.76456e-05
4.62155e-05
-5.44571e-12
-2.11753e-11
-5.85098e-05
1.33711e-05
6.92048e-11
-3.92922e-08
-6.50264e-05
-9.70395e-08
5.10545e-11
7.6776e-06
-1.66143e-07
1.74012e-05
-5.98216e-05
6.55983e-11
-1.1314e-10
-1.79794e-11
1.2154e-06
1.55021e-10
9.58356e-11
-2.92195e-05
1.37129e-10
-5.4305e-11
-2.78099e-12
-6.50736e-07
-2.61894e-13
-6.25454e-06
-1.1538e-10
-1.69864e-08
1.52733e-10
2.06276e-07
1.02966e-10
1.95241e-07
1.39712e-10
-1.14913e-07
1.10528e-05
0.00535675
8.91999e-11
-1.84276e-05
6.19662e-11
4.72779e-07
3.96064e-11
1.22997e-07
2.26436e-11
6.82414e-11
-7.377e-12
8.27879e-06
-2.42824e-06
-3.47707e-11
-1.43695e-12
3.08971e-11
4.6186e-08
-7.51121e-12
1.80684e-10
8.70035e-05
-4.14162e-11
1.02824e-09
3.5961e-06
-0.00289219
7.46584e-10
-0.00026758
9.18469e-12
-9.11427e-12
-4.23347e-10
-8.09875e-10
-9.61857e-12
3.80801e-14
2.69746e-11
2.33862e-10
-4.60516e-12
-5.40215e-06
1.91874e-10
1.78061e-05
-1.21455e-06
8.06192e-10
6.19611e-07
-1.92946e-12
6.70531e-12
1.14972e-05
0.00527193
0.000103246
-2.128e-11
1.72955e-09
-3.16243e-12
-9.15548e-12
3.22179e-06
-4.16767e-09
8.35577e-06
-1.50212e-11
-2.52679e-11
1.90134e-11
7.31139e-11
0.000343293
5.62843e-08
-3.72637e-11
6.91052e-13
-1.19387e-10
0.00295698
1.10594e-06
-3.47091e-11
-0.000447623
0.00548389
-0.00493884
-5.32645e-08
-1.13477e-07
-5.25004e-07
-2.16864e-11
-4.14293e-11
-1.31462e-13
-1.03041e-11
-0.00177676
5.77549e-05
-2.0313e-07
1.49079e-10
5.1193e-08
-6.08251e-06
8.04276e-10
1.12833e-10
1.72849e-12
-4.52237e-05
6.35248e-10
-1.32159e-09
9.46967e-11
-3.94007e-11
2.38516e-10
1.38862e-10
5.44349e-11
-3.00717e-11
-2.78101e-05
-7.39133e-06
-2.15714e-11
-1.26585e-06
-3.00075e-11
1.01686e-11
1.08893e-10
-2.00867e-05
-1.0037e-11
1.84988e-06
4.55914e-11
-3.88349e-10
-4.43462e-11
2.93896e-12
-6.60274e-05
-2.44708e-11
9.43384e-08
3.5246e-07
-5.61208e-06
1.73969e-11
-2.66656e-08
-1.82532e-11
-3.37745e-11
5.32731e-12
-1.31768e-11
-5.19289e-12
6.1641e-08
-4.35784e-11
-0.000628831
1.44243e-10
1.36281e-12
4.98447e-11
5.01191e-08
1.12016e-09
-2.67301e-11
7.69593e-11
4.81924e-10
-1.36495e-11
-9.9309e-12
-1.53695e-09
-3.43246e-11
0.00189216
-4.25188e-12
1.87194e-07
7.66872e-05
1.27858e-05
-2.92291e-11
1.88779e-06
9.24103e-08
-1.22381e-05
-1.53035e-05
7.95433e-05
2.61311e-05
-1.2701e-11
-5.67462e-05
5.12306e-11
9.04972e-11
-3.48781e-06
1.18994e-05
8.92434e-10
-0.000171103
-1.95424e-11
8.66337e-11
-2.60416e-05
1.83735e-06
8.06301e-06
9.87332e-05
1.46923e-07
5.11196e-10
2.65582e-05
1.16546e-12
0.000171367
-3.08175e-13
3.32923e-08
-5.15496e-06
1.4055e-10
1.38215e-09
-9.29543e-12
1.0302e-12
3.48563e-08
-1.01818e-11
4.37065e-05
2.2018e-11
-3.93489e-11
-7.06256e-06
-2.2092e-05
-1.7924e-11
1.20033e-05
6.45317e-11
-2.43915e-11
1.42744e-05
2.40109e-05
-5.18234e-11
-8.79892e-13
-8.86647e-11
-2.29111e-07
5.84679e-11
-2.36259e-05
-1.00512e-05
3.96204e-07
-1.02193e-05
4.66942e-13
8.54723e-08
-3.2948e-11
1.41478e-05
-1.81122e-11
-2.41144e-05
4.38256e-05
1.67704e-07
-0.000106108
1.00777e-12
-1.54809e-11
6.69519e-12
-1.02417e-11
1.69454e-12
1.27504e-10
-6.75633e-06
3.78253e-10
-6.00456e-09
6.85938e-05
-9.86133e-06
-1.53958e-05
1.77035e-05
-4.02831e-11
-2.23263e-13
8.0477e-10
-3.46549e-10
3.20761e-05
-2.2679e-09
-1.81786e-11
-1.9384e-05
-8.56303e-05
9.20658e-11
6.91264e-12
3.63567e-11
-0.000107427
-4.80102e-09
-3.78024e-12
-3.39623e-11
-3.03749e-10
-1.7566e-10
2.56981e-11
-1.31039e-11
1.14409e-06
-9.92392e-12
0.000156128
-6.38741e-09
-7.74069e-11
8.49389e-11
1.36185e-10
-8.54445e-11
4.83936e-08
1.66943e-10
3.98682e-12
6.21336e-08
-9.63719e-06
-5.19577e-12
-1.04168e-07
-1.24864e-11
2.42198e-07
-1.80583e-05
-8.5645e-12
-1.78542e-07
-4.20533e-12
0.00109845
6.28739e-11
6.70916e-06
0.00766975
0.000458088
8.96507e-05
-0.000278669
1.95529e-07
0.00175894
-6.19675e-05
3.05592e-12
3.11263e-07
-4.20284e-11
-3.05078e-06
-4.51584e-06
1.8492e-07
1.69407e-12
6.02556e-11
-2.43089e-11
0.00012005
-1.16074e-06
-1.61043e-11
-1.36123e-11
-7.44303e-12
-7.58429e-08
4.05969e-07
2.49021e-10
-7.50948e-09
-2.19445e-05
5.04282e-12
-2.02183e-07
-3.38935e-11
-2.96918e-11
-2.95582e-11
9.40028e-11
0.000155207
-3.12198e-06
-1.09518e-05
-1.23327e-06
0.000129708
6.3872e-07
0.00482059
0.000238634
-0.000239122
2.67928e-05
-2.69682e-11
8.00954e-08
-2.96696e-13
1.50453e-10
3.35638e-11
-1.98378e-09
-9.68206e-11
-4.15885e-11
-0.00204642
1.50724e-10
6.99647e-11
1.57005e-10
1.20335e-10
-4.61646e-12
8.35483e-07
-4.15288e-11
-2.74277e-12
-8.71382e-08
-8.85996e-10
-2.06321e-05
-6.29279e-09
1.22582e-10
-2.0377e-09
0.000102503
-0.00827519
-1.38094e-10
-1.51097e-06
4.11943e-12
-1.74899e-07
-8.316e-11
-1.0252e-10
1.34804e-10
-6.59283e-05
-2.52261e-10
-0.00225708
-3.28187e-10
0.0185302
0.00019397
-2.27116e-05
8.01889e-06
8.90006e-12
-1.97688e-11
1.10437e-05
-5.02077e-09
4.9198e-08
3.02255e-06
-4.10772e-10
3.94379e-12
1.65806e-10
-5.02012e-13
-1.0425e-07
-1.23974e-05
-1.04663e-07
-1.1085e-11
-2.73212e-11
-2.45256e-11
-6.84707e-09
0.000113306
-3.91384e-12
6.77457e-09
4.24872e-09
1.96211e-11
1.28625e-07
-2.50908e-07
3.00063e-07
-0.00149697
6.13488e-13
3.47605e-10
-1.87978e-05
3.47287e-08
9.69099e-11
4.26251e-07
1.47399e-05
8.46714e-12
-7.64145e-12
-1.32148e-11
5.75198e-12
-8.27393e-13
3.6211e-06
-5.35185e-12
-1.66698e-10
-6.52827e-09
7.66745e-11
2.57827e-05
-1.09068e-10
-1.83367e-11
-8.3426e-10
3.17361e-07
-1.09529e-10
8.14522e-06
-2.41286e-12
-1.91116e-10
-1.83099e-07
3.19622e-10
-2.56709e-13
9.17508e-11
-1.82597e-09
-2.20973e-06
6.75408e-11
5.70622e-11
1.51144e-07
-2.90624e-08
6.97311e-12
-1.88625e-05
-8.9347e-05
1.12635e-09
-1.1535e-10
-3.54959e-11
1.37581e-05
-2.02235e-05
1.12053e-09
3.06627e-08
-7.65226e-12
-3.27956e-08
3.23974e-12
9.18487e-11
8.17479e-06
1.32146e-11
-2.22968e-08
-5.33741e-11
-0.000445287
1.54123e-08
-4.01339e-13
-4.12108e-07
-1.00787e-07
6.63803e-11
-1.43672e-08
-8.58581e-13
1.01799e-09
-0.00414212
1.51179e-05
-0.00067407
6.23725e-08
1.58081e-05
3.80642e-07
1.92579e-09
-2.86129e-11
-1.05153e-12
-2.24653e-09
1.96586e-07
-1.81151e-05
1.66907e-10
1.08197e-10
-8.66854e-11
-2.47664e-05
-7.63515e-08
-6.81775e-06
-2.23824e-11
-3.17415e-11
5.96129e-07
-2.77909e-05
-3.92631e-11
7.10961e-11
5.65562e-12
-2.01933e-10
3.3036e-07
7.77251e-11
2.73681e-11
2.0878e-10
-8.01529e-10
4.94984e-05
-4.15619e-11
1.22731e-10
-5.44433e-06
-7.06449e-12
7.74347e-10
-2.94199e-12
8.51971e-10
2.88261e-05
5.62267e-11
-8.53644e-10
2.93353e-12
5.04733e-11
-1.70599e-07
-5.93723e-11
4.28358e-11
8.98672e-11
2.61327e-10
1.35182e-07
6.46528e-11
-5.92065e-09
-4.7713e-13
-1.48074e-11
1.83858e-10
6.1759e-06
-2.33925e-05
8.91808e-10
2.0064e-05
7.01727e-11
9.00738e-11
7.79895e-11
-0.00452345
3.09981e-11
-3.77949e-11
9.61916e-11
1.76479e-06
-1.57968e-10
-4.39056e-08
-3.17237e-11
1.52465e-10
1.24871e-06
1.10502e-10
-1.43057e-11
3.35405e-05
6.8977e-11
-4.0078e-11
-5.00878e-12
-6.77196e-10
0.00241214
4.10111e-05
-3.98285e-12
-1.96408e-09
3.59917e-10
2.08403e-12
3.72686e-12
2.15984e-09
-5.27458e-08
3.83138e-08
-1.62121e-11
-5.2863e-10
-8.60562e-10
1.49652e-05
1.53946e-10
6.25978e-06
1.94977e-06
8.78985e-11
2.76842e-05
-9.5986e-05
4.46995e-05
5.56651e-10
1.2387e-09
-3.01214e-11
-8.14394e-12
3.29492e-11
7.28578e-07
4.05253e-05
-4.07238e-10
-1.86424e-06
-5.1609e-10
7.36224e-10
-1.2225e-07
1.03659e-09
5.74804e-11
2.51103e-05
-0.000456941
6.15817e-12
-6.01937e-12
5.13994e-10
-1.97257e-11
3.91451e-10
-2.20118e-09
0.00480255
5.66693e-11
5.74171e-11
-1.40263e-11
-2.42308e-07
2.1693e-10
1.08336e-06
9.90648e-10
-2.2961e-06
1.4844e-07
8.87602e-08
1.87329e-08
-3.29138e-07
5.66515e-07
6.46704e-09
-1.62885e-06
-2.91769e-05
6.05e-11
-0.00198468
5.09659e-10
3.61305e-08
-4.27009e-11
4.48053e-12
-2.72567e-07
1.40381e-11
7.54833e-09
-5.95891e-05
2.51273e-09
1.70398e-10
-0.000145441
-5.85766e-10
-1.06528e-08
2.00346e-05
-1.38852e-11
0.0011972
3.84361e-07
-8.9027e-12
6.57423e-05
3.39322e-07
3.67586e-07
-1.8608e-07
0.000108904
3.63653e-09
-7.77482e-13
-1.49728e-08
2.38945e-09
-8.33888e-06
9.68305e-08
-2.73697e-10
-9.97199e-11
1.85644e-10
-5.43953e-08
2.80876e-07
1.2373e-05
-6.88718e-05
1.9816e-10
-3.02262e-11
7.05311e-11
-8.77891e-05
1.10845e-09
-7.84609e-11
6.78567e-10
0.00126407
-3.70636e-10
2.34432e-10
5.19294e-10
-2.3788e-11
-9.79302e-11
7.44333e-10
-6.62504e-07
2.16223e-12
1.48131e-05
6.14145e-12
6.10269e-13
-6.60461e-08
1.48014e-09
6.05696e-06
2.7044e-12
-4.17731e-10
-8.36689e-05
1.21862e-09
5.92403e-11
1.86242e-05
-5.17006e-06
4.43657e-10
7.4945e-06
1.3459e-10
1.63948e-10
1.77275e-05
2.01399e-09
-0.00237709
9.83784e-06
1.81189e-10
-4.0782e-10
1.074e-09
1.19154e-11
-1.51705e-11
-2.65022e-11
-3.42877e-10
3.51651e-05
3.11904e-05
-7.58987e-09
6.86564e-08
-5.14189e-12
8.20643e-12
1.06523e-10
2.65684e-05
1.00232e-10
-2.00648e-12
1.21451e-10
3.77051e-11
1.37678e-05
-1.3737e-12
-7.13924e-12
-1.17177e-05
7.8667e-11
-3.33771e-11
-2.50235e-11
-2.68274e-12
-2.00484e-11
1.03888e-05
3.68234e-09
1.3992e-11
-6.93047e-12
8.30645e-10
3.86186e-11
1.95715e-10
-1.39195e-05
-3.59666e-05
7.67705e-05
-8.65994e-13
-1.02062e-07
-1.78416e-06
-6.44544e-05
7.2293e-05
0.00400669
2.60217e-10
9.46626e-13
5.00955e-05
-2.93409e-10
-7.37732e-05
2.28426e-11
9.16515e-11
-8.30396e-12
1.27473e-12
1.02209e-05
-5.82088e-07
6.02455e-11
3.69709e-10
-4.11143e-06
4.95551e-11
0.0115124
1.08175e-05
9.29349e-12
5.6475e-08
0.00011057
-6.27797e-13
2.30367e-07
2.3209e-05
-1.71751e-11
4.72878e-13
8.81664e-05
-2.68636e-11
2.01811e-10
6.79314e-11
0.00261259
7.7886e-06
2.59972e-11
3.78365e-10
9.00002e-11
-0.000139178
-2.31215e-06
-3.83282e-10
4.45727e-12
-4.46076e-05
-2.47105e-05
8.82833e-07
-1.79651e-11
2.02755e-11
2.53002e-11
1.40366e-08
-2.38307e-10
2.02428e-10
-1.76131e-11
7.89362e-10
-2.53381e-05
-1.92805e-08
2.50017e-11
1.61846e-05
4.58569e-10
-1.69015e-11
-2.8678e-09
-1.42656e-11
-3.9763e-11
-5.49729e-07
-2.30297e-09
1.9558e-05
2.78509e-08
5.87563e-10
1.68042e-05
3.0195e-07
-1.29064e-07
3.27844e-05
4.69899e-08
-2.24546e-05
2.1061e-09
7.02992e-05
2.06543e-05
1.31892e-05
1.33893e-09
0.000189016
-2.1563e-06
-2.27741e-11
1.28504e-10
1.1029e-07
1.26097e-07
2.39165e-07
-8.15147e-05
-4.53261e-09
2.53749e-11
-7.05148e-08
-3.02197e-12
-2.08394e-12
4.68789e-11
3.15887e-08
-6.26716e-07
3.27242e-10
-3.20606e-06
-1.34085e-11
1.98328e-10
-4.35864e-12
-5.21335e-11
-1.04394e-07
1.73298e-10
-9.73888e-10
6.35184e-11
-2.78998e-11
3.90244e-07
-3.36954e-12
1.72551e-10
-4.10856e-08
2.02937e-10
-5.64272e-05
8.97837e-08
2.21339e-05
3.23057e-11
4.32414e-11
2.86696e-11
3.38395e-07
-3.74909e-11
-0.00239938
2.75247e-05
6.81163e-11
-4.65192e-11
1.68867e-05
-2.03125e-06
-8.65151e-07
-2.108e-05
-8.60609e-12
-4.19273e-11
-2.26354e-11
-0.000109122
1.91792e-10
-7.1775e-13
2.65306e-09
-5.08768e-10
2.47886e-06
-1.85545e-05
0.00321618
3.27122e-08
-1.50704e-11
-0.00106615
-6.09975e-11
4.13472e-11
-3.7754e-11
2.20945e-11
9.37247e-08
2.17278e-08
-4.56313e-05
-3.03468e-11
2.09016e-10
-5.69083e-12
4.70465e-11
-9.63248e-06
1.71672e-11
6.08357e-10
0.000512869
5.396e-06
-2.11775e-12
2.69158e-12
6.49001e-10
-1.89287e-05
-9.18948e-12
-2.09963e-08
9.31962e-10
8.34594e-11
-1.42828e-07
8.30399e-07
3.09587e-11
-0.00129987
3.50352e-11
-4.68832e-09
5.73034e-10
-7.43792e-09
-4.52943e-08
-3.15951e-11
2.49839e-05
-9.09528e-08
2.32597e-10
9.21025e-10
7.4674e-09
3.10106e-11
-8.07492e-10
1.3004e-09
-0.00012101
8.89821e-11
0.00270891
-1.48355e-11
-2.573e-07
1.91788e-09
3.14456e-11
-1.82722e-05
-1.84495e-07
-2.58071e-11
1.66128e-09
-3.64417e-12
5.90622e-11
-3.78447e-12
1.23639e-10
9.11871e-11
-4.63693e-09
-1.61831e-09
-4.41007e-11
-1.72915e-07
-3.01669e-07
-2.61759e-08
1.89114e-09
-1.78812e-11
2.258e-12
-1.2704e-11
1.46557e-07
-2.4651e-12
2.65628e-11
1.18936e-06
-4.47014e-08
-3.90218e-11
-1.15836e-10
-3.85248e-11
8.84146e-08
2.58087e-11
9.17044e-12
-6.08296e-07
1.0279e-10
-0.00820742
9.31427e-07
7.18797e-11
-9.64976e-07
0.00165211
-9.81219e-14
-2.1184e-11
-2.56406e-05
1.07082e-10
-1.79075e-09
-5.44096e-11
4.91041e-12
5.42424e-12
-3.73448e-12
-4.88651e-05
1.94865e-05
5.93939e-11
-2.9006e-07
1.96128e-10
4.92486e-10
2.33062e-11
-2.32977e-13
-2.0954e-05
-9.13211e-11
-4.09669e-11
-0.00455113
-0.00168744
-1.4117e-12
-1.15025e-11
1.36426e-12
-7.04852e-05
-1.76567e-11
1.78447e-10
-2.75817e-05
-1.73266e-05
-4.02637e-11
-6.36571e-07
-4.18227e-11
3.94007e-07
-2.938e-07
4.0484e-13
-1.06175e-05
1.24442e-10