/*--------------------------------*- C++ -*----------------------------------*\
| =========                 |                                                 |
| \\      /  F ield         | OpenFOAM: The Open Source CFD Toolbox           |
|  \\    /   O peration     | Version:  v2012                                 |
|   \\  /    A nd           | Website:  www.openfoam.com                      |
|    \\/     M anipulation  |                                                 |
\*---------------------------------------------------------------------------*/
FoamFile
{
    version     2.0;
    format      ascii;
    class       volScalarField;
    location    "300";
    object      ddt0(omega);
}
// * * * * * * * * * * * * * * * * * * * * * * * * * * * * * * * * * * * * * //

dimensions      [0 0 -2 0 0 0 0];


internalField   nonuniform List<scalar> 
14804
(
-0.00106769
-5.70746e-10
0.000124292
2.26171e-07
6.29273e-07
-2.0861e-05
-4.96177e-08
-7.43828e-10
4.31899e-06
-2.30871e-12
0.474353
0.000139532
2.93496e-09
1.27939e-07
-0.00596541
0.000228472
7.17037e-07
1.30732e-07
-0.00290569
4.51173e-06
8.71494e-10
2.62081e-08
-0.00113707
9.58455e-10
-0.00546358
-1.54611e-09
9.34521e-07
-5.63006e-07
-0.00169067
2.30917e-08
-2.01793e-09
7.94505e-05
-7.48416e-06
-1.49995e-05
0.000153815
-5.46394e-08
0.0111827
-7.23407e-12
-0.00616947
5.756e-06
0.000182055
9.0645e-05
0.0293038
4.98825e-10
-2.19675e-06
-8.09993e-09
-0.197522
-5.60375e-09
5.10683e-08
0.00429066
-2.5542e-09
-3.49429e-10
-4.57721e-11
9.40667e-08
0.00627497
0.0167648
0.00319796
-0.00166119
-2.22115e-09
-1.15242e-08
-0.00510111
7.51151e-10
-7.17879e-12
0.0107108
8.05309e-10
2.00258e-10
-1.91882e-09
-1.07531e-08
-1.75299e-11
0.000480946
-4.98726e-09
7.64126e-07
-0.30963
-0.0032052
-1.16802e-08
0.000121512
-0.00155884
-6.28722e-10
0.000317929
-3.1446e-10
0.000374684
-1.59461e-11
-7.12612e-10
-1.08344e-08
-7.19415e-12
0.00031271
9.67751e-11
3.33746e-08
-3.17921e-10
-8.79137e-07
8.21416e-06
3.38265e-08
0.000252124
-3.79894e-09
0.00293654
-0.00228506
-0.00180583
7.32645e-05
3.61946e-08
1.95769
-0.00151234
0.000763289
2.19027e-11
4.39884e-07
0.000784258
-0.00253566
0.000170383
-0.00335842
9.20102e-10
-2.04474e-09
1.04706e-09
0.00150751
0.000251827
-0.00251448
0.00136965
-0.000168197
-0.0294634
1.55418e-06
5.22023e-12
1.70623e-07
-0.000828032
-3.70156e-10
1.97807e-08
1.23607e-07
-3.05364e-09
-2.15591e-11
-0.0057782
-7.83442e-07
0.00144464
1.32972e-06
2.54908e-07
0.000172096
0.000989508
-0.307036
-0.0164561
2.4808e-06
4.61114e-10
-0.929572
-4.56718e-10
-1.17552e-05
-3.63943e-10
-0.000849667
-5.62358e-10
0.00130322
0.000610747
-2.04822e-11
0.000833686
5.69788e-10
0.0810146
-0.00234168
-4.78353e-05
-0.00467832
2.34206e-06
-1.37283e-06
-5.80922e-10
-0.0012154
5.73672e-07
0.107914
-7.57897e-07
-0.142577
-3.83656e-11
6.0738e-11
0.00108389
0.00386271
8.81282e-08
-0.000866945
-7.24154e-09
-0.001803
-2.83531e-09
-7.22293e-10
0.0179416
2.05966e-08
-0.000407867
-0.000670309
-0.0407786
-0.0874713
-0.00223345
-4.66848e-05
2.25214e-11
-0.00797246
-1.65062e-05
0.00476805
-2.32547e-08
0.000126575
1.89917e-08
-0.00605935
5.35291e-05
0.000161924
5.35819e-08
-1.02444e-09
0.0302149
-0.23558
1.19688e-08
-0.505724
0.00749586
1.68698e-10
0.00162793
-9.46068e-11
1.98222e-05
-0.00141393
0.000999596
-1.02908e-09
8.65242e-11
0.000218141
2.7226e-07
-0.000462117
5.51274e-07
-1.15164
6.59384e-06
-1.01859e-08
6.44009e-11
-0.00546122
-1.509e-08
-3.45866e-11
-3.48842e-07
-2.43844e-09
-1.54914e-06
-3.37865e-09
7.83576e-10
5.22861e-10
-1.08735e-05
-8.64266e-05
-3.3668e-05
2.76205e-08
-3.03111e-09
1.94725
-3.56842e-06
0.0159484
0.00125453
3.36801e-08
-2.92455e-09
1.41189e-08
1.14905e-09
-0.00136216
-0.0027165
4.96262e-13
-8.25406e-09
-0.00145081
-0.00661522
4.63403e-08
0.00243122
-0.00286918
3.29868e-08
4.94752e-10
-1.54135e-09
0.00304738
1.91132e-07
8.832e-08
-0.000249411
-2.091e-09
-0.011746
1.42248e-10
7.21213e-12
-4.21429e-10
-0.00077035
-9.32219e-08
-7.60685e-10
9.57491e-09
-4.28754e-09
3.73027e-10
-0.0212958
4.85503e-08
0.00132752
-1.24796e-09
-1.25374
-1.94381e-09
6.02627e-07
-1.34452e-09
-0.00289981
0.00506864
0.00407843
0.0074472
3.4585e-12
2.30192e-10
0.00122971
-0.0017238
3.56222e-08
0.000522349
-0.0016047
-0.00225641
-0.000923161
1.86439e-11
-0.00108323
-0.00529795
0.00099056
-1.31086
-0.00560466
4.08289e-08
-2.47032e-05
0.00193058
-2.99632e-09
-1.41959e-09
2.56993e-08
-6.03944e-09
-4.54371e-05
0.183038
0.000663772
-0.000363393
-3.34052e-09
1.14839e-05
1.26911e-10
3.40279e-11
-1.47602e-05
-9.48231e-06
-0.00459562
-2.02323e-08
-0.0582375
-0.000531067
0.000252288
-0.00390739
-0.00197338
-7.45207e-09
3.71163e-08
4.38031e-08
-0.000497258
-3.11444e-08
-0.00967405
0.16133
-1.25567e-10
0.00633018
0.0023099
0.129375
0.00279333
-0.00280355
-1.7208e-08
1.14713e-05
-0.0501342
-6.66038e-10
-0.601682
0.000427133
5.04451e-07
5.41798e-07
-0.000880963
2.39278e-08
4.70771e-10
-1.91494e-09
9.39318e-11
0.000600031
-1.17929e-08
-0.000545795
3.2241e-08
9.09071e-09
3.01947e-07
-7.7322e-11
-3.49418e-09
-0.00186155
0.00309403
0.00045549
0.000335084
0.000901381
0.000578075
1.3935e-08
7.29427e-11
-1.15956e-09
-9.62883e-09
0.00133956
1.21652e-08
-0.00435769
-5.70164e-10
-2.98454e-11
-1.01578e-08
0.00165034
0.000107809
-0.00296336
0.000246255
-0.00235144
3.60084e-08
1.04369e-07
-4.15372e-05
-1.86006e-10
-1.85507e-08
1.37768e-09
-6.78589e-05
8.23325e-09
-4.5057e-10
-0.0223455
-1.38201e-09
5.97524e-09
0.000897442
-0.0486812
0.475199
1.95385e-07
0.000121677
0.00159166
1.21732e-07
2.82584e-10
0.00272156
-9.09345e-09
1.77303e-10
0.00300851
-1.33811e-05
-1.3438e-09
-1.02868e-08
8.41879e-08
0.00229062
-3.77795e-09
0.420888
3.90304e-07
-0.00901898
4.25983e-10
-0.000486407
3.29765e-10
-0.00387771
0.0161606
5.44676e-06
7.59798e-09
-0.0114913
-4.41642e-10
-9.80365e-06
-1.61839e-10
-2.8044e-09
4.46947e-06
0.112794
-1.32697e-11
2.66038e-09
-1.35986
-1.49025e-10
-3.47933e-07
-2.18327e-08
-0.00148279
0.16666
-2.39724e-05
-1.84881e-09
0.00066815
-6.81242e-09
4.75823e-07
0.000983065
0.000737893
3.039e-07
-2.43648e-09
5.99833e-08
-9.87551e-10
-0.827436
1.18723e-10
-1.48595e-08
4.26329e-10
1.58868e-10
-0.00199884
-2.60077e-09
-8.34222e-09
1.55557e-06
0.0027203
-5.11894e-10
-1.86943e-09
6.81333e-10
2.36343e-07
-0.00335612
-0.0738689
-0.00901063
2.82557e-08
0.000213009
-1.90131e-08
1.36737e-09
1.97266e-10
-1.20901e-09
-3.50111e-09
-3.4487e-09
-0.124261
7.32805e-08
1.20095e-10
-0.0169594
6.50408e-10
0.0553091
0.115283
2.54446e-07
-4.33709
4.97569e-08
-0.0029026
-5.67907e-05
-8.74553e-11
4.71047e-12
5.82198e-06
3.08161e-09
8.69647e-10
-0.00162022
1.52701e-07
-3.87788e-10
-1.6464e-06
-0.000280716
0.00227778
1.86944e-06
6.98705e-08
3.26186e-08
-5.37905e-05
-1.55345e-08
-5.13078e-09
-0.0016038
5.78916e-10
-7.39176e-10
-1.81062e-05
3.86552e-07
0.000768678
-2.35812e-05
-5.49945e-11
-3.57332e-05
2.05008e-11
-8.26387e-11
0.0024818
1.18721e-06
-4.34662e-09
-0.000277339
-8.94179e-09
-3.06783e-10
7.54962e-05
-0.00178153
6.55321e-12
6.44785e-10
1.94224e-10
-3.08997e-09
0.0045925
-1.88511e-10
-1.63144e-10
-0.18219
1.18199e-08
-3.28837e-08
0.0053517
5.66501e-10
-3.45871
2.46973e-10
0.00317509
0.00279849
-0.581623
-2.12435e-09
1.05572e-09
4.31931e-07
4.90304e-08
9.2884e-11
1.71447e-08
3.34048e-10
1.5982e-05
-2.21469e-09
-1.53632e-05
-1.32819e-07
2.21834e-09
0.00129435
0.000115184
-0.00608562
4.72768e-08
2.30657e-10
0.000188577
-1.63438e-10
3.44669e-07
0.0426276
-5.24737e-06
0.00491562
0.000417679
7.93387e-11
-0.009581
-4.3302e-05
5.75038e-08
-3.07939e-09
-0.00494034
0.00088212
-4.39732e-10
6.04244e-11
6.84255e-11
0.00138371
0.000465402
0.00469102
-0.000502812
6.25519e-10
6.14384e-06
0.0215455
-0.315173
5.84193e-07
2.1156e-07
1.71279e-07
-1.74269e-09
0.00291038
0.00260359
4.39993e-06
-0.00441438
-6.81571e-11
4.7549e-11
-1.5931e-09
-7.66299e-06
-1.6474e-10
-0.00459449
1.89129e-10
-0.00693275
0.314177
-4.34303e-06
0.00567674
-1.8109e-09
3.65625e-10
0.000467001
3.74238e-08
-0.00847874
-4.96238e-10
-1.74039e-09
4.53864e-10
4.69581e-13
-6.55212e-07
8.70991e-08
0.00028455
-0.000200913
9.40128e-10
1.06941e-08
1.47641e-07
-0.0007588
0.00034864
3.49367e-05
-1.13175e-09
0.024436
3.67552e-08
-0.313967
-1.36196e-09
-0.412517
0.00297181
-1.25798e-10
3.89162e-10
-3.66881e-05
8.75431e-10
1.1132e-10
2.84883e-05
1.52024e-08
-0.00329095
7.10085e-05
-0.512791
-1.93669e-09
-0.686643
0.047111
-0.0004255
6.57093e-10
0.00103264
4.4693e-09
-0.0397825
1.65984e-10
-8.50122e-10
-0.00660017
-0.000581549
-0.0259723
3.70444e-07
1.103e-06
-5.37981e-10
-0.00411809
-7.35347e-12
0.572602
-0.927089
2.80957e-08
-3.62243e-12
-1.40117e-09
6.3909e-07
1.16486e-07
-4.7965e-11
-0.000193919
-0.00791179
4.33527e-07
4.17806e-09
-0.000165838
-0.00265762
0.00867416
-6.0218e-10
7.248e-05
-4.3894e-10
5.19396e-10
-0.000758851
-0.00117782
-3.83654e-05
-0.00134838
5.55545e-06
0.00322249
0.00291229
-9.49642e-10
0.00198242
-1.60367
-9.18094e-12
3.84551e-07
0.000456773
1.0949e-07
-1.26774e-05
2.82952e-08
-3.432e-06
0.842361
1.58629e-10
-1.7633e-05
-1.51053e-10
-5.33174e-09
-0.00184685
0.0033912
-6.44687e-05
9.52697e-10
-1.04121e-10
-6.61065e-10
3.3181e-08
0.00181276
-0.00429539
-1.40687e-05
-0.029971
-0.00712858
-3.40339e-05
1.7747e-06
-0.0011208
1.78434e-08
-0.00230753
6.30227e-08
6.21845e-11
-1.90359e-09
2.80493e-07
3.943e-05
1.85676e-10
8.52506e-08
7.53355e-06
-0.000329164
-4.19237e-07
0.000438237
1.20695e-08
0.00312344
-2.67618e-06
-2.35462e-06
1.50873e-06
-2.21993e-11
-2.59141e-09
-0.00435944
-0.0019752
6.83288e-09
-0.00086389
9.95579e-10
-8.75894e-10
2.22514e-09
3.22181e-08
-0.000493137
1.26505e-09
-0.000158916
-9.70866e-10
4.1862e-08
-1.13231e-09
1.10712e-05
3.79632e-08
-9.51691e-11
2.30645e-09
0.00013618
-2.3962e-05
-6.45222
-0.00929486
1.16633e-11
3.91513e-10
5.11026e-11
0.00181207
-9.31893e-06
-2.40072e-05
0.00284874
8.73328e-05
6.48647e-08
-0.000754462
2.06081e-09
-4.97437e-11
4.43874e-11
-8.51827e-10
-0.000440725
1.37792e-10
-4.68441e-10
0.65571
0.00149354
2.54815e-09
-4.16663e-09
-0.00133274
0.00213209
1.25667e-05
1.13908e-07
-3.27054e-07
0.0200349
-9.57999e-05
0.0171848
-0.886947
0.000556558
0.00141616
3.8752e-08
9.37187e-05
0.000266038
7.85933e-12
0.177924
1.68953e-08
2.75111e-13
-0.00357271
5.76349e-07
-0.0185935
-0.00265829
0.00192467
-1.50709e-09
0.00179312
-5.0446e-10
1.80303e-08
7.9494e-08
6.3474e-08
1.85853e-09
0.00243926
0.00308324
4.14401e-07
0.00256699
1.88014e-09
0.00258518
-1.28792
4.70062e-05
0.00195303
1.67876e-08
-6.44054e-11
-1.02749e-09
-6.67862e-10
5.26364e-10
-0.00141327
-1.0951e-07
0.00144542
-0.0108328
-7.85313e-10
-5.81838e-05
1.49203e-05
2.50834e-10
-6.71675e-09
0.00379305
0.00589488
8.1795e-09
2.74518e-05
2.4603e-08
-1.8768e-10
-1.73236e-05
8.87392e-08
-0.00376079
0.00018847
0.0257096
0.0327928
-2.38914e-07
7.2672e-05
9.0397e-11
-0.00620012
0.00122842
-1.64618e-09
2.64451e-07
0.00458893
-6.94476e-10
-8.55531e-05
-1.35178e-09
-0.0010112
-0.000372755
-1.5517e-08
9.24463e-09
-2.74453e-09
5.00963e-10
-1.75887e-08
-0.0242087
4.38541e-09
-1.20431e-09
3.58329e-07
-6.77476e-10
0.000382659
8.65476e-05
-1.65546e-10
-2.7842e-10
-8.41847e-10
0.00275735
1.30422e-08
5.10085e-12
0.00523863
-0.751404
3.51611e-10
-4.3644e-10
-4.62097e-05
-0.00509407
-1.02773e-11
-7.64238e-09
-3.12856e-09
0.0010761
-5.91363e-10
0.000133928
-5.90662e-05
4.10769e-06
0.0266538
0.0436012
-1.1737e-09
-0.38846
3.87942e-10
0.00206095
-2.78808e-06
2.13926e-07
-8.05757e-10
-1.8179e-09
0.000406436
-2.10578e-09
-0.00489658
-4.76307e-11
-1.90239e-05
-0.000366414
0.00108339
-0.00538638
-2.30078e-09
-0.00445671
2.13259e-13
4.52983e-09
3.56482e-07
-0.0798882
6.98807e-11
-0.0354676
-8.29244e-07
2.07161e-08
1.77451e-07
6.54929e-12
-7.20394e-08
9.03555e-10
-5.30817e-10
1.07694e-11
0.00052541
5.28522e-10
-5.53238e-05
3.52394e-08
-0.00427034
2.61088e-10
0.0235637
-1.10059e-09
0.00186336
5.97768e-07
-0.00232202
6.28438e-07
0.000104107
8.63026e-08
1.54799e-07
-1.73087e-08
2.23221e-07
-0.000639033
4.83309e-09
5.30735e-10
-8.35436e-10
0.00873205
-1.30776e-05
-1.36456e-05
-2.58762e-09
2.70507e-11
-0.00113797
7.38375e-05
0.00156189
-0.000757659
0.00157424
9.03414e-05
0.00487267
-4.04628e-10
-4.33325e-12
0.00384246
-2.0873e-06
-0.00505486
-2.43628e-05
8.97292e-10
-7.00926e-11
0.000112894
-9.55468e-10
-0.00064214
3.42588e-08
-4.71313e-06
-1.99592e-09
0.00261925
-6.58992e-11
0.183944
-1.64163e-09
-1.89558e-09
-0.000170285
0.0043937
-0.000748752
0.000235462
0.000492951
-0.00526417
-4.68695e-05
0.000317054
-2.45701e-05
4.77296e-07
-0.00391137
3.53581e-09
-1.16446e-09
0.000151054
0.000927911
-1.61874e-05
2.2883e-08
-1.0814e-09
8.84494e-05
1.06235e-08
-0.00832497
0.00471982
9.96444e-11
9.63587e-10
-9.66989e-10
-7.46151e-07
7.43905
1.8412e-08
0.00385421
0.0356671
0.00133246
-4.79387e-07
1.55369e-09
2.3748e-09
-0.227897
4.87653e-11
-2.3285
7.96823e-06
1.14949e-07
2.70287e-10
-2.79775e-10
-2.72562e-05
-4.31557e-05
2.07007
0.0417984
-0.00033308
-5.67288e-10
-6.16348e-11
-4.81949e-09
-0.00271655
0.000201071
-1.36982
-2.63217e-09
-0.00268387
-0.0025797
0.000160371
8.24378e-08
1.69968e-08
1.19133e-08
4.49461e-09
0.00149982
2.47873e-05
-1.31657e-09
0.000325784
1.43286
3.02697e-07
7.30183e-06
-5.71747e-05
-2.73265e-10
-1.30024
1.22435e-08
1.27212e-06
1.79352e-08
-5.27757e-06
-4.58845e-06
-6.82768e-10
0.00103591
3.64063e-07
6.04776e-05
8.27123e-10
3.25903e-10
-1.54459e-09
-0.000930433
-0.00329376
3.25406e-06
-0.0039568
9.78929e-06
2.69588e-09
1.44183e-08
1.23613e-08
0.0086045
-0.00212913
-0.000739122
0.0476846
6.37202e-10
4.5688e-08
-0.00130208
-1.37481e-08
-5.54441e-06
-0.15172
-1.27317e-05
2.44346e-08
0.00115744
0.000838301
0.00321968
3.8263e-08
-0.00541072
-2.10522e-08
-0.31959
-0.00045919
9.09607e-09
4.30648e-08
0.00108088
-0.00256066
8.18672e-05
-6.67267e-10
0.000123228
0.000683687
7.46611e-10
5.34506e-05
-5.05985e-10
9.76671e-10
0.0692775
6.81189e-10
-1.91161e-07
2.64458e-06
-0.00256749
4.99595e-10
2.02097e-10
-1.41341e-09
-0.000583309
3.46999e-08
0.00371512
0.00596505
0.00427392
0.248694
-1.29045e-09
4.72046e-09
2.51664e-09
-2.64359e-11
-8.26571e-05
2.58018e-07
-0.00341774
1.02302e-05
-5.37943e-09
5.80957e-05
-4.7229e-10
-8.3515e-10
-1.40488e-09
-0.391997
-0.00108202
-9.73086e-05
-4.60534e-10
6.02647e-07
0.00251967
-1.72348e-11
-6.96554e-10
1.45076e-08
0.00963109
0.00248262
1.71806e-08
0.000211123
-1.55769e-06
4.08157e-08
3.54417e-08
8.66322e-09
0.000393406
-0.000190162
8.10858e-07
-0.203168
-2.73725
4.89094e-10
-3.27288e-09
4.25101e-05
3.4493e-10
2.89081e-05
4.3738e-08
0.00011153
-4.09331e-09
0.00480322
0.00022301
1.88895e-08
2.35402e-10
6.85754e-08
-6.38891e-10
0.00177644
-7.072e-10
1.93346e-09
-8.70215e-10
-0.00995042
-5.6196e-11
-0.0102562
8.92432e-10
-1.03033e-10
-0.120179
3.03754e-06
-5.05257e-10
0.00374135
0.0014435
0.182052
2.83612e-10
-0.00237554
8.60083e-09
1.04204e-10
6.36066e-09
2.14774e-06
3.21345e-08
-6.59766e-05
-5.44087e-05
-7.65641e-08
-2.12328e-09
-1.16471e-09
-0.00279437
3.91189e-05
0.000280478
-1.036
-3.44303e-10
0.00336209
-7.93671e-05
1.59373e-07
-4.21582e-11
5.69308e-05
-0.00309963
-8.47422e-09
-0.0283656
-0.00754429
-0.00448796
-4.04292e-05
1.46014e-08
-1.26936e-07
8.99895e-08
1.00002e-09
3.07312e-09
6.82942e-05
-7.61471e-11
-2.93567e-10
1.24077e-09
0.00386241
0.0008205
6.36479e-05
-0.0300582
5.96106e-07
3.38237e-10
-0.00382508
-0.377706
0.000950744
-7.2704e-10
-8.21941e-09
1.0949e-10
3.37338e-07
1.26884e-07
0.000679807
-2.51867e-09
-5.61922e-06
-0.00286668
-1.4804e-07
1.15983e-07
-0.00121142
0.000133834
2.00353e-11
-0.00127766
-1.64546e-09
0.000693255
-4.55058e-10
0.003701
-0.00102201
-0.00143229
4.68872e-05
2.56218e-09
-2.96069e-09
-1.56583e-11
-9.58798e-10
-1.96184e-09
-0.107894
0.00503517
3.669e-09
-0.0208323
0.000231685
8.77726e-08
1.46204e-08
-5.41548
2.03065e-07
-0.000323884
-0.00245856
0.00238625
0.00060033
1.97887e-10
-2.0042e-10
0.00404084
-5.10956e-10
8.08624e-10
2.78055e-07
0.00652871
4.13281e-08
-2.42903e-11
-0.00233306
0.003057
-0.00217348
-0.00213314
0.00534391
-5.99039e-10
-2.75936e-09
-0.0026294
-1.05685e-09
8.71652e-09
-5.60921e-12
0.0437445
-0.0257076
-1.84052e-08
2.20756e-07
0.00215791
3.76133e-10
-4.87068e-05
-0.0577055
-8.58397e-12
1.17397e-08
3.16391e-05
1.72136e-06
-0.000106274
0.00255277
-0.00642197
-6.17633e-10
-1.11918e-10
4.86062e-10
-0.000687204
3.05594e-10
0.000706917
7.71197e-10
0.0227126
-5.15915e-10
-1.9946e-08
2.38684e-08
8.71403e-06
-0.0127876
-0.00194494
0.442566
-9.62405e-06
3.55904e-10
-1.88961e-06
-3.02147e-09
-3.19368e-05
-0.00747132
-1.03911e-09
8.28764e-05
-1.18881e-09
9.07534e-11
-2.82993e-09
0.00112843
5.01207e-05
-1.3743e-10
2.70703e-08
4.11515e-05
-6.38558e-09
0.00230393
0.0926075
0.000163222
0.270606
3.49735e-08
4.05089e-05
-2.30292e-09
-0.00103495
1.02632e-07
4.8238e-09
-0.00210574
1.96853e-07
0.0134285
1.05112e-09
-0.00848278
-1.34184e-05
2.44828e-13
-0.00330727
0.000749455
9.42152e-06
6.18122e-05
0.00891467
0.00130263
2.78189e-07
-0.09371
1.51213e-10
-4.66097e-09
0.00520516
0.00166855
4.78654e-07
-2.00071e-11
-1.28042e-09
9.77145e-10
-2.66754e-09
2.06344e-10
0.000277419
-0.000166554
3.56673e-10
-0.1696
8.1749e-07
5.64801e-07
-0.00450772
-0.00104831
-4.16193e-10
3.19751e-10
0.000217291
0.000104052
-1.11194e-09
0.523751
-2.01659e-09
-1.92228e-10
2.45297e-07
-1.57929e-09
-0.498689
-5.30265e-10
-0.00414438
-0.00263701
1.06529e-08
9.47239e-06
3.21851e-08
4.68811e-05
1.30181e-10
5.44398e-07
0.00124786
1.17804
4.17929e-11
-0.00156735
3.95149e-07
0.00105237
0.015337
-2.50344e-09
-2.46045e-05
-0.00492298
-0.00758723
0.0545869
-4.22211e-10
1.02307e-08
-0.014433
-0.00732838
7.26474e-08
-4.4424e-06
-0.203837
4.08479e-05
6.49718e-08
0.000664462
-1.87256e-07
0.0111712
0.467723
2.7378e-09
-2.68383e-08
-1.20367e-09
-0.000120271
2.80971e-08
1.9293e-08
-0.00451423
-2.23686e-10
1.09754e-09
-1.69987e-10
0.000122963
-2.03454e-11
0.0026321
4.40646e-10
-4.64905e-05
6.26675e-08
0.000113723
-2.97991e-08
0.000519332
4.53979e-08
0.00489976
-0.00123888
0.263877
1.20325e-08
-0.00368298
1.14382e-07
0.0205588
1.03442e-07
9.28609e-06
-1.40753e-10
9.54513e-08
-6.19173e-10
0.00224208
-0.00217532
-5.06935e-09
1.21821e-13
1.16094e-08
-0.000463021
-5.74167e-10
2.0581e-07
0.0218403
-4.25649e-09
5.57772e-07
-0.00465841
0.273454
2.58848e-07
0.620757
-8.52144e-11
-6.55273e-10
-6.01829e-11
1.05474e-06
5.734e-10
1.04445e-11
2.01146e-09
1.38338e-10
-3.41004e-10
-0.000204845
4.1194e-08
0.00120036
7.39491e-05
-3.93869e-09
-0.00179617
1.25325e-09
9.7906e-08
0.00372086
1.42931
-0.0073482
-1.17919e-09
4.89926e-07
-2.89775e-10
-7.94026e-10
0.00613491
-2.12722e-06
-0.00262074
-1.13619e-09
-2.45704e-09
1.46393e-11
2.52579e-08
-0.184943
-0.000487306
-3.07391e-09
7.40818e-12
-1.54089e-08
0.155627
-0.00600414
-1.45597e-09
0.482232
-0.866823
0.337703
-2.17743e-06
-5.66452e-05
0.00050198
-1.88619e-09
-3.03565e-09
-1.93674e-11
-6.91198e-10
-0.101306
0.000922485
-0.000709817
2.1444e-07
-0.00405377
-0.0184723
2.88193e-07
-9.80155e-10
-6.50289e-12
0.00209113
3.11433e-07
6.45001e-07
1.48769e-07
-5.27263e-09
9.40104e-06
1.17342e-07
-6.83352e-09
-7.06037e-09
-0.00251328
0.000416744
-1.34854e-09
-0.00343524
-5.84711e-09
8.27589e-10
-2.3275e-07
0.000759754
6.65943e-10
-0.00318931
1.89908e-06
8.18381e-08
-1.50781e-09
1.30333e-10
-0.0406762
2.15096e-09
0.000102795
-0.00545394
-0.000431852
1.79565e-09
-9.91143e-05
-8.47095e-09
-1.95274e-09
3.92102e-10
1.07268e-08
1.67765e-09
9.27805e-05
-2.16439e-09
0.355192
4.32555e-08
1.47724e-10
1.8519e-08
0.000640816
3.85279e-07
1.01131e-07
1.62375e-07
2.59338e-07
-1.03736e-09
-7.71781e-10
8.97533e-06
-2.90607e-09
-0.502872
3.01464e-11
-0.000138853
-0.00869029
7.38123e-05
-1.71033e-09
-0.0109662
0.00236687
-0.000430385
0.00187001
-0.00466484
0.00130852
-1.02374e-09
0.00486355
3.06631e-08
4.24266e-08
-0.00370462
0.00167562
-1.08545e-06
-1.89885
-1.43416e-09
1.91534e-09
-0.0132008
-0.00272984
-0.00131312
-0.0605331
4.29689e-05
1.93905e-07
-0.000401621
1.02795e-08
-0.050478
-2.30866e-11
2.21738e-05
0.0653169
3.53538e-08
2.13748e-05
-6.98619e-10
2.37254e-11
-0.00018059
-2.49891e-10
-0.00146056
2.12313e-08
-1.50476e-09
0.106059
-0.000286785
-1.40576e-09
0.00113288
2.44802e-08
-1.806e-09
-4.32694e-05
-0.000687905
-7.46979e-09
-2.39401e-11
2.33515e-09
0.000548562
2.22967e-08
0.00335544
-0.000676526
-0.00222149
-0.00182061
-1.60122e-10
-1.334e-05
-3.93102e-09
0.000447614
8.72604e-10
-0.036987
-0.00397073
0.0128566
0.00108444
7.60387e-11
-1.16182e-09
5.37505e-10
7.77122e-11
2.40582e-11
4.13348e-08
-0.00182465
1.25917e-07
5.76064e-06
-0.0484672
-0.00114705
-0.00460883
0.00111335
-2.84095e-09
-3.40412e-10
1.07528e-06
5.01484e-08
-1.00412e-05
-1.33835e-06
-1.35591e-09
-0.00216389
0.00139595
3.87425e-07
3.07049e-09
2.72265e-09
0.00136722
1.51397e-05
-3.7879e-10
-2.53399e-09
-3.07059e-10
-7.03519e-10
7.95703e-10
-8.63543e-10
-0.00351564
-7.78607e-10
0.0426928
1.12841e-06
-3.36643e-09
-4.96345e-08
3.57387e-08
1.09812e-09
0.000100009
1.04887e-09
-4.16361e-11
-8.78013e-05
-0.154432
-2.66245e-10
0.000115497
1.63898e-08
0.000265393
-0.0036558
-6.26448e-10
-7.06714e-05
6.98068e-10
0.0147891
2.27845e-07
0.000676597
3.36852
0.0500587
-0.00337844
-0.802977
6.32447e-05
-4.86948
0.00496331
-6.22476e-08
-0.00349719
-2.50311e-09
-0.00700709
-0.000283218
0.000137789
1.31976e-10
5.87398e-09
-1.8953e-09
0.00521513
-0.0074803
-1.24908e-09
-9.34822e-10
2.59368e-11
-0.000262114
0.00382288
-6.07971e-09
-1.9073e-05
-0.00235826
3.69611e-10
0.0019246
-2.9295e-09
-3.25328e-09
-1.09695e-09
1.25529e-07
0.00736999
0.00499344
-0.0489508
-0.0074841
-0.00201033
-0.000136741
-0.769183
0.0045422
-0.665044
0.00569715
-1.92483e-09
-6.00065e-05
-2.39301e-11
2.05004e-09
5.42869e-10
-7.04337e-05
1.08637e-09
-1.42895e-08
0.0390339
3.95686e-08
4.37072e-08
5.4094e-08
5.56009e-07
-3.49061e-10
-0.0023837
6.3343e-09
-1.19497e-09
0.00056861
-1.17712e-06
0.00271432
-3.71303e-05
3.72418e-08
3.42783e-06
0.0131523
0.00174646
-1.5794e-08
-0.000564331
1.16164e-08
-0.000428321
3.73656e-10
-1.3147e-08
4.0792e-08
0.00403032
4.74433e-07
-0.698803
2.60934e-06
1.35046
0.00426527
-0.000877642
0.00210312
5.61613e-10
-1.34477e-09
0.000258079
1.09828e-05
0.000974336
-0.000661613
-9.25041e-10
2.94071e-10
6.42171e-10
2.27036e-09
-2.26468e-05
-0.00217771
0.00018481
-8.40403e-10
-2.03883e-09
-2.30693e-08
-1.22124e-05
0.168668
-1.26811e-10
-1.87782e-05
3.38151e-06
-2.19584e-10
0.000159788
-0.000276092
-0.000870539
0.028611
4.84012e-11
-9.18816e-06
-9.17727e-05
-5.52352e-05
-5.72949e-07
0.001581
0.000586443
1.68967e-09
-5.74647e-10
-8.69566e-10
3.79232e-10
-1.98338e-08
0.0055423
-4.08524e-10
-2.44962e-11
-1.68281e-06
3.97814e-08
0.00117217
8.42282e-09
6.19267e-08
-2.22403e-05
0.00041059
-1.30147e-08
-0.000175431
3.09246e-09
1.34248e-09
0.000513183
2.60666e-05
-4.66709e-11
8.21482e-09
1.62349e-06
0.00234271
-3.29627e-06
1.46197e-10
0.000445481
-5.24843e-05
2.56445e-08
0.000440632
0.00116647
3.43909e-07
-1.13859e-08
-6.76585e-09
0.000687058
0.0824325
-2.05504e-06
-0.000142039
-5.59146e-10
-6.22324e-06
6.41511e-11
3.16042e-08
0.00126676
5.54113e-08
-9.63186e-05
-7.97681e-10
-0.176283
1.91829e-05
-8.76488e-11
0.00527132
-0.000164134
4.00201e-09
9.65962e-06
-6.93425e-11
8.01199e-06
-0.56287
0.000720406
-0.334982
-0.000173116
0.186066
-0.0054917
2.30494e-05
1.78115e-09
8.41882e-10
2.05172e-06
0.000292213
-0.00281664
-7.93736e-06
1.76191e-08
-1.01402e-08
0.000953902
2.42915e-05
-0.00607573
2.31964e-09
-2.39717e-09
0.00202226
-0.000653159
-5.47283e-09
6.72334e-09
3.17648e-10
1.13172e-06
9.80386e-05
1.4589e-08
1.04754e-07
3.01422e-06
5.74152e-06
-0.00213796
-2.28284e-09
3.31599e-08
0.000542695
-4.72453e-10
1.94812e-05
-2.51837e-10
2.94778e-07
-0.000567477
1.08057e-07
-2.12129e-05
2.27248e-10
3.47842e-09
-0.000147321
-5.36761e-09
2.08068e-09
1.12931e-10
-2.63579e-06
-0.00114033
9.43196e-08
0.000145189
-4.15859e-11
-1.12809e-09
2.18517e-06
0.000890529
-4.51256e-05
2.9296e-07
0.00238687
6.88147e-08
9.6649e-08
6.38617e-08
0.969187
1.61931e-08
2.61623e-10
1.27951e-09
0.00908233
-1.27562e-06
7.69146e-06
-1.5578e-10
-9.25007e-10
-0.00158692
2.84645e-08
9.12759e-10
-0.00182734
-1.31659e-06
-2.71036e-10
-3.41919e-10
-2.55643e-06
0.280065
0.000261123
-3.03675e-10
1.40918e-06
1.18475e-07
8.19328e-11
2.80305e-10
5.29844e-07
-1.69048e-06
-0.000188599
-1.37089e-09
7.4396e-08
9.43279e-06
0.000597831
4.63289e-08
-0.00737814
-0.00105225
1.44978e-07
0.00101865
0.0915841
-0.0129501
4.76533e-07
7.91235e-07
-3.25376e-09
1.14363e-09
-1.08814e-07
-0.00121271
0.0226803
3.06468e-09
-6.40443e-05
-7.34448e-09
-4.43359e-06
-0.000638707
3.99772e-07
4.60803e-09
-0.0829221
-1.39597e-05
4.95918e-10
1.32798e-09
9.10181e-06
-2.35525e-10
-3.89541e-06
-4.01536e-05
0.0208044
-7.79104e-07
-1.54772e-10
-1.13985e-09
-0.000159112
-3.21988e-06
0.000528088
3.26939e-07
0.015454
2.8124e-06
-0.00171014
5.85398e-05
-0.00182748
0.00502202
2.5457e-05
-0.0163005
0.00178304
6.50867e-08
0.0181527
2.09471e-07
0.000388173
-9.75824e-09
3.26903e-10
5.40942e-05
6.88296e-10
-1.76156e-05
-0.724244
1.93611e-05
8.35058e-08
0.00529865
3.24492e-07
6.38871e-08
-0.00203495
-1.12866e-09
0.402697
-0.00639381
7.83943e-11
0.000660324
-0.00588605
-0.00400225
1.68171e-06
-0.00173461
-7.54938e-05
4.83566e-13
-0.000112569
5.64395e-07
0.000670322
0.000361021
-9.46076e-06
-2.69305e-07
8.54191e-08
-2.98587e-05
0.000155653
0.464842
-0.0143064
1.16215e-07
-2.2162e-09
-2.6494e-08
-0.00318734
6.12503e-07
-3.94746e-09
2.45368e-07
0.317693
-7.1691e-06
-3.16107e-10
3.25111e-07
-2.00062e-09
-9.83145e-10
2.54775e-07
0.000792057
-2.14851e-11
0.000921859
-2.22442e-11
5.24824e-11
9.40706e-05
4.56175e-07
0.000918629
1.89415e-10
-7.84898e-07
0.00444877
6.23753e-07
5.64246e-10
0.00026012
0.00113031
2.20716e-07
0.00833472
3.93312e-08
1.03671e-06
0.000615412
5.26974e-07
-0.757825
-0.0204052
-2.03871e-06
-9.34283e-07
-1.08216e-06
8.42219e-10
1.04029e-09
-2.14947e-09
-2.22699e-07
0.0222753
-0.000171462
-1.47076e-05
-0.000130071
-1.27195e-09
6.24762e-10
3.4037e-08
-0.0011494
3.96915e-08
3.26025e-06
3.31653e-08
1.29197e-09
0.00172397
-1.06125e-10
-4.95911e-10
-0.0658826
1.59975e-07
-4.72002e-09
-2.03741e-09
1.78583e-09
-2.07746e-08
0.00129462
-0.000302493
1.28788e-09
-5.10788e-10
4.7175e-07
-1.26488e-08
1.16826e-07
-0.00172049
0.760886
-0.00139005
2.24089e-10
0.000100135
-0.000760382
-0.00907917
0.232367
0.797289
8.60563e-08
-1.4593e-11
-0.000552277
-3.1007e-07
0.00128939
1.2476e-08
8.60678e-09
1.76717e-08
-7.86217e-09
0.000308948
0.00153339
6.86628e-08
-1.44642e-06
-0.0078035
-2.14654e-09
0.1243
-0.00428924
1.80157e-08
-0.000124065
-0.0184543
-6.86339e-10
0.00784153
0.00108479
-1.18745e-08
3.39485e-11
0.00777065
-8.03197e-10
-6.19829e-10
2.62252e-08
0.580951
-0.00020757
1.98856e-09
5.36236e-07
-4.75575e-09
2.77099e-05
-0.00624019
5.41681e-10
3.30495e-10
0.00108082
0.00150665
0.000778543
-1.37551e-09
1.66362e-09
6.82439e-09
0.000115227
-8.11718e-10
1.01122e-07
-1.46056e-09
2.61682e-07
0.000168716
2.59528e-05
1.86663e-09
0.00171175
3.82832e-06
-1.29006e-09
-1.12361e-06
-4.92085e-06
-9.90841e-10
0.000348937
-1.27404e-05
0.00135691
-6.41956e-05
4.2829e-07
0.00196099
-0.000480332
0.0010098
0.000543272
4.04034e-06
-0.000286893
5.41817e-07
-0.00648457
-0.000332242
0.000935848
6.97194e-07
-0.00492932
0.00135979
-1.77875e-09
2.04519e-08
-5.84333e-05
0.00117997
0.000128785
0.00367008
-4.0679e-07
1.98636e-09
-2.70759e-06
-2.22074e-10
5.9731e-10
-5.86325e-08
-2.64712e-06
-0.000133229
-1.6553e-06
-0.00418891
-4.32869e-09
1.03821e-07
-3.18153e-10
-1.09947e-09
-8.43988e-05
5.4079e-08
-5.40407e-06
3.47642e-09
-5.92204e-10
0.027778
-2.38827e-10
-1.93233e-09
-8.9005e-05
6.96375e-08
0.00105835
-0.00105951
-0.0174609
9.66131e-07
-4.38073e-09
8.08941e-08
-0.000166914
-5.41421e-09
-0.0119761
0.00104093
1.96044e-08
9.35786e-10
0.00122527
0.000389589
0.00229066
-0.00176697
-6.84173e-10
-1.97675e-09
4.0992e-08
-0.449574
9.02317e-08
-1.27152e-09
1.39461e-05
3.18704e-07
-0.00154737
0.00049918
4.76383
0.000223243
1.9553e-08
-0.569744
-6.16568e-09
6.30094e-08
-1.25441e-09
7.64872e-08
6.98314e-05
-3.50564e-06
0.0494948
-2.90757e-09
8.98526e-08
7.37518e-08
6.2846e-09
-0.00254351
1.40749e-07
2.01859e-07
0.106052
-1.72152
3.27302e-10
1.94083e-10
2.21362e-07
-0.000450362
-6.93894e-10
-2.29371e-05
3.08354e-07
2.79774e-07
-0.00160272
0.00578238
-1.85438e-08
0.000877795
-1.72002e-08
-0.000270723
4.89169e-07
5.81531e-06
-0.000445111
2.46629e-08
0.0309014
-0.000434821
2.03524e-09
3.97273e-07
2.96388e-05
2.25084e-09
-1.32203e-05
5.29728e-07
0.000849289
4.56384e-08
-0.238893
6.21792e-10
-0.000556101
5.40969e-07
2.14713e-09
0.000764656
2.04769e-05
-1.94552e-09
-3.29529e-05
-5.52109e-10
3.52406e-09
-3.71104e-10
3.67626e-08
3.30333e-08
2.04817e-05
8.97554e-09
3.02746e-08
-0.000173151
-0.000491128
4.06908e-06
-9.28814e-06
-1.07317e-09
-3.39156e-10
-8.85997e-10
-0.00128574
-2.39027e-10
1.92108e-08
-0.00100572
-0.000142732
-3.96642e-09
-4.605e-10
-1.32305e-09
0.000258416
-7.5962e-10
1.33804e-08
0.0311624
1.56592e-07
-0.0934464
-0.00253899
1.9755e-08
-0.00284444
-0.0889188
3.22999e-11
-5.57645e-10
0.00169564
-1.68221e-06
-1.8289e-06
3.78239e-10
3.76532e-10
4.08988e-10
1.01616e-08
0.000714085
0.00102323
8.7172e-09
-0.000211944
-1.15088e-06
1.46675e-07
1.76592e-09
4.61915e-12
0.000372328
-1.25767e-08
-2.56931e-09
1.02743
7.25635
-6.18003e-11
-8.27972e-10
-8.85714e-11
0.00128744
5.61721e-10
-1.62082e-09
-0.000302505
0.000358287
-3.39244e-09
-7.69516e-05
1.55144e-09
-0.010812
-0.0028002
-1.49539e-11
-0.00499803
8.70615e-08
2.62294e-05
-1.41688e-09
0.0465283
-8.44528e-05
0.000122966
0.000366838
0.000195891
-5.47648e-10
-0.000284113
1.406e-09
2.15816e-10
0.00170575
-5.96818e-09
0.000722022
-1.5965e-05
-14.5396
9.34598e-10
0.00216614
0.000320075
8.59463e-09
5.00431e-10
0.0158467
0.00130154
1.01747e-07
-1.89383e-11
3.87381e-07
0.000760817
8.84917e-08
-1.64069e-10
0.000444118
2.03934e-08
1.83676e-07
1.62232e-08
0.00142142
0.00433903
2.93665e-11
0.000337891
9.4299e-05
-0.000650477
5.34419e-12
1.80305e-08
-0.00327022
-0.00182294
-0.00717965
-2.07251e-10
2.74733e-10
1.02948e-09
3.12483
0.00129401
0.00133048
-0.00408765
0.00538791
7.70163e-10
8.1546e-10
-3.42115e-09
0.000335676
7.93598e-11
0.000801209
-0.00648804
3.21664e-09
0.0001842
3.52779e-06
0.000282403
0.00944812
3.79132e-11
-8.36685e-10
-0.0166437
-0.00837708
2.21899e-09
2.26168e-08
0.00119296
0.129405
4.71517e-08
-0.118189
-4.50782e-09
2.24808e-08
0.00298586
-0.00788731
1.04134e-10
2.75081e-08