/*--------------------------------*- C++ -*----------------------------------*\
| =========                 |                                                 |
| \\      /  F ield         | OpenFOAM: The Open Source CFD Toolbox           |
|  \\    /   O peration     | Version:  v2012                                 |
|   \\  /    A nd           | Website:  www.openfoam.com                      |
|    \\/     M anipulation  |                                                 |
\*---------------------------------------------------------------------------*/
FoamFile
{
    version     2.0;
    format      ascii;
    class       surfaceScalarField;
    location    "300";
    object      ddtCorrDdt0(phi);
}
// * * * * * * * * * * * * * * * * * * * * * * * * * * * * * * * * * * * * * //

dimensions      [0 3 -2 0 0 0 0];
oriented        oriented;


internalField   nonuniform List<scalar> 
21991
(
6.55638e-06
1.1137e-05
-1.76961e-05
3.25776e-09
-2.49094e-09
-8.93492e-10
3.89951e-06
-2.94959e-06
-9.51972e-07
2.57783e-07
-4.63652e-07
2.05743e-07
-1.25387e-07
1.7714e-07
-5.18956e-08
-1.4908e-06
8.84687e-07
6.05516e-07
8.25149e-08
-1.13712e-07
3.04109e-08
2.5728e-08
2.75225e-10
-2.4731e-08
2.25601e-06
-5.34956e-06
3.09539e-06
2.03247e-09
-4.03172e-09
1.88301e-09
-5.53636e-05
6.81194e-05
-1.27858e-05
3.74177e-06
-4.68399e-06
9.38378e-07
-4.8891e-08
2.30152e-08
2.61873e-08
8.37685e-08
-5.33568e-07
4.48138e-07
-7.20706e-06
3.03152e-06
4.17624e-06
-2.4798e-05
1.53823e-05
9.41062e-06
-6.24125e-08
-6.30802e-08
-2.62701e-07
4.42429e-07
-1.80269e-07
-2.08124e-05
2.08144e-05
-1.58485e-06
7.58589e-08
1.50892e-06
-6.47018e-09
6.03498e-09
-6.57872e-08
-5.87599e-09
7.09313e-08
6.05213e-08
-7.30633e-08
1.38628e-08
-3.07892e-08
9.79945e-08
-6.73525e-08
-7.64757e-06
-2.14346e-06
9.79215e-06
-1.0052e-07
6.96089e-08
-8.02413e-07
-2.10061e-07
1.01234e-06
-1.99151e-07
-1.73858e-08
2.16217e-07
-1.92461e-05
-3.71559e-06
2.29587e-05
1.21856e-07
-6.316e-08
-5.85018e-08
5.88349e-09
-2.70143e-08
2.09071e-08
-8.53868e-08
-1.49097e-09
8.80106e-08
-1.74572e-06
1.6048e-07
-6.30589e-07
5.30748e-07
9.93626e-08
6.526e-06
-4.48813e-06
-2.03608e-06
1.13479e-07
-3.13338e-08
-5.67565e-05
3.23047e-05
2.44524e-05
-7.09393e-11
1.74444e-08
-1.79112e-08
-8.07395e-05
9.57487e-05
-1.50087e-05
2.2929e-06
-3.0796e-06
7.85708e-07
3.9563e-06
-5.81326e-08
4.36787e-06
2.15728e-06
-9.3e-07
1.1383e-06
-2.05667e-07
-3.00836e-09
2.08936e-08
-1.77478e-08
1.37606e-07
3.89402e-08
-1.5235e-08
-1.95851e-08
3.53558e-08
4.76267e-06
-2.02983e-05
1.55348e-05
-2.77192e-08
2.02956e-08
7.7595e-09
-8.4244e-08
1.82709e-08
1.47876e-07
9.66163e-07
-1.11521e-06
-4.15807e-08
4.12889e-08
1.44951e-09
-3.2157e-09
5.501e-09
-2.46843e-09
4.19821e-09
1.17294e-08
-1.61734e-08
-2.45071e-07
-1.7735e-08
2.62511e-07
-3.26573e-06
-1.35475e-05
1.68106e-05
-3.15341e-05
9.03042e-06
2.2501e-05
-3.84188e-05
2.68711e-05
1.15497e-05
-6.32243e-07
-2.13081e-05
2.19414e-05
7.50103e-08
-8.33234e-08
7.6193e-09
1.12114e-08
-2.57089e-08
-3.15828e-05
2.95024e-05
2.08102e-06
-1.04585e-08
-3.11569e-08
1.69819e-08
9.1067e-09
-2.59201e-08
-3.67372e-05
5.20052e-06
2.1683e-08
-4.51403e-09
-1.8704e-08
1.96802e-08
-1.24819e-09
-7.9749e-09
9.15406e-10
-6.70702e-08
1.1247e-07
-4.58487e-08
6.4534e-09
-4.77647e-09
-1.73715e-09
2.32713e-05
-2.24957e-05
-7.73323e-07
3.01358e-08
-5.14267e-08
2.17582e-08
-8.40217e-07
3.71995e-08
-0.000112829
4.88311e-05
6.39435e-05
-2.76098e-05
1.88372e-05
8.77051e-06
7.67761e-08
7.05188e-08
-1.46917e-07
5.77175e-06
1.75008e-05
2.81207e-05
-1.73788e-05
-1.07489e-05
1.85629e-09
1.39296e-09
-2.72012e-07
2.78526e-08
2.44309e-07
-8.84199e-09
1.47669e-08
-5.31383e-09
6.39397e-06
-1.93979e-05
1.30039e-05
-1.73078e-08
-1.69881e-09
-2.75234e-08
1.48198e-08
1.19281e-08
1.43157e-07
-6.67102e-08
-1.65192e-08
1.51903e-08
1.18937e-09
1.15595e-05
-6.01857e-06
-5.54817e-06
-3.48014e-09
-5.00695e-10
3.99503e-09
1.57094e-07
4.03502e-08
-1.97284e-07
-2.30004e-08
1.62976e-08
6.67059e-09
2.96243e-09
-2.02495e-07
-1.42185e-07
-2.52677e-07
3.94821e-07
1.96055e-08
2.05637e-08
-4.11359e-08
4.75246e-07
-2.00915e-06
1.53247e-06
4.62048e-08
-2.56513e-08
-2.02246e-08
3.83741e-06
-3.69048e-06
5.97212e-06
2.21447e-05
-1.98799e-05
-4.15837e-08
-4.33177e-08
1.93566e-08
-8.74197e-08
6.78485e-08
-0.000139279
8.39194e-05
-1.63219e-05
-4.98696e-06
-2.0481e-05
1.95016e-05
9.81661e-07
-1.53999e-08
-1.06225e-09
4.4147e-07
-6.65754e-07
2.22719e-07
2.67848e-05
-1.70922e-05
-9.69114e-06
-2.20601e-05
1.58046e-06
-4.12137e-07
4.15239e-06
3.54264e-06
-6.80807e-06
3.34512e-10
2.14831e-08
-2.24403e-08
3.47263e-08
-2.88773e-08
8.1598e-09
1.54134e-08
-2.35403e-08
1.89484e-05
-2.11364e-05
2.18853e-06
1.36324e-06
-8.90834e-07
-1.19826e-05
8.53741e-06
2.31105e-05
-4.16199e-06
1.10642e-05
-4.67112e-06
-9.08636e-06
-8.05728e-06
1.71443e-05
-4.19121e-07
2.76323e-07
-1.44407e-08
-4.14188e-10
1.45627e-08
1.43731e-07
-4.06747e-07
-2.06633e-05
-2.25052e-06
2.2901e-05
-7.16574e-09
-1.5907e-08
-1.51079e-07
5.86906e-08
9.21044e-08
-1.6905e-07
1.45677e-07
2.30351e-08
8.67611e-08
-1.16636e-08
-1.68447e-08
1.671e-08
-1.02206e-05
-1.19643e-05
2.21845e-05
5.2486e-07
-9.39132e-08
9.47268e-08
-5.0734e-10
-2.65021e-07
1.01494e-07
1.64508e-07
-1.88223e-07
-7.46523e-08
-8.99889e-06
-3.31844e-06
1.23175e-05
-2.00007e-06
-1.50766e-05
1.70776e-05
-4.14813e-05
2.36937e-05
1.78267e-05
-2.87834e-05
1.19168e-05
1.68646e-05
-7.78301e-08
-9.14212e-08
-1.96111e-08
1.67743e-08
0.000142282
8.58856e-05
-0.000228152
1.99125e-08
-1.09362e-07
8.92344e-08
-5.84878e-07
-4.74849e-08
1.53684e-08
-2.06491e-08
5.34133e-09
2.16273e-05
-1.67229e-05
-4.90711e-06
-3.92774e-09
4.95816e-10
3.37134e-06
3.29337e-05
-8.51868e-06
-2.4411e-05
4.64846e-09
1.7864e-09
1.80779e-05
8.70757e-06
1.87515e-08
-1.83877e-08
2.00847e-05
1.62591e-05
-3.6347e-05
7.08149e-06
-7.08179e-06
4.05917e-06
-1.80371e-06
-2.07188e-05
2.07197e-05
-8.35976e-07
3.12839e-06
-8.18442e-08
-4.56675e-07
5.37078e-07
-1.12077e-08
-1.60694e-08
-2.01874e-05
3.86496e-06
-9.65531e-07
1.7613e-07
7.89396e-07
-7.70281e-05
4.20565e-05
3.49731e-05
-2.54229e-06
5.3299e-06
-2.7883e-06
5.61378e-05
-3.60543e-05
1.28985e-08
-7.85024e-09
-5.55648e-09
-3.09853e-09
-1.68846e-09
4.68964e-09
2.41154e-05
-2.61139e-05
-7.64743e-06
-2.43959e-07
1.66181e-07
7.76253e-08
-8.50884e-06
-1.16786e-05
-2.86785e-08
1.01395e-09
-6.95749e-06
3.13939e-05
-2.44363e-05
-1.42147e-07
7.0939e-08
7.1302e-08
3.28813e-08
-6.25298e-09
-1.67445e-05
1.28492e-05
3.89453e-06
4.7219e-08
-5.30817e-08
5.48828e-09
2.81126e-06
4.4139e-06
-7.22483e-06
-5.72362e-06
-1.48246e-06
-6.52734e-06
-2.22581e-05
-1.95016e-05
-2.1968e-05
-2.12648e-08
-1.00133e-07
1.22802e-07
6.03537e-07
-7.60117e-07
1.58551e-07
7.90939e-09
-7.73046e-10
-6.99123e-09
-1.0505e-05
-2.79136e-05
-7.42137e-07
-7.49528e-07
1.87343e-05
-3.35293e-05
1.47999e-05
8.59491e-08
-1.10882e-07
2.55914e-08
7.39707e-08
-8.41349e-08
-1.24609e-08
3.16871e-08
-9.23922e-06
-2.18298e-05
3.10548e-05
1.94382e-07
-1.4184e-06
1.22674e-06
-8.42341e-07
1.03826e-06
2.24434e-07
-2.03539e-07
-2.1572e-08
-6.85665e-09
-1.59703e-08
2.29569e-08
-2.06016e-07
-7.22822e-07
1.51311e-05
-1.03688e-05
-3.00469e-08
3.73613e-08
-6.99361e-09
6.30247e-05
2.12174e-05
-8.42182e-05
-3.36495e-05
-2.31078e-05
2.07509e-08
-5.372e-09
-1.54159e-08
-4.16562e-06
2.3668e-05
-3.50427e-08
3.58554e-08
7.48518e-10
-7.44629e-07
2.22982e-07
5.21103e-07
9.74925e-06
1.38305e-06
-1.11306e-05
-7.05631e-06
3.72422e-06
3.33133e-06
1.83975e-08
-2.53171e-08
-4.69701e-08
1.48032e-07
-1.01081e-07
-1.27255e-06
2.25306e-07
1.04749e-06
3.39575e-08
9.65011e-09
-4.30912e-08
9.28192e-06
-6.76712e-06
-2.51887e-06
-1.29532e-06
3.3013e-07
-5.80329e-05
6.53709e-05
-7.34975e-06
8.94134e-08
-5.08664e-07
-5.16375e-09
-8.21661e-08
8.62598e-08
-6.99487e-08
-7.21456e-08
-3.33773e-06
-1.8911e-05
2.22485e-05
2.72559e-08
-9.48493e-08
7.7712e-09
5.08618e-09
1.13613e-08
2.73352e-08
-3.87408e-08
9.15882e-08
-7.18089e-08
4.42693e-07
8.52958e-09
-1.03131e-08
1.70202e-09
-2.51295e-08
1.94403e-08
6.41237e-09
-1.39894e-09
-1.77748e-08
1.92607e-08
-4.27658e-08
5.19071e-08
-8.83201e-09
8.21903e-07
-2.84111e-06
2.02028e-06
-6.23595e-07
-1.2106e-07
1.17889e-08
3.52116e-08
2.42058e-08
2.70791e-08
-5.13123e-08
-3.79624e-05
3.23279e-05
5.57606e-06
1.65864e-06
-6.52143e-07
-1.00762e-06
2.82971e-05
-3.24883e-05
4.19459e-06
3.02632e-05
-7.57219e-06
-2.26901e-05
-8.01858e-08
-2.2506e-09
8.23559e-08
-2.50286e-08
3.63718e-08
-1.16564e-08
-1.32824e-07
8.56956e-08
-3.02238e-08
5.45975e-09
7.78601e-07
-1.28691e-05
1.20897e-05
5.0173e-06
-2.5431e-05
2.04108e-05
1.58065e-08
-1.55069e-08
-3.88265e-10
1.66971e-09
2.3381e-08
-2.53609e-08
3.52592e-05
-1.99344e-05
-1.53259e-05
4.65683e-06
-9.94079e-06
5.2873e-06
1.54796e-07
-1.89315e-07
3.40681e-08
4.5529e-06
-9.99579e-06
5.4404e-06
6.69685e-06
-1.20898e-05
5.4378e-06
7.04554e-08
-5.18084e-08
1.96728e-08
-1.73977e-08
2.67744e-08
-9.05894e-09
8.51696e-06
3.0396e-06
-2.81227e-07
2.07283e-07
7.38431e-08
-1.17835e-07
-1.26198e-07
-3.31757e-08
2.89388e-08
5.67977e-09
1.87845e-05
-4.13862e-05
2.263e-05
6.44638e-10
2.01276e-08
-1.26219e-08
3.30771e-09
9.0892e-09
3.46165e-09
-1.77715e-09
-5.76568e-06
-1.17098e-05
1.74736e-05
4.886e-08
-1.46449e-08
2.35572e-08
-1.32945e-08
-1.01933e-08
-1.98082e-07
1.51635e-07
4.6941e-08
-2.47254e-08
5.51263e-08
-4.01511e-08
3.75834e-08
2.14758e-09
-9.131e-06
-2.84736e-05
3.75699e-05
2.35246e-08
2.00338e-07
1.32281e-07
-3.72128e-08
9.4581e-10
2.55801e-08
-2.6083e-08
0.00021709
1.98527e-05
-0.000236953
-9.09233e-08
5.94585e-08
3.15738e-08
-4.37391e-07
-8.58002e-07
-2.15155e-08
6.6455e-09
1.48932e-08
1.66705e-05
-2.73021e-05
1.06234e-05
-8.2544e-06
1.03512e-05
-2.09852e-06
-1.09212e-05
2.96556e-05
3.63174e-05
-1.39667e-05
-2.23524e-05
7.78813e-10
-5.53482e-08
8.64699e-08
-2.90051e-08
1.93411e-05
2.28498e-06
1.13127e-05
-8.2811e-06
-2.52835e-07
1.749e-07
7.80718e-08
1.1944e-06
3.17398e-05
6.53693e-07
-5.67476e-07
-8.24499e-08
-1.22014e-05
-9.85731e-06
1.55757e-05
1.96833e-05
1.93057e-09
2.09094e-09
-4.20365e-09
-2.44875e-05
1.75298e-05
-2.52113e-05
-6.37108e-06
-2.05944e-05
3.07116e-05
-1.01128e-05
-0.000115618
7.76264e-05
5.54298e-07
1.0181e-07
2.00745e-07
-4.35892e-08
4.22169e-08
-3.74167e-08
-3.5583e-09
-2.43352e-05
7.59039e-06
1.14361e-08
-2.78485e-09
4.73933e-08
-8.30612e-08
3.56744e-08
-8.61011e-08
-3.77703e-08
1.3574e-07
-9.87201e-08
2.61916e-08
8.57521e-07
4.86616e-05
-7.81222e-05
2.94687e-05
-2.08016e-05
1.17993e-05
-6.39363e-08
1.03619e-07
-3.89935e-08
-8.59612e-09
-1.74877e-09
2.48177e-08
-6.69266e-08
2.88976e-08
3.35852e-09
-3.23373e-08
-2.97619e-09
8.4674e-09
-5.69644e-09
-5.47383e-08
3.51895e-08
2.07559e-08
1.06481e-06
5.93397e-07
-9.26446e-08
-1.79289e-07
7.83487e-08
7.85136e-09
-6.99266e-05
-1.0811e-05
1.76853e-05
-2.185e-05
-3.91982e-06
-1.80346e-06
1.00427e-05
-1.03934e-05
-3.90728e-06
1.36581e-05
1.05232e-07
-1.3096e-08
-7.97746e-09
2.24527e-08
-3.83299e-08
1.92996e-07
8.46853e-06
-1.42354e-05
3.19108e-08
-2.02141e-08
-3.50211e-05
2.58867e-05
-9.45884e-06
3.13068e-05
-2.18705e-05
-6.57917e-09
7.45807e-09
-5.18041e-10
2.20863e-05
7.36608e-05
1.23374e-05
1.45981e-05
-2.69307e-05
3.34558e-06
-1.24315e-05
2.89689e-05
-6.71098e-07
2.18247e-05
-5.1533e-06
1.69328e-07
-1.48237e-07
-2.19367e-08
1.70458e-06
-1.62884e-06
-8.63784e-06
-1.21395e-05
2.07791e-05
3.07002e-08
-4.13313e-05
-2.69134e-05
6.82455e-05
-7.94693e-06
5.40452e-06
-2.41192e-07
-4.25487e-07
1.58097e-07
-5.0166e-07
3.43532e-07
8.03428e-08
-1.00611e-07
1.0947e-08
-2.40496e-08
-1.79335e-08
-2.2532e-08
-1.64202e-10
-2.70673e-08
5.35364e-09
-8.65886e-09
3.69081e-06
3.26886e-08
-1.66585e-08
-1.64932e-08
-2.76421e-06
5.5724e-06
-2.7054e-08
5.08982e-08
-2.42089e-08
-4.2789e-08
1.20828e-07
-7.80871e-08
-2.32658e-07
-4.86296e-08
-7.96899e-09
2.17198e-08
2.435e-08
2.75241e-05
-1.6352e-05
-1.11772e-05
3.59729e-06
-2.10727e-05
1.74784e-05
2.80878e-05
-4.03028e-06
-2.4058e-05
-2.11231e-06
-3.23662e-06
1.2088e-06
-8.26242e-06
-2.65931e-05
2.3907e-05
2.68397e-06
-1.2528e-07
-7.32089e-08
-8.96102e-09
1.2745e-08
-5.49533e-09
-1.6113e-08
2.16047e-08
1.11738e-08
3.05768e-05
-1.82407e-05
-4.01592e-08
-1.79654e-08
5.78259e-08
1.61833e-05
-1.61823e-05
-1.43996e-08
2.3575e-09
1.20107e-08
-1.68518e-10
-1.23555e-08
3.83401e-08
-2.44091e-08
-1.45512e-08
1.12341e-05
-6.24319e-06
-4.98933e-06
4.54513e-06
-6.71293e-06
2.17296e-06
8.76118e-06
-4.10264e-06
-1.75678e-05
-8.44109e-06
2.60187e-05
-1.78712e-05
-9.74025e-06
-1.56811e-07
-9.59029e-08
2.01069e-07
-4.54092e-07
-2.18889e-07
-9.04635e-07
1.12392e-06
-1.81355e-08
2.10708e-08
-2.71937e-09
4.32053e-08
7.59017e-08
-1.19225e-07
3.02234e-08
-3.62491e-08
4.82262e-09
-3.37169e-08
-1.21666e-07
1.56008e-07
5.19443e-08
6.12404e-09
-4.98939e-09
-1.0977e-09
-0.000169387
0.00013755
3.18322e-05
-1.0777e-08
-3.64761e-08
3.64057e-08
5.23037e-10
1.51868e-05
-0.0001465
3.36556e-05
2.66393e-05
3.0117e-07
-2.32007e-07
-6.86887e-08
7.45352e-07
-2.42024e-07
-5.03583e-07
8.07659e-06
-2.86686e-05
-2.48918e-07
6.26729e-08
1.86009e-07
-1.93279e-08
4.25122e-10
1.91352e-08
2.7711e-05
-1.89314e-05
-8.77758e-06
-1.78026e-08
3.98606e-08
-1.45129e-08
-2.53984e-08
1.15183e-05
3.79388e-08
4.84122e-09
2.9477e-08
2.14229e-08
2.93336e-08
-2.7441e-07
-2.58561e-05
2.37649e-05
2.09506e-06
-1.0823e-07
-1.69583e-05
1.33704e-05
3.58113e-06
-3.96046e-07
5.53982e-07
-7.62179e-05
4.6513e-05
2.97003e-05
2.64252e-08
3.34768e-09
-5.311e-06
1.39169e-06
-2.23623e-08
2.99541e-08
-7.59504e-09
-2.13582e-06
5.67637e-06
-7.14178e-05
-9.79795e-05
2.97171e-07
-3.53837e-07
5.63103e-08
-4.35687e-09
2.06079e-08
-1.48869e-08
-2.51517e-05
8.19366e-06
-3.34188e-08
-6.81336e-07
-2.07691e-08
4.99656e-11
2.07562e-08
-2.09224e-08
4.51165e-08
3.42649e-08
-5.6259e-08
2.25362e-08
0.000105165
-8.639e-05
2.91327e-09
-9.31021e-10
-1.05726e-07
1.46319e-09
1.04674e-07
7.05746e-05
4.64811e-08
-6.09571e-08
1.33607e-08
2.47058e-07
-2.11825e-07
-3.47692e-08
-1.96767e-08
-8.05858e-08
2.30337e-05
-1.64799e-05
-2.154e-05
1.20772e-05
-8.45017e-07
-6.71216e-08
9.13355e-07
3.26957e-08
9.0198e-06
-5.65753e-06
1.60021e-08
-1.96647e-08
-1.81891e-06
8.32832e-07
9.85668e-07
-2.57621e-05
8.19851e-06
-2.04419e-07
1.11375e-07
5.72887e-07
-3.8249e-07
-1.90511e-07
3.66796e-08
-2.33004e-08
-1.35463e-08
-3.31937e-08
1.22079e-07
-8.87237e-08
2.64701e-09
-2.7288e-09
1.31406e-05
3.5527e-05
2.50734e-08
-1.51229e-08
-9.84958e-09
7.26801e-08
-7.83596e-08
8.3322e-09
1.45504e-08
-2.35416e-08
-1.37313e-09
3.0283e-08
1.32511e-05
1.42686e-05
1.57854e-08
-4.32617e-09
3.87893e-08
-3.44195e-08
-4.73618e-09
-1.7353e-06
-1.3448e-06
1.4352e-05
-1.07537e-05
3.7347e-09
3.46875e-08
-3.84641e-08
-4.35225e-08
1.38816e-08
9.85863e-09
-2.3905e-08
-3.44109e-07
-1.46822e-08
3.59176e-07
-5.45362e-06
1.30996e-06
4.14372e-06
-1.31033e-05
2.4031e-05
-1.0928e-05
3.16092e-06
3.55775e-06
1.24049e-07
-6.59173e-08
-2.39256e-05
-2.31332e-06
2.62393e-05
-5.96673e-08
1.35711e-07
4.12113e-08
8.75614e-08
-1.28725e-07
2.02958e-08
-1.79252e-08
-2.52401e-09
-1.56141e-09
-2.22246e-09
3.60712e-09
4.12201e-09
-1.45266e-08
1.02826e-08
-2.61035e-10
-1.26989e-09
-0.000149854
0.00011232
3.75368e-05
-1.98936e-07
1.5757e-07
4.14684e-08
-3.66719e-10
3.31282e-05
-3.94986e-05
6.34643e-06
2.12148e-08
-7.44741e-09
-5.20674e-05
-2.4958e-05
2.69349e-05
6.76618e-06
-3.37056e-05
1.96191e-08
-5.53595e-07
-0.000104858
6.35148e-05
3.05264e-07
-3.91134e-09
2.67694e-05
-9.08396e-06
4.03613e-07
-1.248e-06
1.3715e-08
1.83439e-08
-3.17065e-08
3.04311e-10
5.63825e-08
-2.22054e-08
-1.00856e-07
3.03837e-08
7.04803e-08
5.28088e-08
3.93685e-10
-5.32537e-08
-1.04515e-05
-1.52959e-06
-1.77628e-07
4.34635e-07
-9.98976e-09
3.34722e-08
-1.46706e-07
3.47361e-07
8.2623e-06
1.0174e-06
1.00865e-05
1.61884e-05
-2.62691e-05
9.04368e-08
-1.12145e-07
2.14288e-08
-2.48025e-07
3.07806e-07
-5.95748e-08
1.71612e-07
-1.35041e-07
-3.71013e-08
-1.18766e-06
2.71242e-08
1.41966e-07
1.13032e-09
-3.10462e-09
3.42208e-09
5.60978e-06
1.81331e-08
4.57571e-09
-2.25208e-08
3.45981e-08
-3.0907e-08
3.98081e-07
-2.65242e-07
-1.31022e-07
1.82176e-09
5.8996e-10
-4.25327e-05
7.1307e-06
3.54009e-05
8.98782e-08
-5.59164e-07
4.69248e-07
1.56997e-10
5.38585e-09
-5.48805e-09
-2.48396e-08
1.59216e-07
-1.34709e-07
-2.06094e-08
2.44635e-09
-1.89378e-08
2.56935e-08
5.21795e-06
6.58301e-06
-1.18078e-05
1.24164e-08
1.09091e-08
-6.84814e-09
2.19692e-06
2.94692e-06
-5.14483e-06
1.43174e-08
2.04199e-08
-5.00416e-09
2.06054e-07
-1.39984e-07
-6.20985e-08
-1.96419e-06
-2.60213e-05
2.79843e-05
-1.13862e-08
2.89329e-08
-1.69894e-08
2.03865e-08
3.20138e-09
-2.34554e-08
9.82997e-10
-4.44578e-09
2.57432e-08
-5.70101e-08
3.11696e-08
-1.31046e-05
4.84932e-06
-3.06208e-08
1.91153e-08
-2.15226e-08
3.55795e-08
-9.16209e-05
-1.32604e-05
-2.83964e-08
1.7661e-08
1.103e-08
4.05186e-08
5.30863e-09
-4.58704e-08
-2.82096e-05
6.10751e-07
2.75978e-05
-1.88845e-08
2.78515e-08
-9.07853e-09
-4.95886e-05
2.2677e-05
-1.93018e-08
9.92947e-09
8.59615e-09
-1.15305e-05
1.58609e-05
-4.33341e-06
7.56697e-06
-2.34818e-06
-4.82421e-06
-3.77095e-05
-2.58657e-08
2.7442e-08
-5.89861e-08
4.8471e-08
8.10411e-09
-6.52803e-07
2.56743e-07
1.3965e-07
6.15239e-08
1.18385e-08
-1.74267e-08
5.34936e-09
-2.92285e-08
4.02333e-08
-1.09408e-08
-7.46883e-10
3.2525e-09
-2.51114e-09
1.64398e-07
-1.89432e-07
1.52204e-08
2.12966e-08
4.2575e-07
-2.61589e-08
2.47244e-07
-2.65068e-07
-1.12024e-07
6.4928e-09
-1.31497e-05
-6.24704e-06
8.40172e-06
-3.8588e-06
-0.000110137
-3.97134e-05
1.77704e-08
-4.5168e-08
1.04293e-09
-2.03773e-08
6.60639e-06
-6.96528e-06
3.56159e-07
-5.61259e-09
1.85113e-07
3.87296e-07
5.30796e-06
-1.39448e-05
-7.18618e-09
-4.7728e-08
2.43732e-06
-1.39699e-05
-2.61506e-05
2.22627e-06
-3.79202e-09
6.3096e-10
-3.17285e-05
-4.44911e-05
5.10381e-06
3.084e-07
-5.41373e-06
-1.31524e-07
-6.69084e-08
4.49618e-10
2.19152e-08
-3.05143e-05
-9.47219e-06
3.99914e-05
9.79439e-06
-1.63439e-05
6.55952e-06
1.21604e-08
-2.09053e-08
2.91084e-09
-1.06411e-09
1.16439e-08
-6.67529e-09
-3.03457e-06
-4.91583e-06
7.95003e-06
-5.46945e-07
-7.25309e-07
-1.46177e-05
-1.14561e-05
2.60752e-05
-1.46964e-05
-4.61143e-09
2.50479e-08
-7.23292e-07
-1.79589e-07
9.00712e-07
-4.18255e-08
1.18159e-06
1.87158e-05
-5.96712e-06
-1.27627e-05
-7.61623e-07
-1.0573e-06
3.49965e-08
-3.79154e-07
-2.11814e-07
2.16255e-07
-4.5887e-09
-4.35605e-08
-1.59873e-08
5.93627e-08
-2.48561e-05
1.94745e-05
5.38242e-06
2.42079e-05
-1.91094e-05
-5.09006e-06
1.15218e-07
3.11313e-07
3.186e-05
-7.64558e-06
-2.42143e-05
5.26051e-09
3.48747e-09
8.10401e-09
8.99573e-09
-3.8208e-08
2.90402e-08
2.83506e-07
1.38054e-08
-2.23107e-08
1.50875e-08
7.31605e-06
-1.75371e-05
2.53646e-08
1.44875e-08
-1.76063e-06
-1.90519e-05
4.31903e-05
2.35526e-07
-7.1007e-08
2.90661e-07
2.4932e-07
4.38662e-08
-8.74943e-08
-1.86842e-08
1.93687e-06
-6.85163e-09
-1.49854e-07
1.30032e-06
1.95155e-05
1.25456e-08
-6.51223e-09
-2.41753e-08
3.30807e-08
1.25665e-08
7.43589e-09
-1.99725e-08
-4.76696e-09
1.12256e-09
3.47584e-09
-4.57306e-07
1.00939e-06
-5.53745e-07
1.52057e-08
-1.50737e-05
1.07415e-05
4.33599e-06
1.19517e-05
-1.42116e-05
-1.27339e-08
-9.89463e-08
5.62197e-08
-4.38812e-08
-2.03678e-07
1.09074e-06
-5.37817e-06
4.28573e-06
2.3765e-07
8.12402e-09
-2.46876e-07
-2.65001e-08
1.23469e-07
-9.7581e-08
1.16904e-08
2.77959e-08
-3.96121e-08
-4.34401e-05
1.09988e-05
3.24747e-05
-3.53518e-08
4.31278e-08
-7.68051e-09
-1.47338e-05
1.6297e-06
4.75961e-08
-4.0256e-08
-7.69439e-09
-2.71907e-05
7.60085e-05
-1.89979e-05
2.28786e-06
1.67058e-05
-1.54518e-08
-6.93747e-09
3.98298e-09
-3.92409e-07
3.13235e-07
7.97511e-08
-7.05537e-09
-7.7674e-09
-4.93577e-07
-8.25652e-09
5.01844e-07
2.74045e-08
-1.2489e-07
9.72324e-08
-2.86121e-05
2.52724e-05
-8.5229e-07
-2.36686e-07
1.08767e-06
-6.45515e-05
6.50787e-06
1.17457e-08
4.17263e-09
3.81286e-05
2.99964e-05
-0.000110694
-3.82251e-07
-1.00655e-08
4.77815e-09
-4.61989e-09
-8.42251e-06
-1.2203e-05
2.06249e-05
-4.37882e-09
1.05285e-08
-6.04661e-09
9.9237e-06
1.17002e-05
-2.16272e-05
2.14705e-08
-1.45596e-08
-6.92858e-09
-2.95396e-08
3.80419e-09
2.53246e-08
2.94164e-06
-2.18526e-05
-1.95642e-06
-2.22286e-06
4.17698e-06
-1.91001e-07
1.01138e-05
4.76345e-07
-1.20062e-06
-4.09954e-08
7.44086e-08
-3.30083e-08
-1.30882e-08
-1.13601e-09
-6.03004e-06
2.48655e-05
1.48822e-08
-6.90124e-09
-7.9425e-09
0.000131589
-2.13541e-05
-0.000110243
9.92574e-07
4.10634e-05
1.39997e-07
1.67409e-07
1.24603e-08
-4.17013e-09
-8.40044e-09
-2.6223e-08
2.6629e-08
-6.82071e-10
-7.17893e-07
-1.22438e-07
-2.26466e-07
1.45057e-08
7.75119e-10
1.64192e-08
-3.80601e-07
6.06215e-07
-7.45605e-07
2.55068e-07
4.94579e-07
-4.01678e-07
4.20564e-07
-1.05721e-08
-2.00303e-08
1.65352e-05
-1.15506e-06
2.27156e-05
-2.46778e-05
-1.25861e-05
2.29735e-08
-3.77155e-09
-1.89038e-08
1.63086e-07
4.5636e-08
3.60379e-09
1.16476e-07
-2.72247e-08
-8.94198e-08
3.836e-08
-1.01609e-07
1.90032e-05
-1.76666e-05
-1.33921e-06
6.24265e-08
-1.57255e-08
-4.5457e-08
1.93243e-05
-1.85476e-05
-1.44993e-07
4.23042e-09
5.21503e-06
-6.77809e-06
-3.80642e-08
-6.28736e-08
1.09404e-05
1.32771e-05
0.000142195
-1.06261e-05
9.49421e-09
-5.16804e-09
-4.30777e-09
-1.79441e-07
-2.84364e-07
8.34659e-06
-1.74106e-06
-4.16212e-08
2.12002e-08
1.08091e-07
6.35259e-08
8.04414e-08
-1.07376e-07
-0.000125222
0.00018826
4.79782e-09
-3.92164e-09
-9.89558e-10
2.08244e-07
-6.1828e-07
4.09709e-07
-6.29662e-10
-1.90147e-09
2.47328e-09
1.43125e-08
-6.34267e-08
4.89879e-08
1.93174e-05
2.67841e-05
-1.0474e-05
-1.63113e-05
6.09946e-07
-1.95496e-07
-4.14203e-07
-1.20272e-08
2.70338e-08
5.89399e-09
2.02885e-09
1.13156e-08
-1.37198e-08
2.73963e-09
-2.17103e-08
-2.5245e-08
4.81103e-08
-1.28565e-07
1.622e-08
1.11598e-07
-3.90402e-05
8.5285e-06
-1.01462e-06
7.95722e-07
6.34572e-07
-3.66853e-06
4.13043e-06
1.20522e-05
8.34022e-07
-3.37767e-07
-4.96724e-07
-1.85894e-08
-3.09518e-08
5.01985e-08
-3.26942e-05
2.38904e-05
8.80176e-06
-3.9551e-08
9.74809e-09
-1.28546e-05
3.95766e-08
-1.22228e-07
3.09171e-09
-6.56602e-10
-2.52725e-09
-7.47708e-09
2.69883e-08
-1.89318e-08
2.7891e-07
-4.56581e-07
9.89056e-07
4.46797e-07
-1.43571e-06
4.03424e-09
-4.49156e-09
2.72124e-08
-2.54131e-08
4.2488e-07
3.97425e-08
-4.65709e-07
1.48116e-06
-3.64765e-06
2.16747e-06
2.86991e-08
-4.70832e-08
-4.96796e-06
1.12964e-05
-6.33414e-06
9.11469e-09
2.83437e-08
-1.31686e-05
8.20104e-06
-1.49384e-06
1.3664e-07
1.35704e-06
1.98477e-09
-1.09822e-07
1.07754e-07
-4.27395e-07
-2.95312e-07
7.23609e-07
1.83244e-09
-2.50814e-09
5.68508e-10
-2.53478e-08
8.85119e-09
1.68171e-08
-1.83743e-06
-2.58473e-05
2.39453e-05
1.90058e-06
-3.05984e-08
2.8496e-08
1.99519e-09
8.55301e-07
-2.81267e-06
1.19712e-08
-2.36779e-08
7.63535e-09
-3.01355e-08
1.96809e-08
2.85204e-08
-4.99175e-08
2.04014e-05
1.14599e-05
-3.1808e-09
5.5955e-08
-1.84318e-08
-5.35329e-08
5.52785e-08
2.88209e-09
-5.8129e-08
-1.73357e-07
-1.86682e-08
-7.70214e-09
-4.87992e-07
-5.03803e-08
5.39036e-07
-1.4543e-07
1.38509e-07
6.19163e-09
6.17793e-09
1.65709e-08
-2.91678e-08
1.22198e-08
2.01499e-07
-1.05387e-06
5.71956e-08
4.73192e-07
-0.000106255
0.000149212
-4.29565e-05
3.94361e-05
4.56635e-09
4.85594e-09
-2.69614e-08
1.10265e-09
1.87197e-09
2.3485e-05
-1.82292e-05
-5.25565e-06
2.91908e-08
9.62551e-09
-4.4884e-07
-6.68284e-07
1.11579e-06
1.51047e-05
1.16814e-05
1.42548e-07
-6.2584e-08
-2.64426e-07
2.19596e-07
2.13386e-05
-1.14035e-05
-9.93407e-06
-6.75568e-09
1.95163e-08
5.89845e-09
8.79203e-09
-4.4186e-09
2.69515e-09
5.76152e-08
-4.58491e-08
-6.17076e-06
7.2596e-06
-2.85586e-09
2.08225e-09
1.24713e-08
-4.59453e-09
-7.82498e-09
-3.69854e-05
1.75179e-05
-9.54595e-06
3.35721e-06
6.18902e-06
3.73854e-09
-9.16997e-10
-1.5012e-09
-5.02629e-08
1.88813e-05
-7.74607e-06
-6.09463e-06
1.06471e-05
3.04083e-07
6.59377e-07
-9.63749e-07
1.37298e-07
-4.29171e-08
-9.50117e-08
-2.37178e-07
2.5716e-08
-1.91918e-05
7.53798e-06
1.16604e-05
6.04728e-07
2.29283e-07
-4.13675e-05
2.53964e-05
1.59705e-05
1.1535e-06
5.02147e-06
-7.13226e-06
-1.01948e-05
8.12454e-06
-4.99866e-08
1.48702e-08
-6.40406e-08
1.23672e-07
-6.08381e-08
9.4584e-06
-2.23078e-05
1.28904e-05
2.89053e-09
4.31324e-10
-3.44074e-09
-0.000166488
1.62187e-07
-2.53169e-08
-1.37065e-07
-2.17662e-09
-2.67711e-09
-2.36945e-05
3.08222e-05
-7.12096e-06
-7.61318e-07
4.25796e-08
7.76883e-07
-2.25883e-06
-2.63505e-05
-1.81449e-07
2.25325e-06
-2.0713e-06
1.92348e-08
-7.46297e-09
2.34868e-06
3.39453e-09
1.49914e-13
-4.38695e-08
1.50095e-08
1.10381e-07
-2.6073e-07
1.50708e-07
8.37671e-08
-1.16769e-07
-2.18761e-08
2.02185e-08
1.51943e-09
-9.44883e-06
-5.48454e-07
-9.31363e-06
-2.0186e-06
9.27222e-07
1.09076e-06
1.39355e-05
1.05882e-05
-2.45163e-05
5.44627e-08
-9.88736e-08
4.42054e-08
-6.38142e-06
-1.26183e-05
3.47109e-05
-1.60466e-06
-1.4014e-07
7.54321e-08
-7.12025e-06
1.72091e-05
6.30921e-08
9.90293e-08
2.22624e-09
-1.06642e-08
-4.90815e-09
1.55497e-08
-1.57662e-08
-4.30556e-08
-2.51017e-08
1.3156e-08
1.22197e-08
3.79283e-06
3.28978e-06
3.06154e-07
-4.1276e-07
1.06035e-07
1.45617e-05
1.54339e-05
-2.73986e-05
2.50827e-09
6.23549e-11
-9.67895e-07
6.2493e-08
4.24279e-08
-7.80097e-08
3.58747e-08
2.90168e-09
-4.06722e-10
-2.81638e-09
-4.56781e-08
5.99406e-08
-3.19935e-05
-1.95239e-05
3.41447e-08
-9.72605e-08
-9.54059e-07
5.03356e-07
-5.8879e-08
1.86638e-08
3.07353e-08
-2.50623e-08
-5.6827e-09
6.09415e-07
-4.02152e-07
-2.02414e-07
1.84657e-07
4.61159e-06
-2.80652e-05
2.34496e-05
1.20047e-05
-1.54663e-06
-1.04585e-05
-7.80711e-06
-1.13865e-05
-2.68704e-05
-1.44974e-05
5.80187e-08
-2.91167e-08
-2.4923e-07
-1.68414e-05
-3.07625e-08
2.84757e-08
2.04126e-09
-0.000123408
-5.05133e-05
0.000173909
9.16531e-06
-6.28268e-06
-2.8846e-06
-9.3449e-09
3.7655e-07
-2.39007e-07
-1.36941e-07
2.02754e-05
4.44321e-07
5.45248e-09
1.74495e-08
3.11356e-08
-1.87681e-07
1.57108e-07
-4.05772e-08
-8.4118e-09
4.9447e-08
-6.05649e-07
-6.47612e-06
2.26464e-07
-1.9487e-07
-3.92421e-08
2.83126e-09
5.24425e-08
-4.22134e-08
1.70049e-08
-1.05156e-09
-2.93916e-09
3.99589e-09
4.68814e-08
9.02502e-08
-6.92985e-05
5.20893e-05
1.71882e-05
-2.56847e-09
-1.93821e-08
2.20328e-08
-5.40686e-08
1.99234e-08
3.39889e-08
-2.69301e-07
7.33337e-07
-4.64476e-07
1.92019e-08
1.73715e-08
-1.00768e-05
1.21176e-06
8.86823e-06
2.49827e-07
-3.07342e-08
-2.1974e-07
-1.15602e-08
-7.27132e-09
1.79247e-08
6.0727e-09
-6.50797e-09
2.48824e-08
-5.87715e-09
-1.21858e-07
2.8984e-08
-1.48153e-08
-1.42491e-08
-4.39551e-09
-2.36596e-09
6.77509e-09
2.69924e-06
-1.23468e-05
9.64171e-06
-1.57351e-05
8.11322e-05
1.0345e-08
-1.02703e-08
-3.43075e-10
1.68563e-08
-1.47416e-08
5.42212e-08
5.49599e-07
2.98463e-05
-3.43585e-07
-5.74568e-09
-7.35176e-09
1.27113e-08
-7.1522e-08
5.6119e-08
1.55609e-08
5.27924e-08
7.11549e-06
1.48046e-06
-8.59351e-06
8.54388e-09
3.96826e-09
-1.07365e-05
-1.51174e-05
-5.80551e-07
9.28924e-08
-8.24392e-07
3.66589e-07
-3.39739e-05
-8.42644e-05
7.01506e-06
7.72512e-05
-2.63189e-08
-8.26125e-06
-4.32203e-05
5.14801e-05
8.81013e-09
-8.87331e-09
-1.00437e-05
2.27825e-05
-1.27384e-05
-2.87255e-07
9.86496e-08
-2.27909e-07
3.87638e-07
-1.59918e-07
1.33308e-08
1.43875e-08
-2.82183e-08
1.09356e-08
-1.82371e-08
-1.23198e-05
1.01767e-05
2.08779e-05
-3.01215e-05
2.46837e-08
5.97497e-09
1.75795e-06
-1.97442e-06
2.13618e-07
-2.29313e-05
1.45076e-05
2.65528e-05
-1.71451e-05
-1.14196e-05
8.10095e-06
-3.36437e-09
-1.45939e-05
-1.06168e-05
1.06592e-09
-1.14185e-09
1.20712e-08
-1.47051e-08
-6.54022e-07
3.84132e-07
-2.23512e-05
-7.42093e-05
9.65503e-05
3.22994e-08
-1.14436e-08
-1.97307e-08
2.0158e-05
-1.84883e-05
-1.6686e-06
1.73095e-06
-1.57036e-06
-1.61544e-07
-5.92101e-09
-3.32627e-08
4.49841e-07
-1.63181e-08
-7.06918e-10
3.7714e-08
2.54238e-09
-5.34294e-09
-1.9901e-08
-2.29361e-09
5.28233e-09
-9.64572e-09
-8.16225e-07
-1.26345e-06
2.08053e-06
6.17236e-08
-1.35632e-08
-7.0247e-07
2.55352e-07
-2.14461e-07
-5.34405e-05
-1.5846e-05
-1.5893e-10
3.23783e-10
5.4765e-06
4.10968e-08
-4.29898e-08
2.49908e-09
-1.87147e-07
-1.05247e-06
6.14579e-07
-5.95586e-06
-3.98271e-06
-1.10373e-07
3.69403e-07
3.76178e-07
7.46361e-08
-2.36076e-07
1.61378e-07
-5.59427e-07
1.1912e-07
4.39921e-07
-2.19064e-09
2.62669e-07
2.80041e-06
1.02425e-09
3.55558e-09
-4.63272e-09
-2.11373e-08
7.83909e-09
-4.49603e-05
2.22813e-05
2.2683e-05
1.74813e-06
-4.94262e-06
3.19403e-06
-5.28306e-07
2.72865e-08
-5.94154e-08
3.20432e-08
-2.05847e-09
-1.4685e-09
-3.11431e-06
-5.79254e-06
8.85954e-07
4.90527e-06
-1.97082e-05
9.66562e-06
-1.95126e-05
-9.05162e-06
2.85682e-05
-2.53836e-06
-7.00694e-06
2.58539e-07
-8.155e-07
5.56626e-07
-3.35484e-05
1.51045e-09
1.52352e-08
-1.46248e-09
-2.64177e-09
7.72161e-07
6.51457e-06
-7.28818e-06
-2.26821e-07
-6.12243e-08
4.76513e-06
-2.70684e-05
1.73496e-06
2.16593e-08
-4.28465e-08
2.81258e-08
-5.65656e-10
-3.54005e-09
-4.21457e-06
5.57524e-07
3.65541e-06
2.50604e-09
-1.31422e-08
-2.72513e-05
2.49947e-05
-1.12335e-07
-2.37255e-07
3.49563e-07
1.98726e-07
1.53234e-06
1.98174e-08
-2.72808e-08
7.51724e-09
2.85323e-05
-3.76307e-09
6.32796e-09
-2.53679e-09
0.000265229
-0.000304753
-3.57297e-08
-2.42943e-08
-7.27075e-09
3.14419e-08
-2.66827e-07
-2.748e-07
5.44589e-07
3.4749e-06
8.52836e-06
1.53917e-05
-1.56405e-05
-2.1927e-05
-1.98499e-06
2.39164e-05
7.68657e-08
1.72822e-07
-3.62439e-05
1.44036e-05
1.81425e-10
7.45951e-08
2.06444e-07
2.89916e-06
-6.50122e-06
3.60076e-06
-1.10291e-06
-9.15356e-07
2.58758e-06
-1.23306e-06
-1.3514e-06
4.2092e-08
-1.86305e-08
-2.33247e-08
6.62473e-09
-4.68868e-08
-2.58833e-07
-9.69283e-06
-1.69009e-05
-1.80871e-06
1.20242e-06
6.04723e-07
-3.6842e-07
2.55785e-07
1.67213e-08
5.42427e-09
-2.20674e-08
-1.03042e-06
9.84302e-07
4.16464e-08
9.1753e-08
2.46089e-08
-1.52853e-05
-2.53776e-05
4.06629e-05
-1.94421e-05
-9.26657e-07
2.03739e-05
-1.76294e-08
1.10352e-08
2.10571e-08
-2.32639e-08
1.74019e-08
5.80593e-09
-6.92521e-08
2.87695e-08
-9.7827e-05
-8.43262e-06
-3.48297e-08
2.88716e-08
-1.79041e-05
-1.53417e-06
-1.70362e-07
-2.21787e-05
2.60361e-05
-2.55106e-05
-5.24614e-07
2.2613e-08
2.24157e-07
-5.10588e-08
9.22006e-08
4.53854e-09
7.79074e-08
-8.04229e-08
-1.11461e-05
-1.39606e-06
1.25572e-05
2.41546e-08
2.71731e-05
-9.00762e-06
-1.81774e-05
-3.7398e-08
-4.92311e-09
4.26388e-08
-2.44146e-07
2.6643e-07
8.8213e-09
1.4888e-09
-1.68909e-08
4.42379e-09
1.19768e-08
-1.3535e-06
-4.56345e-07
8.88784e-07
-5.85016e-07
-0.000136381
-2.68095e-05
-1.2901e-05