/*--------------------------------*- C++ -*----------------------------------*\
| =========                 |                                                 |
| \\      /  F ield         | OpenFOAM: The Open Source CFD Toolbox           |
|  \\    /   O peration     | Version:  v2012                                 |
|   \\  /    A nd           | Website:  www.openfoam.com                      |
|    \\/     M anipulation  |                                                 |
\*---------------------------------------------------------------------------*/
FoamFile
{
    version     2.0;
    format      ascii;
    class       volVectorField;
    location    "300";
    object      ddtCorrDdt0(U);
}
// * * * * * * * * * * * * * * * * * * * * * * * * * * * * * * * * * * * * * //

dimensions      [0 1 -2 0 0 0 0];


internalField   nonuniform List<vector> 
14804
(
(-0.000180073 0.000292805 -2.60625e-23)
(6.26342e-09 9.73318e-09 0)
(3.41724e-05 -1.50895e-05 1.03715e-23)
(2.7475e-06 -1.08304e-06 1.74222e-22)
(8.95455e-07 6.08657e-07 3.45357e-25)
(-1.03309e-05 3.24918e-06 4.59794e-24)
(4.73118e-08 4.66942e-07 2.77639e-23)
(-8.50565e-08 1.00437e-08 -2.6011e-22)
(-8.70866e-06 5.38639e-05 0)
(5.85018e-09 6.07822e-10 -2.41851e-26)
(0.000882441 0.000100025 0)
(4.64761e-05 -6.6914e-06 0)
(-1.47211e-07 -1.59734e-08 -9.62884e-24)
(4.00196e-06 3.94198e-07 -1.24188e-22)
(-5.07481e-05 -7.21491e-05 4.48905e-22)
(0.000375873 -0.000231738 6.70306e-23)
(4.9488e-07 7.30394e-07 -2.49252e-26)
(2.24931e-06 -8.30088e-07 3.79399e-22)
(-0.000340072 -1.15632e-05 2.88133e-22)
(1.25533e-05 -8.13177e-06 0)
(7.99113e-10 -4.26246e-09 -8.73515e-23)
(-3.28672e-07 2.7135e-07 -1.42962e-22)
(2.62785e-07 -4.25379e-07 -1.30486e-22)
(1.64136e-07 3.63776e-07 4.47538e-22)
(-0.000176832 -4.32402e-05 0)
(1.39901e-07 3.34649e-07 -1.34996e-22)
(5.02272e-06 -4.8688e-06 0)
(1.60931e-06 9.66291e-07 2.75186e-22)
(-0.000203282 0.000315109 2.6583e-22)
(3.98293e-07 -4.73806e-08 4.63328e-22)
(-7.79739e-08 -6.15295e-08 -7.8529e-23)
(1.94872e-07 -5.02779e-07 0)
(1.22332e-05 -6.48265e-06 4.17837e-22)
(4.08672e-06 1.03372e-06 0)
(3.89772e-05 4.91539e-05 -1.8863e-22)
(4.23899e-08 4.98851e-07 -2.77223e-23)
(9.17318e-05 -0.000697055 0)
(9.26381e-10 3.50074e-08 0)
(0.000248333 -0.00108665 2.08748e-22)
(2.62487e-06 -2.51756e-05 -3.63349e-22)
(2.98829e-05 -1.96445e-05 -2.42118e-22)
(4.13217e-05 4.09104e-05 0)
(6.35866e-06 1.20427e-05 0)
(-5.19842e-08 3.23841e-08 -1.51202e-22)
(1.00529e-06 7.05097e-07 0)
(-1.54211e-07 4.54179e-09 0)
(-0.000186382 -0.000129489 -1.24043e-22)
(-1.01195e-07 1.14716e-08 3.73587e-22)
(-3.7316e-07 2.72411e-07 -2.94807e-22)
(2.38578e-06 3.46548e-05 -5.61176e-22)
(-1.17442e-07 -4.30512e-08 2.28652e-22)
(-6.43662e-09 3.64604e-09 3.84166e-22)
(-2.79623e-08 -7.72301e-09 -2.37512e-22)
(7.11186e-07 -1.37282e-06 0)
(-0.000137121 -0.000177515 0)
(-0.000237773 0.000373431 -3.55994e-22)
(0.000452733 7.47894e-06 -1.89979e-22)
(-0.000231432 0.000255596 1.68976e-22)
(-2.33448e-08 -1.80169e-07 2.36256e-22)
(-9.61076e-08 -2.89122e-08 0)
(-0.00060879 -6.05962e-05 -3.00202e-22)
(-1.22207e-07 -1.57368e-08 -1.62562e-25)
(-5.77184e-08 4.9711e-08 8.49097e-23)
(-0.00039318 0.000355352 -3.59392e-22)
(-5.39098e-08 4.28501e-08 7.61388e-23)
(-2.58639e-08 -2.18377e-08 1.72013e-22)
(-2.75317e-09 1.80256e-08 2.16541e-22)
(-7.57368e-08 4.51337e-07 0)
(-8.31333e-09 -1.63061e-09 0)
(-0.000398382 1.07314e-05 1.01346e-22)
(-2.07581e-07 -1.16495e-08 1.92894e-22)
(4.50508e-06 -4.81002e-06 0)
(-4.39643e-07 0.00118389 4.22253e-23)
(0.000131831 0.000393945 3.17565e-22)
(-4.47254e-07 -4.72102e-07 3.04505e-22)
(-0.000356895 5.65644e-05 -9.88387e-23)
(0.000362946 0.000148935 -5.17541e-24)
(2.33612e-09 3.2765e-09 -1.51542e-22)
(9.1538e-07 1.94891e-06 0)
(-1.45302e-08 -2.20611e-08 1.80863e-22)
(-0.000175757 -0.000239641 1.9728e-22)
(-2.64967e-08 -1.62743e-08 -1.55945e-22)
(-1.61152e-08 -4.74784e-08 -1.96749e-22)
(-4.07262e-07 -4.72035e-07 -1.39682e-22)
(3.75951e-09 2.70469e-08 -6.3004e-23)
(2.99079e-05 -0.000104871 1.50755e-22)
(-9.69739e-09 3.03554e-09 2.38445e-22)
(-9.90629e-08 -1.0346e-06 -1.03159e-22)
(2.64497e-09 -3.08508e-08 -1.60927e-22)
(1.38358e-06 9.4723e-07 2.95158e-22)
(2.24252e-06 1.43306e-06 8.27656e-25)
(-1.46566e-07 -8.87875e-08 9.0319e-23)
(-3.14596e-06 1.95041e-05 -2.56379e-22)
(-1.49978e-07 1.18819e-08 1.80239e-22)
(1.59922e-06 9.35316e-05 3.63114e-22)
(0.00030347 0.000170488 1.1915e-22)
(-0.000207973 0.000278364 -1.82703e-22)
(3.43869e-07 -2.38588e-07 0)
(-8.49533e-08 3.49459e-07 1.86558e-22)
(0.00169718 5.66016e-05 0)
(-0.000232017 0.000212938 -1.71573e-22)
(-0.000216514 0.000273485 -1.4939e-22)
(3.13421e-09 2.56238e-08 -1.34072e-22)
(4.55141e-06 1.04004e-06 3.75792e-23)
(0.000184677 0.000211581 -1.26449e-22)
(-0.000248996 0.000239804 3.31517e-22)
(4.21343e-05 -9.60798e-06 0)
(-4.92216e-05 -0.000101921 -2.57486e-22)
(-4.99419e-08 -4.17543e-08 -1.97928e-22)
(-8.80538e-08 -5.92276e-08 1.44131e-22)
(-4.74483e-08 3.12265e-08 0)
(-0.000368018 -9.99621e-05 1.4829e-22)
(-6.50273e-06 1.63918e-05 -2.10345e-22)
(0.000188945 -0.000106436 4.55146e-23)
(-0.000412986 -8.38764e-05 -2.14116e-22)
(-9.60649e-05 -0.000205184 1.11211e-22)
(0.000211872 7.65354e-05 -8.9777e-23)
(2.50512e-06 1.57982e-06 1.9261e-22)
(3.21397e-09 2.58676e-08 4.45463e-22)
(2.23043e-06 -6.88838e-07 -3.79975e-22)
(0.000215285 0.000275722 -2.69124e-22)
(-5.44733e-10 -3.55619e-08 4.68418e-22)
(1.34591e-07 6.34211e-07 4.41346e-22)
(-4.98675e-07 -1.10225e-06 -3.5049e-23)
(-2.17989e-08 -1.79124e-07 -2.15212e-22)
(2.78772e-09 3.27271e-08 0)
(0.000270524 -3.7506e-05 2.10902e-22)
(4.34001e-06 5.68711e-07 -1.51905e-22)
(1.63597e-07 -6.40583e-07 2.86964e-22)
(1.22061e-06 -5.74184e-07 0)
(1.38713e-06 -4.45825e-07 0)
(6.30469e-05 0.000123338 0)
(-0.000165874 -0.000382016 0)
(0.000327664 -0.000156962 0)
(0.000225838 -0.000295884 -2.6397e-22)
(-4.50576e-07 -6.60281e-07 0)
(-4.9408e-08 4.08492e-08 -1.86362e-22)
(0.000311648 0.001828 0)
(3.60598e-07 -2.76021e-07 0)
(4.36202e-06 1.46015e-06 0)
(-1.05142e-08 4.71896e-08 -2.04866e-22)
(-3.39815e-05 0.000324549 0)
(-9.09169e-09 2.17896e-09 -3.85576e-22)
(0.00012911 4.321e-05 0)
(0.00056563 3.19929e-06 0)
(-8.32329e-09 -3.5681e-09 0)
(0.000189658 0.00018639 0)
(-3.68987e-08 -4.2854e-08 1.92625e-22)
(-0.000415658 -0.000288607 0)
(-8.97864e-05 1.86568e-05 5.19931e-22)
(-1.70461e-05 4.64423e-05 0)
(0.00037833 1.33263e-05 0)
(5.24433e-06 -2.61291e-05 4.05318e-22)
(4.96264e-06 4.10653e-07 -3.68461e-22)
(-2.1088e-08 -4.2042e-08 4.32465e-23)
(-0.000244654 0.000190154 0)
(8.55774e-07 -8.87302e-06 -2.10951e-22)
(-0.000792096 1.81889e-05 7.27785e-23)
(9.69225e-05 8.69273e-05 -1.46616e-22)
(-0.000660623 -0.000357926 -5.34497e-24)
(-2.76174e-09 2.41752e-08 0)
(-7.54751e-09 3.54442e-09 4.38831e-22)
(-0.000205233 -0.000407119 0)
(-0.000169098 -2.19449e-05 7.24743e-24)
(1.13562e-06 -4.0765e-07 4.68977e-22)
(-0.000268925 0.000140903 0)
(-1.09424e-07 -1.0108e-08 -2.6752e-22)
(-0.000590431 -1.39695e-06 0)
(4.09983e-07 -1.78805e-07 -1.62023e-22)
(-1.04897e-07 -1.01002e-08 3.35844e-22)
(-9.32106e-05 -0.000188926 0)
(-2.56462e-07 -2.94893e-08 1.78459e-22)
(-1.9573e-05 7.2955e-05 1.18193e-22)
(-4.93661e-05 -4.08034e-05 -2.22342e-22)
(0.000107345 -0.000451946 3.23738e-22)
(0.000531463 -0.00035614 -1.99364e-22)
(-3.9289e-08 8.56155e-07 0)
(5.33283e-06 -5.48021e-07 0)
(1.39608e-08 1.65137e-09 1.13832e-22)
(0.000454947 0.000112049 -6.57982e-23)
(-1.008e-05 4.86686e-06 -2.09804e-22)
(-0.000293189 -0.000465377 -2.50968e-25)
(1.18468e-07 3.69002e-07 1.965e-22)
(-5.11838e-07 8.66313e-08 -3.06176e-22)
(-1.43641e-07 -2.82538e-08 0)
(1.32066e-05 -0.000514487 1.55251e-22)
(1.28908e-05 3.83496e-06 2.13486e-22)
(1.07268e-05 3.58165e-06 -2.00443e-22)
(1.14225e-06 2.59399e-08 0)
(1.8356e-08 -5.66864e-08 -1.74667e-22)
(2.80741e-06 1.17028e-05 -1.42386e-22)
(-0.000290569 0.000374248 4.69387e-23)
(-4.18058e-08 1.50193e-07 -1.40914e-22)
(0.000256151 0.00144235 0)
(0.00018813 -0.000674535 -1.1335e-22)
(-4.78951e-08 3.70084e-08 0)
(-0.000238858 0.000294582 1.52261e-22)
(-1.16057e-07 -1.39306e-08 4.28087e-23)
(-4.81251e-06 3.89566e-06 0)
(-0.000193672 -7.195e-05 -5.28133e-22)
(6.66177e-05 -9.99676e-05 7.39871e-24)
(1.64649e-08 -5.96833e-08 0)
(6.72879e-07 3.567e-09 -4.25469e-22)
(-9.47816e-06 -3.71801e-06 0)
(-1.79742e-07 -3.3264e-08 0)
(-0.000142545 6.30494e-05 2.60165e-23)
(1.14184e-07 -8.64147e-06 -3.4069e-22)
(7.87005e-05 -0.000463929 -9.19149e-23)
(2.77085e-06 1.76911e-06 0)
(-5.41404e-08 5.0156e-07 0)
(4.00988e-07 -1.3214e-07 -1.49283e-22)
(-0.00047286 -9.09934e-05 -1.95413e-22)
(-7.59552e-08 4.64487e-07 0)
(-1.54525e-09 2.51299e-08 0)
(-1.67776e-07 4.61589e-08 0)
(4.04694e-07 -2.66054e-07 0)
(4.63407e-06 2.85742e-07 0)
(-3.63527e-08 9.37057e-09 -9.29388e-23)
(-6.72849e-08 3.09302e-08 1.24707e-22)
(-5.02588e-08 3.26134e-08 1.12884e-22)
(-2.60109e-07 1.76391e-07 -1.76629e-24)
(-2.35455e-06 2.84002e-05 -2.01104e-25)
(-5.1296e-06 4.06837e-06 9.05154e-25)
(-2.18384e-07 -2.78688e-08 -2.35837e-22)
(1.15298e-07 -1.1067e-07 1.99332e-22)
(-0.000155079 1.60807e-05 2.30184e-22)
(1.02411e-05 -4.05486e-06 -1.82e-22)
(4.27853e-05 0.000487162 3.51803e-22)
(-0.000142406 -0.000413246 2.8231e-22)
(-3.34069e-07 2.94225e-07 1.20183e-22)
(-1.1668e-07 -8.86897e-09 1.82448e-22)
(6.35895e-07 9.90492e-09 1.90951e-22)
(-6.41616e-08 4.62554e-08 0)
(-0.000196331 0.000244851 0)
(0.000247794 0.000357607 5.12617e-23)
(3.5948e-09 2.73176e-08 0)
(-1.22892e-07 -3.65044e-08 0)
(0.000336916 -0.000142841 2.24176e-22)
(9.84591e-05 1.29873e-05 -8.56693e-23)
(-1.91064e-07 9.9155e-07 -4.93214e-22)
(-0.000132191 0.000136507 2.77244e-22)
(-6.57671e-05 6.86285e-05 -1.54156e-22)
(-9.34501e-08 2.80365e-07 -3.55451e-23)
(-5.25778e-08 3.62677e-08 1.40764e-22)
(7.19923e-08 -1.73215e-08 1.48461e-22)
(3.84393e-05 -0.00010748 8.40338e-23)
(1.2793e-06 6.87422e-07 -2.62193e-22)
(1.07561e-06 -3.81732e-07 -2.79697e-22)
(3.82622e-07 -6.52769e-07 -1.51791e-22)
(-7.51053e-08 -7.93172e-08 0)
(-0.000486234 0.000296315 4.14201e-23)
(-4.20083e-08 4.46299e-08 1.48685e-22)
(-2.4073e-09 2.51496e-08 2.76039e-22)
(4.1706e-09 8.75838e-09 1.57598e-22)
(0.00029385 3.19174e-05 1.94713e-22)
(-1.92305e-07 -7.30875e-08 -1.39028e-22)
(1.32779e-08 -3.61987e-08 0)
(8.36353e-07 -2.05972e-07 -3.49067e-23)
(-1.70104e-07 -9.91544e-09 -3.83748e-25)
(-2.38883e-08 -7.52571e-08 0)
(0.000218244 -0.0006527 0)
(1.16093e-06 -2.67419e-08 4.24116e-23)
(4.49318e-07 -7.34485e-07 -1.72248e-22)
(-1.09485e-07 -1.83189e-08 1.81021e-22)
(-0.000302767 0.00255061 -3.21829e-22)
(3.28394e-07 -7.47723e-08 3.72461e-23)
(9.12168e-08 -8.03481e-06 4.76661e-22)
(6.33927e-08 1.61336e-08 1.46142e-22)
(-0.000483626 -2.04058e-05 -2.12391e-22)
(0.000169224 7.16831e-05 1.61515e-23)
(-0.000289048 -0.000436779 1.77828e-23)
(0.000363905 -0.000478546 0)
(2.67314e-09 2.33885e-08 -3.97548e-22)
(-2.72726e-08 -1.8214e-07 -1.7844e-22)
(-1.6726e-05 0.000329133 3.0832e-22)
(-7.91489e-05 -6.46727e-05 -3.72287e-22)
(2.36253e-07 -9.40188e-07 0)
(0.000561702 1.83131e-05 0)
(3.47737e-06 3.88044e-06 2.33031e-22)
(-0.000290844 0.00018308 -2.09736e-22)
(0.000362308 -0.000186305 -2.6445e-22)
(7.3728e-09 2.43584e-09 1.23522e-22)
(-0.000570991 1.41199e-05 -1.46211e-22)
(-0.000593479 -5.86103e-05 2.83508e-22)
(-0.00055349 -4.65054e-06 -6.27089e-24)
(0.000611187 0.00153935 3.09382e-24)
(4.45565e-06 5.55748e-06 -2.59016e-22)
(6.47569e-08 -1.0482e-06 2.87021e-22)
(-1.21489e-07 2.54436e-07 0)
(-0.000230281 -0.000192193 0)
(-2.86538e-08 1.33659e-08 1.52769e-22)
(2.92923e-07 -1.58978e-08 1.69181e-22)
(-3.31825e-07 2.80256e-07 1.30363e-22)
(-3.03702e-07 -5.51168e-07 1.42533e-22)
(-8.8822e-06 2.66792e-06 -2.02605e-22)
(-0.000504201 0.000660028 5.01111e-23)
(0.000100446 0.000142119 0)
(7.53851e-07 -3.98523e-07 3.32239e-22)
(-4.59685e-08 -1.98296e-08 -1.64061e-22)
(-3.52701e-07 1.60465e-07 3.23925e-22)
(2.78108e-08 8.32811e-08 0)
(8.76277e-09 1.69057e-08 1.72506e-22)
(1.75592e-07 3.37574e-07 -3.32365e-22)
(1.12656e-05 -4.47525e-06 1.14768e-22)
(1.2962e-06 1.45709e-06 0)
(1.39933e-07 5.61638e-07 0)
(0.000714474 -0.000855845 -2.36083e-22)
(-0.000195847 0.000318395 -2.46774e-22)
(-6.21392e-05 -1.61021e-05 1.99556e-22)
(-0.000182753 -4.03969e-05 0)
(-0.000248991 -9.69249e-05 4.82154e-22)
(-3.80184e-07 -5.58925e-07 -1.53553e-22)
(-9.52301e-09 -1.37346e-07 -1.92554e-22)
(-1.93577e-07 9.56586e-07 2.5838e-22)
(0.000218612 -8.50287e-06 -3.16277e-24)
(-1.32443e-07 8.24298e-09 0)
(0.000228234 -0.000587149 -5.02851e-24)
(6.85715e-05 0.000361777 -1.03405e-22)
(-1.69327e-08 6.98337e-09 0)
(-0.000668666 -0.00112418 -2.45317e-22)
(0.000213461 -0.000285681 -2.44095e-23)
(0.000161371 2.50644e-05 -6.70941e-23)
(0.000178092 0.000454008 -5.03562e-22)
(-0.00045328 -1.88825e-05 0)
(-5.69045e-07 -2.73374e-07 0)
(1.14481e-05 -9.32334e-06 9.07777e-23)
(-0.0002087 -9.12997e-05 9.63202e-23)
(-1.98193e-08 -1.83703e-07 2.13905e-22)
(-0.000556642 2.58797e-05 1.5836e-22)
(0.00014098 0.000122895 2.13567e-22)
(4.30476e-06 1.25735e-06 1.28394e-22)
(4.56132e-06 -1.3582e-06 3.00522e-22)
(-1.27074e-07 8.94566e-07 -2.07462e-22)
(-3.12192e-09 -1.2643e-07 6.17781e-23)
(-1.98133e-08 -7.37022e-08 0)
(-7.7879e-08 -3.46035e-08 -1.35458e-22)
(-1.16229e-09 1.56535e-08 1.72673e-22)
(9.11921e-05 8.54585e-05 -1.15248e-22)
(-1.08185e-07 -7.01303e-08 1.48332e-22)
(-1.12351e-05 7.06759e-05 -6.9987e-23)
(-2.53575e-07 2.82037e-08 -1.29557e-22)
(2.18354e-07 -4.89855e-07 -1.54293e-22)
(1.37965e-06 7.76592e-07 4.57195e-22)
(-1.21193e-07 -4.20718e-08 -1.51344e-22)
(-1.40761e-07 9.31658e-09 -4.12754e-25)
(-8.2907e-05 0.000384285 2.30812e-22)
(-0.000209203 -0.000396785 0)
(-0.000399823 -0.0001985 1.66068e-22)
(-1.2703e-05 6.78774e-05 0)
(1.61044e-05 -0.000143119 8.74779e-25)
(0.000478299 -2.54204e-05 2.84304e-23)
(8.48256e-07 -1.7699e-07 -3.92363e-22)
(-2.66576e-08 -6.71217e-09 1.65586e-22)
(6.7106e-08 2.26695e-08 -1.42958e-22)
(-1.12833e-07 -5.59855e-08 1.47747e-22)
(0.000269992 -0.000298275 1.10253e-22)
(-7.40542e-08 2.27365e-07 0)
(-0.000254494 4.38449e-06 -3.17019e-22)
(-4.63783e-08 4.18684e-09 0)
(-1.69358e-10 2.75349e-08 -5.53459e-22)
(-1.08466e-07 -9.03654e-08 -1.90594e-22)
(3.8808e-05 -8.66213e-05 0)
(6.58874e-05 -2.66617e-05 -1.54083e-22)
(8.47168e-05 6.62735e-07 0)
(-0.000380176 0.000122507 0)
(0.000178606 0.0003591 -2.55656e-22)
(2.09516e-07 -8.94668e-07 1.9998e-22)
(2.04962e-06 1.6617e-06 2.99526e-22)
(5.87134e-07 -9.39808e-06 0)
(-4.54695e-08 3.53929e-08 -1.0482e-22)
(2.56993e-08 6.5777e-07 3.01351e-22)
(-9.0904e-09 -7.41485e-08 -5.95976e-23)
(5.93529e-07 -9.65418e-07 -1.54619e-22)
(4.33226e-07 -9.1284e-08 5.12233e-25)
(9.14465e-09 -5.93705e-10 0)
(-0.0018504 -0.00199686 -2.00611e-22)
(5.67661e-08 3.51848e-08 -1.44863e-22)
(-1.25613e-07 -6.10809e-08 -2.50004e-22)
(-0.000135238 -0.000385071 -3.16998e-22)
(-0.000482364 0.00149455 -2.13014e-22)
(-6.26629e-05 0.00125978 0)
(1.60988e-06 -6.49383e-08 0)
(-5.09021e-06 2.8423e-06 -2.59703e-22)
(-0.000545008 -1.59237e-05 2.56862e-23)
(1.32149e-06 4.61637e-07 3.52132e-22)
(-4.16612e-08 3.72557e-08 2.84439e-22)
(-0.000161086 -0.000456735 -6.831e-23)
(-1.19791e-07 -5.08959e-08 0)
(-1.52338e-08 -6.08502e-08 -1.39413e-22)
(0.000316038 -0.000344931 0)
(-1.57352e-07 2.32943e-07 0)
(-7.99269e-08 5.2042e-08 -1.34125e-22)
(-1.21579e-07 -6.33179e-08 1.23381e-22)
(7.18202e-07 -1.2721e-06 0)
(-0.000450583 -5.61148e-05 -5.19089e-24)
(1.59726e-07 6.85725e-07 -2.92768e-22)
(0.000244443 -0.000237168 0)
(4.36133e-06 -1.64439e-06 0)
(0.00019554 0.00125567 3.45487e-22)
(-1.11821e-08 -4.91338e-08 0)
(-5.16316e-05 -6.1112e-06 2.01899e-22)
(-3.0609e-08 6.90767e-08 0)
(-4.55123e-06 -4.84365e-05 2.81654e-22)
(0.000611193 -0.00148108 0)
(-1.3068e-06 1.83057e-06 -2.30493e-22)
(-1.31914e-07 -6.6007e-08 1.54752e-24)
(0.000226066 -3.25258e-05 0)
(-1.10548e-07 -2.07924e-08 0)
(1.10585e-05 -6.10314e-06 -5.45255e-22)
(-1.44248e-09 3.45871e-08 0)
(1.35602e-07 -9.08735e-08 -2.53651e-22)
(2.94895e-07 1.61498e-07 1.11759e-22)
(-0.00188154 -0.00191599 9.16289e-23)
(6.21596e-09 2.71071e-10 3.0233e-22)
(-2.38479e-07 -5.68065e-07 -1.26649e-22)
(-7.78066e-05 0.00290401 5.61087e-22)
(-2.60132e-08 -1.24689e-07 0)
(1.46176e-06 -2.39838e-08 0)
(1.75013e-07 3.55198e-07 0)
(-0.000185608 0.00029703 1.91241e-22)
(4.19314e-05 0.000229155 -2.32272e-22)
(-6.53028e-07 9.97437e-06 -4.23332e-22)
(-9.58864e-08 4.8057e-08 1.91971e-23)
(0.000162661 7.3089e-05 0)
(-1.00777e-07 -4.69031e-08 2.54751e-24)
(1.65354e-06 -1.08919e-05 -1.41149e-22)
(-0.000406119 0.000115365 1.1158e-22)
(1.27386e-06 8.15714e-07 3.159e-22)
(1.1013e-06 -2.91767e-06 0)
(-1.09181e-07 2.99592e-08 -4.20512e-23)
(3.2482e-07 4.10516e-07 2.69837e-22)
(6.51183e-09 1.18831e-10 -2.41677e-22)
(-0.000269732 0.000459669 0)
(-1.78578e-08 -3.47539e-08 4.26664e-22)
(-5.53609e-08 4.67229e-07 0)
(-6.49984e-08 4.5442e-08 0)
(2.09106e-08 8.67254e-08 1.28765e-22)
(-9.34284e-05 0.000406547 -6.25208e-22)
(-3.18789e-08 2.87035e-08 1.55405e-22)
(-1.22887e-07 -1.26781e-07 -1.95847e-22)
(2.02522e-06 -2.25046e-05 1.74646e-22)
(-0.000166057 -0.000383095 1.42753e-25)
(6.40396e-08 1.28507e-07 0)
(3.20689e-07 -3.49667e-08 1.15516e-22)
(-2.17704e-09 5.41254e-08 -7.76931e-26)
(1.61836e-06 -1.48395e-06 4.11602e-22)
(-5.15882e-05 -0.000105951 -1.47638e-24)
(-9.52411e-05 0.000199162 8.63446e-23)
(-1.30807e-05 6.84979e-05 0)
(1.42214e-07 6.21572e-07 -1.32569e-22)
(-0.000462782 -0.000111607 9.3776e-23)
(3.98071e-08 6.52264e-07 -2.5841e-22)
(-1.97191e-07 -4.34853e-07 0)
(1.88288e-10 3.54907e-08 -1.08184e-22)
(-1.36915e-08 -2.8076e-09 -2.86537e-22)
(-4.31049e-08 -2.44171e-08 1.84615e-22)
(-5.79129e-09 1.8014e-09 1.22533e-24)
(0.000926595 0.00243303 0)
(9.20093e-07 -3.17044e-07 3.15473e-22)
(-3.32337e-09 3.84648e-08 1.1392e-22)
(0.000268077 0.0011336 -8.40066e-22)
(1.81343e-08 9.04486e-08 2.11075e-22)
(-0.00068878 -0.000162534 -1.72079e-23)
(-0.000228493 -0.000402735 0)
(3.71614e-06 6.03215e-07 -6.09649e-23)
(0.000216136 0.000591951 0)
(1.75315e-06 -6.00956e-08 0)
(-0.000205013 0.000353991 3.83621e-22)
(4.38018e-07 1.09764e-05 3.10898e-22)
(-1.3103e-07 2.75377e-09 0)
(3.04683e-09 2.88043e-08 1.27815e-22)
(2.55027e-07 2.45144e-07 2.94631e-22)
(5.52731e-08 3.13734e-07 0)
(4.09734e-08 1.62786e-07 1.69214e-22)
(0.000143913 -0.000128544 -5.29424e-23)
(2.65986e-06 -1.28251e-06 -2.50192e-22)
(-1.15943e-07 -9.16529e-09 0)
(1.80565e-06 1.48772e-06 0)
(-0.000100547 9.40787e-05 0)
(0.00025693 -0.00031361 -2.09499e-24)
(-5.72938e-07 1.66329e-07 2.61394e-22)
(1.76214e-06 -2.85234e-07 0)
(-2.78112e-07 8.62978e-07 -3.46725e-22)
(-6.52605e-06 2.51411e-05 0)
(-6.01588e-07 -3.34963e-07 0)
(-2.99469e-08 3.22733e-09 1.40631e-22)
(-8.2873e-05 -0.000154986 -2.19016e-22)
(-7.44463e-08 7.19355e-09 9.26035e-25)
(7.87845e-08 1.09479e-07 0)
(-2.83131e-08 2.91069e-06 3.85651e-22)
(2.78919e-08 8.39865e-09 0)
(0.000114851 -0.000623508 1.51328e-22)
(2.16591e-06 3.85894e-06 -3.79349e-22)
(1.17835e-08 -8.40715e-10 2.30437e-22)
(-1.51054e-06 4.79311e-07 -5.02887e-22)
(-3.67414e-09 3.83944e-08 -6.66392e-23)
(-6.19562e-08 4.62592e-08 0)
(-0.000199371 7.11735e-05 -1.42736e-22)
(-8.42041e-07 -1.81682e-07 -3.17652e-22)
(-3.88018e-08 -2.58849e-09 0)
(-5.0535e-05 1.05426e-05 1.92441e-22)
(-1.27751e-07 -7.88313e-08 8.76725e-23)
(-9.12298e-09 4.06531e-08 2.06793e-22)
(2.32563e-06 -8.08931e-07 -3.94844e-22)
(0.000455044 0.000145563 -1.57755e-24)
(-4.05387e-08 -5.35896e-08 -2.80393e-23)
(-3.45386e-08 4.90741e-08 1.99547e-22)
(-5.96489e-09 8.15713e-09 -2.82759e-22)
(1.08319e-07 -1.49933e-07 1.6039e-22)
(0.000235197 9.40295e-05 0)
(-3.39116e-08 -6.06893e-08 2.08612e-23)
(-1.34371e-07 5.18037e-09 0)
(0.000410923 0.0025244 0)
(-5.14708e-08 5.98074e-08 0)
(-1.00269e-07 1.74394e-07 8.58743e-23)
(-0.000442799 -0.000247895 1.65451e-22)
(-3.70694e-08 -4.23112e-08 -1.72443e-22)
(0.000127431 -0.000696923 -1.81966e-22)
(-1.63179e-08 2.67332e-08 2.86731e-22)
(-0.000111449 -0.000150117 2.38273e-22)
(-0.000196285 4.87457e-05 0)
(0.000106951 -0.000606629 0)
(-1.12393e-07 -1.66363e-08 -9.54535e-23)
(-2.9868e-08 -1.35342e-07 -1.51199e-22)
(4.11497e-06 -1.61845e-06 0)
(2.66628e-08 -1.06817e-06 0)
(-2.15853e-08 2.44001e-08 -3.01882e-22)
(-1.4402e-07 -1.15101e-07 3.46659e-24)
(-4.93088e-09 2.36005e-09 -1.38129e-22)
(-1.42572e-06 7.09198e-07 1.36592e-22)
(-1.00744e-07 2.38289e-08 -1.25973e-22)
(1.49706e-07 2.91485e-06 -3.97641e-22)
(1.62536e-06 1.37117e-06 -3.04232e-22)
(-1.83049e-07 -5.4229e-07 0)
(-0.000215316 -0.000315395 -1.18624e-22)
(7.52225e-05 -2.70551e-05 0)
(0.00111853 0.00144068 4.29893e-23)
(-2.60414e-07 2.90051e-09 2.09623e-22)
(-1.06845e-08 5.0509e-08 -1.56775e-22)
(1.03017e-05 -8.33706e-05 -8.28228e-23)
(-3.09725e-08 -5.6691e-09 0)
(1.27859e-06 -3.08899e-06 2.25089e-22)
(-0.00017459 1.37438e-05 0)
(9.48505e-08 2.68284e-07 3.59696e-22)
(-8.77559e-05 -0.000149345 0)
(-0.000424595 -0.000123865 0)
(-5.89368e-09 2.86184e-09 -2.00329e-22)
(0.000109133 0.0010948 -1.74522e-22)
(5.39747e-06 -6.26257e-05 -9.47678e-23)
(8.85897e-07 -2.80835e-07 -2.72171e-22)
(-1.17912e-07 -4.62015e-08 1.07327e-22)
(0.000664195 0.000283768 -1.92914e-22)
(-0.000244185 -4.90236e-05 -9.57585e-23)
(-8.13494e-09 -2.29944e-09 0)
(6.61104e-09 3.46126e-10 -7.65022e-23)
(-4.99451e-09 2.36143e-08 -1.76753e-22)
(-9.63568e-05 -1.91849e-05 -1.17023e-22)
(-1.46268e-05 -1.38813e-06 0)
(-0.000275039 -0.000395243 -1.46144e-23)
(0.000261829 0.000216566 0)
(-4.00923e-08 4.9796e-08 1.74014e-22)
(1.08778e-05 -3.61743e-07 0)
(8.78143e-06 1.07964e-05 -2.12432e-22)
(0.000105455 0.000290831 0)
(1.48071e-06 -1.03205e-05 1.61948e-22)
(1.48983e-06 -1.4675e-06 0)
(5.36373e-07 1.27061e-06 -9.35382e-23)
(3.25861e-08 -2.33709e-07 -3.7446e-22)
(0.000222933 0.000151511 -2.23302e-22)
(-0.000385432 1.65572e-05 -1.2926e-22)
(8.25238e-08 2.58587e-06 -7.78962e-25)
(0.000220569 0.000400989 -1.52365e-22)
(-2.02026e-08 7.2445e-09 3.34883e-22)
(-7.11202e-09 2.09159e-08 -1.90995e-22)
(-6.44425e-08 -1.40086e-07 0)
(-1.13371e-06 1.77595e-06 0)
(-5.01693e-09 -3.51782e-08 -3.47332e-22)
(0.000227797 -2.20886e-05 -2.17053e-22)
(-1.33813e-08 -6.61708e-08 1.78511e-22)
(-0.000519642 -1.98097e-05 -3.18917e-22)
(-0.000317828 -0.00046074 -1.13642e-22)
(-1.36361e-06 6.69811e-07 1.01846e-22)
(5.85008e-07 4.48451e-06 0)
(9.86224e-08 -1.95491e-07 1.77802e-22)
(-4.11352e-08 3.7104e-08 0)
(-0.000440046 -0.000176058 -3.79928e-22)
(2.59069e-07 -8.64801e-07 3.77802e-22)
(-0.00052145 -1.41167e-05 3.6582e-23)
(1.53678e-10 -7.93045e-09 3.18174e-22)
(-7.722e-08 -1.36835e-07 -8.71726e-24)
(-1.97473e-08 -5.82849e-08 -3.14522e-22)
(1.52781e-09 7.42304e-09 -3.21362e-22)
(8.91344e-06 1.59432e-06 -5.90634e-23)
(1.55095e-06 2.07623e-08 0)
(-0.000162172 0.000198067 -5.81748e-24)
(0.000139333 0.000250694 2.83609e-22)
(-3.28625e-08 -1.25526e-07 0)
(1.85913e-07 -4.66455e-07 4.55313e-22)
(1.60182e-06 -2.5398e-07 2.46986e-23)
(-6.10521e-05 -3.42933e-05 -2.15214e-22)
(1.06156e-06 -1.87614e-06 -7.29754e-24)
(-7.93877e-07 -1.16392e-08 0)
(-2.52758e-08 -1.58001e-07 -4.01012e-22)
(0.000685263 0.000301485 0)
(-1.92688e-07 -8.19859e-08 -1.38338e-22)
(0.000176951 -0.000762068 -5.1823e-23)
(-5.75833e-09 -1.35965e-07 -2.59265e-22)
(0.000707268 0.000864739 8.77699e-24)
(0.0003323 -1.42336e-05 -1.16547e-22)
(-4.85963e-09 -3.36523e-08 1.91041e-22)
(-5.08534e-08 3.95989e-08 -1.19848e-22)
(-2.65744e-06 -1.73249e-06 -1.9416e-22)
(1.1603e-09 -2.59181e-08 -1.43185e-22)
(-1.94343e-08 1.93691e-08 4.95267e-25)
(1.30937e-06 4.05071e-06 0)
(3.63335e-07 -4.0086e-07 7.22436e-25)
(-0.000515492 -0.000120858 1.72512e-22)
(6.72161e-06 -7.96021e-06 0)
(1.29298e-05 -0.00102387 0)
(-2.99426e-08 3.15444e-08 0)
(0.000594169 5.48636e-05 9.64223e-23)
(0.00216843 -0.001786 0)
(-3.04812e-06 -1.87484e-06 1.96349e-24)
(1.26759e-09 -2.3219e-08 0)
(-0.000424021 6.17109e-05 -4.31214e-22)
(-8.04487e-09 3.69563e-08 -8.78328e-23)
(-0.000257328 -0.000235528 0)
(-4.41195e-08 -2.1774e-08 2.09574e-22)
(-7.51728e-09 -5.08588e-08 0)
(-0.00040306 -7.54863e-05 2.02807e-22)
(-1.02344e-05 -4.92319e-05 2.1582e-22)
(-8.2295e-05 -0.000166252 2.86199e-22)
(1.04811e-05 5.92916e-07 0)
(-2.82606e-07 -3.13313e-07 3.61273e-22)
(-4.72814e-08 6.66635e-09 0)
(0.000132903 0.000433688 -1.53333e-22)
(-1.0479e-08 2.88521e-08 -2.39519e-22)
(-0.000301419 0.00146973 -2.05172e-22)
(-0.00080322 -0.000233393 2.16001e-22)
(1.84397e-06 -2.76084e-07 4.65534e-22)
(-7.22033e-09 -1.95928e-08 1.62095e-22)
(-5.97043e-08 5.01411e-08 1.431e-22)
(4.34381e-06 -4.20808e-06 -2.86535e-22)
(5.86768e-07 1.3911e-06 -9.56247e-23)
(2.97386e-09 3.2468e-08 0)
(-7.60912e-06 3.29107e-07 0)
(6.98869e-06 4.48681e-06 0)
(3.39033e-06 3.44794e-07 6.82168e-23)
(-3.65762e-08 -7.21803e-08 1.10674e-22)
(0.000350449 -0.00016031 1.13381e-22)
(0.000505244 0.000164792 2.69616e-23)
(-0.000127417 -4.48309e-05 0)
(-5.98364e-08 3.65256e-08 0)
(2.11066e-06 -1.07874e-06 -1.35184e-22)
(-2.29816e-08 -2.5196e-08 -2.53896e-22)
(3.1442e-07 -3.26748e-07 -3.03813e-22)
(7.57919e-07 -2.99777e-07 -2.44384e-22)
(-0.000338213 3.78844e-05 2.31092e-22)
(2.46415e-07 -2.81626e-07 1.90717e-22)
(-0.000209723 0.000261857 1.59034e-22)
(1.57537e-06 -5.32877e-07 3.19732e-22)
(3.90025e-05 -9.2184e-05 0)
(0.000220712 0.000175492 1.23559e-22)
(7.18284e-08 3.20828e-07 0)
(-0.000356774 5.38302e-05 2.30977e-22)
(-0.00010157 0.00238716 -1.61726e-22)
(-2.83997e-09 1.93367e-08 1.04484e-22)
(2.61122e-06 -9.23965e-07 -1.71026e-22)
(2.00505e-05 -8.50055e-05 -2.33609e-23)
(1.35455e-06 5.39643e-07 -3.87446e-22)
(3.40255e-07 -1.70217e-07 -5.23933e-23)
(-2.07923e-07 8.35877e-07 7.11574e-23)
(-8.143e-07 -6.96433e-08 -6.84443e-23)
(0.000213226 -0.00245911 0)
(-8.07048e-09 -2.37759e-09 3.35446e-22)
(3.04521e-06 3.35691e-06 -2.48523e-22)
(3.65833e-09 -6.65273e-10 -3.56418e-22)
(1.91976e-07 2.54435e-07 -3.47605e-23)
(-0.000173599 0.000328978 -1.66253e-22)
(0.000116586 -0.000420913 -3.75038e-23)
(-5.0789e-06 3.88965e-08 2.93395e-22)
(-8.17684e-08 3.15691e-08 0)
(1.56342e-08 1.93597e-09 3.32415e-22)
(-1.57448e-08 -3.30812e-08 -4.54367e-22)
(-2.34697e-07 4.97248e-08 -2.36697e-22)
(6.97709e-07 7.66581e-07 -1.36076e-22)
(0.000590844 0.000217764 -8.97099e-23)
(2.65495e-06 -9.20096e-06 0)
(-5.64645e-05 1.17984e-05 1.4045e-22)
(-0.000364687 1.43115e-05 0)
(-4.12218e-06 4.31801e-06 0)
(-9.95361e-08 -2.53149e-07 4.36983e-22)
(-0.000554086 1.38195e-05 4.49739e-22)
(-3.99483e-08 1.44986e-07 -3.90452e-23)
(0.000221621 0.000342003 -1.22123e-22)
(-3.77902e-08 6.08774e-07 -1.34265e-22)
(3.47974e-10 4.68078e-09 0)
(-7.63882e-08 5.34469e-08 4.81219e-23)
(2.44873e-06 -1.26089e-06 -6.00694e-22)
(-4.09222e-06 1.15238e-05 3.9686e-23)
(-1.39664e-08 2.62739e-09 -1.62474e-22)
(-1.36788e-07 -5.1914e-08 5.90939e-23)
(3.45296e-06 1.90902e-06 -1.42397e-22)
(-3.43231e-05 6.9772e-07 1.97221e-22)
(-1.48679e-07 -1.37542e-07 -3.68285e-22)
(-0.000158883 3.81814e-05 -3.30647e-22)
(-4.50198e-08 1.21007e-07 5.18993e-22)
(-0.000155072 4.73776e-05 1.85085e-22)
(1.45938e-05 -5.31462e-06 0)
(-3.8527e-07 9.04787e-07 0)
(5.45256e-06 -2.67804e-06 5.77529e-22)
(3.50334e-09 -3.50476e-09 0)
(-9.62611e-08 2.56361e-08 2.84722e-22)
(-4.47715e-06 -0.000110736 1.39688e-23)
(5.58446e-05 0.000390943 2.4167e-22)
(-1.12081e-07 -4.84782e-08 2.59852e-22)
(-1.85467e-06 -4.6043e-05 0)
(-6.61672e-08 3.52564e-08 -5.39127e-23)
(9.94915e-09 -4.56163e-08 1.95631e-22)
(-3.33601e-08 -7.74127e-08 -1.98527e-22)
(-2.41569e-07 5.08013e-08 3.79331e-22)
(0.000225885 0.000347673 0)
(4.14124e-08 1.54409e-07 -1.47108e-22)
(2.76321e-07 -2.73775e-07 -7.16957e-23)
(1.18457e-08 -2.13419e-07 0)
(-2.6295e-07 9.32185e-07 3.31667e-22)
(-6.52707e-08 3.62853e-08 0)
(6.72528e-07 3.88235e-06 9.57731e-23)
(3.13534e-07 -8.40374e-07 1.12042e-24)
(-3.35732e-09 -2.00026e-08 4.78679e-25)
(-4.60743e-08 -5.04265e-08 1.89866e-22)
(5.20185e-06 -7.23535e-06 0)
(4.25601e-06 3.61027e-07 0)
(0.000368361 -0.00185204 -1.11757e-22)
(0.000111236 -0.00066637 -1.51023e-22)
(1.29546e-09 1.9096e-08 -1.03345e-22)
(-3.5027e-08 6.61136e-08 -1.47515e-22)
(4.50244e-10 3.98254e-09 -2.62146e-22)
(-0.000327612 -0.000161189 0)
(-9.39327e-08 1.72596e-07 1.49692e-22)
(2.69246e-06 9.92431e-06 -3.4906e-22)
(0.000163362 -0.000369762 -1.70832e-23)
(-8.84418e-07 -2.72419e-07 -1.35374e-22)
(1.55066e-06 -3.27434e-07 -2.04455e-23)
(-0.000269588 6.32237e-05 -1.546e-22)
(-2.42542e-08 -5.19613e-08 3.84399e-22)
(-1.07153e-08 2.8975e-08 -2.55067e-22)
(-5.9823e-09 4.37377e-09 0)
(-1.41709e-08 -1.73858e-07 3.50301e-22)
(-7.6208e-05 -4.08281e-05 5.29961e-23)
(-7.35633e-09 5.3953e-09 0)
(1.33385e-08 -1.82074e-08 0)
(0.000663316 -0.000788364 9.84904e-23)
(-4.09538e-05 7.52401e-05 0)
(8.58206e-09 -1.06912e-08 2.31568e-22)
(-1.71006e-07 1.14595e-08 -1.93532e-22)
(-0.000155071 0.000317711 3.19601e-23)
(-0.000106146 0.000140009 -6.09442e-22)
(7.00444e-06 5.05278e-06 1.91127e-22)
(-6.1122e-07 4.49041e-07 3.92278e-23)
(1.39714e-06 2.84397e-08 0)
(0.000265015 0.000201596 0)
(-4.1554e-06 4.11676e-06 0)
(-3.63378e-06 -0.00049471 9.22658e-23)
(0.000515529 -0.000369495 2.37681e-22)
(-1.11046e-06 7.75518e-05 -3.52077e-22)
(0.000137542 -3.99948e-05 4.93454e-22)
(-2.26257e-07 -2.42604e-09 2.17837e-22)
(-7.24212e-07 -3.82671e-07 2.1657e-22)
(0.000333847 0.00019679 5.6264e-22)
(6.24572e-09 1.5092e-09 0)
(0.00125322 0.00116729 -2.85436e-22)
(4.65394e-07 -4.64675e-07 0)
(1.33765e-09 8.2811e-09 2.30582e-22)
(-0.000106699 0.00046329 -9.23106e-23)
(3.90942e-06 -4.13249e-06 0)
(1.32426e-06 6.86975e-06 0)
(-0.000503277 -0.000145956 -1.62683e-22)
(-1.78798e-06 -2.14386e-05 2.26673e-22)
(-2.93838e-08 4.14368e-08 -1.50569e-22)
(-0.000376987 -0.000135097 2.25935e-23)
(2.60923e-09 7.84098e-10 0)
(-1.48985e-07 -1.18056e-07 -2.96782e-24)
(1.13424e-06 -7.41787e-07 5.72797e-22)
(3.00628e-07 4.52654e-07 -3.03275e-22)
(1.18847e-09 3.61054e-08 0)
(-0.0001473 0.000102871 0)
(-0.000353522 -2.70429e-05 1.30822e-22)
(-3.78536e-07 -1.18038e-05 -3.44986e-23)
(0.000134372 -0.000287626 0)
(-4.32718e-07 1.39212e-07 7.65262e-23)
(0.000317521 -3.60893e-05 0)
(0.000580739 0.00412282 -1.66812e-21)
(-8.23974e-07 -4.73112e-07 -2.77534e-22)
(0.000284097 -0.000294664 -4.13894e-23)
(4.82795e-07 -5.10227e-07 0)
(5.98258e-09 -3.53527e-10 1.0335e-22)
(3.82651e-08 -9.93205e-09 0)
(-3.22e-08 -1.13641e-07 0)
(-8.6956e-08 3.10513e-08 3.66368e-22)
(-0.000114867 3.1881e-05 1.31353e-22)
(2.54751e-06 -4.39833e-07 -4.14717e-22)