/*--------------------------------*- C++ -*----------------------------------*\
| =========                 |                                                 |
| \\      /  F ield         | OpenFOAM: The Open Source CFD Toolbox           |
|  \\    /   O peration     | Version:  v2012                                 |
|   \\  /    A nd           | Website:  www.openfoam.com                      |
|    \\/     M anipulation  |                                                 |
\*---------------------------------------------------------------------------*/
FoamFile
{
    version     2.0;
    format      ascii;
    class       volScalarField;
    location    "300";
    object      k;
}
// * * * * * * * * * * * * * * * * * * * * * * * * * * * * * * * * * * * * * //

dimensions      [0 2 -2 0 0 0 0];


internalField   nonuniform List<scalar> 
14804
(
0.0232934
0.000146405
0.000189516
0.000161327
0.000166359
0.000180212
0.000151407
0.000148691
0.000191288
0.000149166
0.000243748
0.000190978
0.000149397
0.000167065
0.000200589
0.0548456
0.00016715
0.000159938
0.00533583
0.000173869
0.00014994
0.00015405
0.000162633
0.000150273
0.0169277
0.000150263
0.000166401
0.000166211
0.0211967
0.000150415
0.000146331
0.000161167
0.000173832
0.000170214
0.000189436
0.000151413
0.000660763
0.000149579
0.0321712
0.000173437
0.000189525
0.000188358
0.000177833
0.000147663
0.000166306
0.000151373
0.00514659
0.000149203
0.00015444
0.000223334
0.000149493
0.000145937
0.000148069
0.000154536
0.00023509
0.00571983
0.000231448
0.0201047
0.000148735
0.000151474
0.0117895
0.000149642
0.000147649
0.00892965
0.000147637
0.000148212
0.000149873
0.000150876
0.000148231
0.035469
0.000146853
0.000165409
0.000242883
0.0405219
0.000150076
0.0357442
0.0485747
0.00014636
0.000164736
0.000144128
0.0448066
0.000148201
0.000144343
0.000150101
0.000149687
0.000200483
0.000145443
0.000152131
0.000145966
0.000166144
0.000165326
0.000153092
0.00018636
0.000146308
0.000225713
0.050823
0.0217385
0.000160567
0.000149856
0.000257178
0.020718
0.0354607
0.000149755
0.000169197
0.00020625
0.0365758
0.000190717
0.000204202
0.000148363
0.000146502
0.000147826
0.0213772
0.000186539
0.0260094
0.0213083
0.0398433
0.000212837
0.00016608
0.000149658
0.000160362
0.0481022
0.000145981
0.000153089
0.000170908
0.000148782
0.000149697
0.000212178
0.00016822
0.000163539
0.000165255
0.000165097
0.000201763
0.0305684
0.000240044
0.0026801
0.000170361
0.000147704
0.00191826
0.00014995
0.000170437
0.000147082
0.0441228
0.000148659
0.0246571
0.0259414
0.000148339
0.000205457
0.000148371
0.000228015
0.00658782
0.000191296
0.00724744
0.000174089
0.000169326
0.00014427
0.0219942
0.000164466
0.000252036
0.020038
0.000246799
0.000146877
0.000147488
0.0309781
0.00861487
0.000155827
0.0221328
0.000149331
0.0123734
0.000150296
0.000148686
0.000244701
0.000154471
0.000195566
0.000198504
0.000967217
0.000240591
0.000161098
0.00017241
0.000144874
0.00023908
0.000180225
0.0556354
0.000150937
0.000157064
0.000152775
0.0221372
0.000179383
0.000178212
0.000157882
0.00014463
0.000176883
0.00782426
0.000148523
0.00264361
0.000162551
0.000147215
0.0346733
0.000149261
0.000177912
0.0158355
0.0259548
0.000144598
0.000153074
0.000188411
0.000151085
0.0188537
0.000163764
0.000431555
0.00016707
0.000151494
0.000150308
0.011182
0.000151066
0.000146875
0.000150618
0.000150165
0.000168513
0.00014724
0.000148153
0.000147535
0.00015708
0.000187661
0.000177997
0.0001541
0.000147221
0.000313514
0.000173499
0.00244186
0.0304947
0.000153589
0.000146318
0.000152685
0.000148169
0.0355168
0.0402004
0.000149751
0.000151248
0.000204819
0.000196998
0.0001563
0.0410936
0.000202635
0.000149805
0.000147598
0.000145771
0.000202374
0.000159674
0.00015571
0.000162595
0.000146759
0.0456846
0.000147207
0.000147136
0.000146389
0.0275767
0.000150903
0.000144672
0.000154243
0.000146716
0.000148432
0.00979712
0.000157921
0.000163502
0.000149048
0.00035695
0.000149614
0.00016324
0.000145611
0.0190867
0.0127141
0.0539222
0.0597736
0.000149778
0.000148762
0.0492015
0.000203166
0.000152355
0.0227446
0.000170178
0.0364328
0.000205452
0.00014657
0.014792
0.0115333
0.049814
0.000562791
0.000170893
0.000152312
0.000157807
0.00021338
0.000147155
0.000149292
0.000153959
0.000150239
0.000179158
0.00021744
0.000203642
0.000163364
0.000147241
0.000157873
0.000145471
0.000146616
0.000158991
0.000173761
0.000164258
0.000150707
0.0170848
0.0369273
0.000198495
0.0244879
0.0173354
0.000150288
0.000155911
0.000156057
0.0277473
0.000150666
0.00935314
0.000212361
0.000143853
0.050567
0.000203922
0.000211823
0.00183257
0.0156493
0.000149684
0.000172982
0.000211174
0.00014879
0.000834441
0.0227128
0.000169136
0.00016645
0.000160795
0.000155385
0.000148466
0.000146118
0.000146681
0.0262179
0.000150527
0.000195517
0.00015395
0.000149735
0.00016016
0.000149498
0.000146317
0.0237857
0.0504156
0.0339163
0.000192646
0.0303098
0.022633
0.000154218
0.000148136
0.000145563
0.000150501
0.000204742
0.00014945
0.00575624
0.000144543
0.000147102
0.00015036
0.000198237
0.000185595
0.000195202
0.0621647
0.0392844
0.000152055
0.000164865
0.000178553
0.000147327
0.000153207
0.000149044
0.000164402
0.000150452
0.000146309
0.032196
0.00014571
0.000149741
0.0304967
0.000254416
0.001017
0.000160543
0.000175983
0.0527545
0.000159669
0.000147267
0.0559354
0.000151363
0.000148528
0.05531
0.000157311
0.000144795
0.000150335
0.000154458
0.0266312
0.000153319
0.000229208
0.000165764
0.0655308
0.000149107
0.000197018
0.000147517
0.000207289
0.0266611
0.000164803
0.000154105
0.000218659
0.000149407
0.000173294
0.000149766
0.000147422
0.000159398
0.0386937
0.000149147
0.000150337
0.00031076
0.000148584
0.000160579
0.000150265
0.0230326
0.00021326
0.000179078
0.000145061
0.0310402
0.000153984
0.00016637
0.0608733
0.000163517
0.00015818
0.000145723
0.000152365
0.000150114
0.000236111
0.000148379
0.000151445
0.000148331
0.000145457
0.0233668
0.000147138
0.000150244
0.000172203
0.0486459
0.000146577
0.000149604
0.000145495
0.000157803
0.0275463
0.0303753
0.000203875
0.000153073
0.0343907
0.000153132
0.000149659
0.000149752
0.000148866
0.000147491
0.000158942
0.0339802
0.000154516
0.000149693
0.00504689
0.00014545
0.000252868
0.000222389
0.000166951
0.00292549
0.000160657
0.0366623
0.000179211
0.000149729
0.000149692
0.000159235
0.000148584
0.000146539
0.0292711
0.000161047
0.000149279
0.000163676
0.0213219
0.0497828
0.0001703
0.000159673
0.00015581
0.000187684
0.000149904
0.000156261
0.034461
0.000148354
0.000146589
0.000166281
0.000156444
0.00047405
0.000169932
0.000145957
0.00016328
0.000149684
0.00014834
0.0120162
0.000170771
0.000147407
0.000195635
0.000150216
0.000147037
0.000165437
0.0457566
0.000148375
0.00014759
0.00014542
0.00014711
0.014189
0.000148407
0.00014966
0.0050471
0.00014814
0.000149964
0.0652078
0.000148301
0.00051856
0.000143729
0.000212465
0.0101589
0.000269066
0.0001491
0.000148604
0.000165048
0.000152589
0.000143792
0.000151783
0.00014545
0.000162809
0.000145741
0.000165454
0.000166912
0.000150198
0.050103
0.000186847
0.0464383
0.000154325
0.000143722
0.000196395
0.000148093
0.000158717
0.000208294
0.000158678
0.000208183
0.0344795
0.000147462
0.0696154
0.000192823
0.000154423
0.000154098
0.0672152
0.0595372
0.000144114
0.000146529
0.00014669
0.000207929
0.000188493
0.0590653
0.0460073
0.000147614
0.000178952
0.000177074
0.000370704
0.000165658
0.000157178
0.000158554
0.000146731
0.000204564
0.060021
0.000164631
0.000175147
0.000143865
0.000146744
0.0001471
0.000163581
0.000145869
0.0002103
0.000148505
0.00564098
0.000233048
0.000161995
0.00017082
0.000146741
0.000147272
0.0341102
0.000151809
0.00598483
0.000146242
0.00014713
0.000146904
0.000149695
0.000176518
0.000160827
0.0419318
0.0441898
0.000148543
0.000149696
0.000159182
0.000194179
0.000170975
0.000159975
0.000146669
0.000276616
0.000152925
0.0216657
0.000145036
0.000238174
0.0138854
0.000145796
0.000147546
0.000170066
0.000149946
0.000143801
0.000169745
0.000150114
0.0137739
0.000178498
0.000355135
0.000147069
0.000240587
0.00166858
0.000170285
0.000149945
0.0141884
0.000146762
0.000209128
0.000148171
0.000149114
0.0102516
0.000192738
0.000318114
0.000178651
0.000159529
0.000144591
0.0414315
0.00014685
0.0146992
0.000282301
0.000159681
0.000145709
0.000147763
0.000165038
0.000159403
0.000149516
0.000185946
0.000171346
0.000165744
0.000148529
0.0504678
0.0446551
0.000242985
0.000147592
0.000165427
0.000144192
0.00014951
0.000163269
0.0183875
0.000159729
0.0364284
0.000164308
0.000199832
0.000205665
0.000148705
0.060927
0.00937001
0.000146777
0.000161131
0.000197165
0.000160014
0.000160388
0.000155157
0.000160717
0.00241625
0.000145582
0.000170217
0.000146158
0.000149398
0.0224093
0.0518534
0.000173696
0.000148259
0.000144761
0.000144166
0.000152758
0.000162408
0.0636044
0.000178583
0.000211483
0.00612104
0.000176942
0.000158995
0.0125677
0.000148619
0.0390475
0.000151686
0.000147011
0.000148135
0.000160179
0.000181301
0.000145396
0.000154348
0.000168997
0.000192954
0.000158725
0.000207312
0.000148333
0.00020571
0.00017552
0.000170116
0.000168015
0.000148959
0.000149167
0.024773
0.0404051
0.000148615
0.000192676
0.000148258
0.000144679
0.000148536
0.000153125
0.000182963
0.000146398
0.000161911
0.000146858
0.000156054
0.000147767
0.000169591
0.000151825
0.000145765
0.000148389
0.000177667
0.00017052
0.00318934
0.000953473
0.000146838
0.000147537
0.000147163
0.0211297
0.000157024
0.000177935
0.0503238
0.000161109
0.000158525
0.0214565
0.000146979
0.000146901
0.000147453
0.000146699
0.000195627
0.000148293
0.000144681
0.000248091
0.000196717
0.000156053
0.000146477
0.0234789
0.0456753
0.000176558
0.000156093
0.00016089
0.00153903
0.000176198
0.00825422
0.000279108
0.000192589
0.0193564
0.000152908
0.000161698
0.000223769
0.00014652
0.000278141
0.000151057
0.000149601
0.0621768
0.000164228
0.000171904
0.0148518
0.000193199
0.000147072
0.0212042
0.000146341
0.000151587
0.000154933
0.000152233
0.000149527
0.036961
0.0600414
0.000166165
0.000202763
0.000155283
0.0148805
0.00346897
0.000162471
0.0495328
0.000151062
0.000146323
0.00014535
0.000148538
0.000148286
0.00698812
0.000161558
0.0508693
0.000213389
0.000149383
0.000178154
0.000160393
0.000146922
0.000149258
0.0531697
0.0111878
0.000150109
0.000177836
0.000149547
0.000147265
0.000170741
0.000154452
0.0444334
0.000202066
0.00211372
0.00502452
0.000158252
0.000206297
0.000148597
0.00681577
0.000195222
0.000146775
0.000158866
0.0107147
0.000147552
0.000167985
0.000145261
0.00617857
0.000168112
0.000149863
0.000149514
0.000146128
0.00014582
0.000155724
0.0229981
0.000146702
0.000146991
0.000159188
0.000149807
0.0417187
0.000170871
0.000147934
0.000144791
0.000148354
0.000162166
0.000148623
0.000147023
0.000204017
0.00124887
0.000147687
0.000144449
0.000172389
0.0107349
0.000148006
0.000147427
0.000147237
0.000194169
0.000144674
0.0293909
0.000169863
0.000175856
0.000273771
0.00049182
0.000146837
0.000243015
0.000143088
0.0208548
0.000165287
0.000157964
0.000148386
0.000148119
0.0260138
0.000149231
0.0212854
0.000147302
0.000183176
0.0110944
0.0591178
0.00020122
0.000149056
0.0123692
0.000149936
0.000146723
0.000159005
0.000219346
0.00014956
0.000209406
0.000179937
0.000149733
0.000161227
0.000149765
0.000149836
0.000148349
0.000148908
0.000147062
0.000192015
0.000148559
0.000172274
0.000152175
0.025843
0.00014994
0.00079879
0.000144713
0.000163179
0.000163014
0.000197187
0.000170615
0.000175661
0.000159755
0.000156574
0.000149861
0.000160221
0.000199914
0.000156435
0.000146303
0.000144601
0.0670846
0.000184985
0.000170498
0.000146854
0.000146441
0.000196944
0.000187598
0.0205828
0.0351546
0.000198449
0.000177965
0.0598609
0.000144388
0.000149312
0.00560375
0.000165012
0.000228001
0.000183294
0.000148458
0.000146579
0.000191027
0.000145327
0.0168987
0.000153695
0.000180072
0.00014541
0.00020385
0.000149047
0.00361083
0.000146696
0.000146717
0.000172261
0.000199913
0.000206363
0.0388027
0.000171155
0.0204939
0.000156603
0.000171084
0.0202587
0.000165337
0.000213004
0.000149871
0.000145174
0.000191113
0.0257304
0.000181923
0.00015376
0.000146805
0.000178803
0.000149802
0.0329142
0.013379
0.000147329
0.000149398
0.000147452
0.000158946
0.000781028
0.000149511
0.014903
0.000261245
0.0299964
0.000166804
0.000149683
0.000148877
0.00137922
0.000146903
0.00270641
0.000153816
0.000167179
0.000147702
0.000148071
0.000181903
0.000176834
0.0014544
0.000224047
0.000167455
0.000144179
0.000149151
0.000149327
0.0141505
0.000188342
0.00961209
0.00014881
0.0362278
0.000204383
0.00017509
0.000150558
0.000150212
0.000148313
0.000149314
0.0369234
0.000170131
0.000144829
0.000193808
0.000260396
0.000159988
0.000170298
0.000160978
0.000147292
0.000250867
0.000148973
0.000167112
0.000148623
0.000175255
0.000172635
0.0001475
0.0251804
0.000151584
0.0180683
0.000145597
0.000148884
0.000144951
0.0213051
0.0449259
0.000159369
0.000205769
0.000190594
0.000149844
0.000152161
0.000148666
0.0700629
0.0115144
0.000196954
0.000235728
0.000148582
0.000152595
0.0135218
0.000153261
0.000161332
0.00263669
0.000154186
0.000154782
0.0368543
0.000192834
0.0687372
0.000152538
0.000170758
0.000151538
0.000371063
0.0279414
0.000148654
0.000152475
0.0313988
0.000192527
0.000177963
0.000150951
0.0218427
0.0371165
0.000148402
0.000177853
0.000144087
0.000147796
0.0318412
0.000147851
0.000171302
0.000162742
0.000206443
0.00014821
0.000148413
0.000144881
0.000164171
0.000153736
0.0130384
0.0624419
0.000170129
0.00198304
0.000145474
0.000146786
0.000149033
0.00014808
0.000164195
0.000159607
0.0272503
0.000164037
0.000150697
0.00017869
0.000144609
0.000147032
0.00014649
0.00023359
0.0373478
0.0271033
0.0001472
0.000166983
0.0187801
0.000148001
0.000147016
0.00015117
0.0550822
0.0193895
0.000150313
0.000191721
0.000171532
0.000155874
0.000154595
0.000148622
0.000194293
0.000192791
0.000166758
0.000235767
0.00248724
0.000148415
0.00014971
0.000160526
0.000147483
0.00018152
0.000152581
0.000188417
0.0001487
0.0142016
0.0355841
0.000150244
0.000147929
0.000152811
0.000144733
0.000192428
0.000146215
0.000148961
0.000146864
0.000192408
0.00014795
0.000208136
0.000149871
0.00014909
0.00410234
0.000164928
0.000148386
0.000205703
0.0191372
0.000210335
0.000147405
0.0586577
0.000148113
0.000145632
0.000149916
0.000163293
0.00015334
0.000167226
0.000176642
0.000158225
0.000148763
0.000144767
0.0401165
0.000191574
0.0297288
0.000274077
0.000145897
0.0522408
0.000182459
0.000152075
0.000149077
0.000190599
0.0151343
0.000147433
0.000265311
0.0680482
0.0674974
0.000163201
0.000148674
0.000165355
0.000155102
0.000149299
0.000146718
0.000186154
0.00014902
0.000146175
0.000149762
0.0467951
0.0206374
0.0222811
0.0233184
0.000164798
0.000145287
0.0406664
0.0002646
0.000193884
0.000144939
0.000147581
0.000147906
0.000160879
0.000156349
0.000171962
0.000146435
0.000161586
0.0292225
0.000158449
0.000158495
0.000191455
0.000169711
0.00014976
0.0244953
0.000145761
0.0394727
0.000148028
0.0173336
0.0295638
0.000199683
0.000176512
0.00014616
0.000145932
0.000148197
0.000147647
0.000145382
0.00131071
0.0508849
0.000149349
0.000171449
0.000195675
0.000154876
0.000148689
0.000656823
0.000156835
0.0201505
0.0162182
0.0498363
0.000175386
0.000148458
0.000146931
0.0524729
0.000144588
0.000148102
0.000158926
0.000208647
0.000155446
0.000148499
0.000206252
0.000203167
0.000218313
0.0252355
0.0553632
0.000146483
0.00014677
0.00020497
0.00014543
0.000148651
0.000146087
0.000230073
0.000205925
0.000149237
0.000159989
0.0126812
0.000148251
0.000176117
0.000215336
0.000148361
0.000148937
0.000179149
0.0001596
0.000167052
0.0191015
0.000193271
0.000149691
0.000149045
0.000143279
0.027365
0.000145645
0.0486669
0.000148089
0.00214639
0.000149596
0.000149707
0.00015531
0.000151336
0.000199923
0.0258674
0.000241406
0.000173592
0.000147504
0.000172241
0.000148505
0.000176903
0.000244891
0.00014451
0.000178665
0.000149337
0.000145135
0.000149195
0.0302404
0.000190811
0.000149084
0.000152304
0.000189035
0.000149887
0.000206416
0.00282472
0.0316485
0.00864294
0.000151566
0.000188192
0.000148226
0.0211434
0.00015598
0.000149301
0.0249499
0.000157298
0.00583086
0.000149187
0.000192785
0.000167914
0.000149884
0.0170135
0.0230428
0.000168332
0.0338426
0.043778
0.0317446
0.000159741
0.000355813
0.000148541
0.000148749
0.000196186
0.047932
0.000169883
0.00014868
0.000145109
0.000148346
0.000149202
0.000148552
0.0471968
0.0282292
0.000147575
0.000237765
0.000156378
0.000162127
0.0418243
0.0232127
0.000145834
0.000147081
0.000165803
0.0205412
0.000149479
0.00598484
0.000146291
0.000145361
0.000158139
0.000145012
0.000276951
0.000144572
0.0427823
0.0182621
0.000153704
0.000178043
0.000152769
0.0001815
0.000147947
0.000154307
0.0214898
0.000227467
0.000148004
0.000199146
0.000154175
0.0209761
0.000191801
0.000146321
0.000151194
0.0646375
0.0363055
0.000263389
0.000146466
0.000153969
0.000387858
0.0661066
0.000157718
0.000159301
0.000246144
0.000161416
0.000154085
0.0221346
0.000191507
0.000189194
0.000260315
0.000149891
0.000151038
0.000146437
0.0262223
0.000151344
0.000150136
0.0586925
0.000149739
0.000149324
0.000148907
0.000195478
0.000148486
0.0483432
0.000148513
0.000179413
0.000158239
0.000191777
0.000157032
0.000164509
0.000155
0.000194547
0.0364782
0.0216738
0.000148245
0.0597733
0.000157832
0.00019505
0.000157655
0.000158967
0.000149756
0.000157923
0.000146555
0.015953
0.000201803
0.000150285
0.000147233
0.000149844
0.000164856
0.000144617
0.00016033
0.00385091
0.00015029
0.000163898
0.0116869
0.00179107
0.000157471
0.000241182
0.000149535
0.000144606
0.000148998
0.000171475
0.000147879
0.000147227
0.000146297
0.000148743
0.000145341
0.0177653
0.000154907
0.0437798
0.0350737
0.000149872
0.000196969
0.000148506
0.000158452
0.0145966
0.00099933
0.0341886
0.000147462
0.000162195
0.00014431
0.00014484
0.0111994
0.000168325
0.000208472
0.000144556
0.000146854
0.000147976
0.000153423
0.000332912
0.000195553
0.000146923
0.00014994
0.000149393
0.00244404
0.000192557
0.000147785
0.00351023
0.00110763
0.0228325
0.000158191
0.000184929
0.000193486
0.000146308
0.000146121
0.000148454
0.000147051
0.0070545
0.0533015
0.000192882
0.000159955
0.000206869
0.000270104
0.000158032
0.000148359
0.000147996
0.00022262
0.000159759
0.000169887
0.000160106
0.000148078
0.00016519
0.000159754
0.000153817
0.000150937
0.0546503
0.0279518
0.000146286
0.000165683
0.000151075
0.00014562
0.000149796
0.0336333
0.00014783
0.000203758
0.000163149
0.000151088
0.000149159
0.000147955
0.00319139
0.000149873
0.000177601
0.0648487
0.0426827
0.0001464
0.000183331
0.000151558
0.000149687
0.000145353
0.000154183
0.000148824
0.000175744
0.000147948
0.000506521
0.000155848
0.000147817
0.00015137
0.000166849
0.000159392
0.000158227
0.000159261
0.000159087
0.000144773
0.000144203
0.000173201
0.000147088
0.000670682
0.000149697
0.000187445
0.0394547
0.0388316
0.00014681
0.000211631
0.000165272
0.0466369
0.049407
0.000307298
0.0213909
0.000144847
0.0560103
0.00015105
0.000153168
0.000209627
0.045765
0.000170357
0.00151666
0.000146965
0.000154837
0.000213751
0.000203422
0.0374705
0.000264493
0.000181031
0.000156685
0.0256462
0.000154759
0.0002531
0.00014883
0.00017903
0.000219137
0.000152651
0.000183697
0.000144131
0.000148563
0.00017475
0.000148404
0.0380129
0.000159769
0.000148524
0.00022212
0.0276893
0.000144949
0.0243844
0.000154634
0.000145934
0.0350232
0.0465656
0.000150943
0.000147158
0.00014881
0.000191607
0.000154265
0.0518344
0.0252083
0.000204655
0.0522478
0.000149022
0.000173671
0.000149681
0.0251039
0.000148204
0.000223267
0.042472
0.000194816
0.0290811
0.000147357
0.000146339
0.000143257
0.000148294
0.000149757
0.000160747
0.0624743
0.000154315
0.000174518
0.000880589
0.033224
0.0301484
0.0229483
0.000147101
0.000147136
0.000165301
0.000151003
0.0240371
0.000170317
0.0001464
0.0571687
0.0304585
0.000149962
0.000148589
0.000146148
0.0106847
0.000156624
0.000147057
0.000147454
0.000148796
0.00014846
0.000147718
0.000145331
0.000201996
0.000144203
0.000306101
0.000188547
0.00015317
0.000159508
0.000153464
0.000148403
0.00017388
0.000149762
0.000149872
0.000166794
0.000254274
0.000146362
0.000166231
0.000152083
0.000168546
0.0573632
0.000144747
0.000163288
0.00014778
0.0113546
0.000151218
0.02501
0.00125108
0.0368459
0.0691756
0.000256651
0.000194056
0.000493529
0.0565371
0.000151057
0.063569
0.000148223
0.000209933
0.0382127
0.000175996
0.00014596
0.000149314
0.000145748
0.0697868
0.000180655
0.000144961
0.000144562
0.000147572
0.000191616
0.000204494
0.000149267
0.000178388
0.0555764
0.000145237
0.000186342
0.000146599
0.000147354
0.000147774
0.00015834
0.0697844
0.000216003
0.000222178
0.00020298
0.068762
0.000193848
0.00144548
0.0336313
0.000244205
0.0618981
0.000146856
0.000188471
0.000148795
0.000149378
0.000148867
0.000161289
0.000148108
0.000151592
0.00669912
0.000152654
0.000154515
0.000154863
0.000161236
0.000146153
0.000200269
0.000149707
0.000149934
0.000193231
0.000170271
0.0300716
0.000163058
0.000152661
0.000172488
0.0705779
0.0119325
0.000149408
0.000196764
0.000152403
0.000166485
0.000148614
0.000149581
0.000153816
0.0497704
0.000166337
0.000142328
0.000158226
0.0116239
0.0542531
0.0522794
0.0209984
0.000147547
0.000146308
0.0611842
0.000174437
0.000169614
0.0271392
0.000148755
0.000145022
0.000149836
0.000151854
0.000187216
0.0185362
0.000182575
0.000144888
0.000146427
0.000148634
0.000175922
0.000251385
0.000148162
0.000160931
0.000176504
0.000148021
0.000167596
0.000209505
0.0333715
0.0315921
0.00014735
0.000173524
0.0448373
0.000174349
0.000158571
0.000170899
0.0300988
0.000149109
0.000144028
0.000145681
0.00014608
0.000151795
0.0121707
0.000144049
0.000148501
0.000171716
0.000158673
0.0206816
0.000153639
0.000156632
0.000160482
0.000163454
0.000149144
0.0435421
0.000149075
0.000149758
0.000191663
0.000163366
0.000146651
0.000149769
0.000170257
0.0487367
0.000158099
0.000154316
0.000188393
0.000169969
0.000154973
0.0321097
0.0304928
0.000158625
0.000150737
0.000150551
0.0166217
0.000220582
0.000160192
0.000176648
0.000144618
0.000183482
0.000146757
0.000156922
0.0201856
0.000157439
0.000169307
0.00015366
0.00051058
0.000177963
0.000148898
0.00019508
0.000191527
0.000149663
0.000179921
0.000148785
0.00017059
0.0188076
0.0168081
0.000588492
0.000170885
0.000235257
0.000198504
0.000180111
0.000148257
0.000148111
0.000156523
0.00016486
0.058867
0.000160456
0.000150093
0.000148893
0.0593737
0.00018129
0.0641213
0.000151712
0.000146439
0.0114302
0.0565696
0.000148098
0.000149508
0.000145874
0.000162004
0.000174549
0.00015118
0.000157301
0.000163603
0.000158892
0.0258106
0.000147982
0.000156143
0.0388427
0.000144743
0.00017694
0.000143927
0.000157825
0.059235
0.000157505
0.000164973
0.000145704
0.000146817
0.000191787
0.000149198
0.000148128
0.00014844
0.000163367
0.000189178
0.000157622
0.000170623
0.000147995
0.000146366
0.000162405
0.0299952
0.0436715
0.000157711
0.019263
0.000157943
0.000154534
0.000154208
0.012708
0.000153775
0.000149079
0.000148349
0.000190291
0.000161913
0.000184097
0.000149985
0.000148408
0.0105799
0.000151116
0.00014965
0.0380455
0.000157528
0.000148555
0.000144753
0.000164274
0.0214336
0.0221512
0.000145896
0.000160261
0.000154169
0.000146759
0.000145323
0.000163744
0.000158875
0.000186205
0.000144985
0.000166363
0.00016585
0.0193839
0.000159093
0.0668767
0.000207618
0.000151293
0.0221127
0.000271357
0.000209581
0.0001656
0.000164958
0.00014906
0.000148841
0.000159559
0.0356142
0.000392632
0.000148718
0.0582587
0.000148783
0.000164801
0.000173121
0.000159615
0.000149005
0.000233305
0.0503597
0.000143483
0.000148066
0.000163879
0.000147622
0.000159538
0.000184734
0.0014622
0.000162948
0.000149868
0.000144919
0.00017349
0.000166304
0.000197114
0.00015356
0.000204444
0.000160142
0.000196026
0.000173094
0.00020051
0.000194691
0.000181184
0.000201324
0.0184097
0.000157034
0.000520063
0.000157026
0.000193256
0.000148447
0.000145037
0.000161092
0.000147687
0.000177689
0.000240232
0.000169137
0.000157708
0.0503664
0.000165602
0.000157885
0.0387473
0.000146314
0.000348989
0.000172237
0.000149876
0.0437275
0.000206838
0.000172917
0.000172866
0.0218528
0.000161399
0.000149594
0.000174028
0.000165872
0.0208326
0.000171293
0.000164752
0.000165019
0.00015833
0.000182529
0.000176183
0.000243341
0.00255963
0.000154214
0.000146281
0.000150073
0.0473468
0.000163045
0.00015318
0.000157298
0.0227962
0.000161258
0.000148499
0.00016444
0.000146325
0.000148412
0.000157008
0.000193508
0.000147944
0.0185714
0.000149693
0.000146633
0.000174902
0.00016143
0.0178115
0.000147504
0.000151283
0.0547962
0.000163703
0.000148125
0.0346858
0.0190493
0.000158055
0.000206332
0.000155309
0.000163809
0.0300294
0.00016269
0.000693515
0.000202834
0.000172323
0.000165571
0.000165273
0.000145845
0.000148182
0.000146128
0.000166554
0.000213274
0.0461985
0.000159842
0.000175498
0.000147434
0.000145784
0.000152427
0.0440288
0.000156888
0.000162491
0.000154743
0.000148723
0.0150093
0.000148694
0.000144371
0.000215985
0.000149574
0.000148003
0.000146748
0.000149486
0.00015313
0.0198329
0.00019167
0.00014897
0.00014408
0.000170487
0.000153033
0.000154499
0.0238334
0.000373721
0.0415114
0.000148161
0.00017599
0.0368596
0.0696325
0.000220734
0.00793985
0.000155835
0.000147999
0.0207727
0.000164435
0.0314635
0.000152039
0.000148076
0.000152007
0.00015299
0.0223602
0.0192134
0.000154497
0.000163311
0.000213847
0.000149425
0.00462629
0.0624612
0.000151685
0.000176279
0.0640404
0.000147308
0.000206688
0.0374237
0.000149736
0.00014713
0.0394781
0.000147868
0.000148442
0.000155077
0.0237791
0.0218388
0.000146034
0.000163769
0.000150783
0.0249544
0.000205527
0.000148511
0.000145287
0.0279147
0.034789
0.0438682
0.000144828
0.000145876
0.000148372
0.000176552
0.000165574
0.000158426
0.000146716
0.000157179
0.0407229
0.000176411
0.000145943
0.0462031
0.000163769
0.000146112
0.00015314
0.000159567
0.000148537
0.00019342
0.000167673
0.0410747
0.000176682
0.000164793
0.0185233
0.000161323
0.000194199
0.02148
0.000166012
0.045847
0.000162999
0.041558
0.0393432
0.0180224
0.000164006
0.0663306
0.000201263
0.00014656
0.000156453
0.000185784
0.000173863
0.000161389
0.0547172
0.000153268
0.000145978
0.000159355
0.000144763
0.00014751
0.000155753
0.000187144
0.000191923
0.000163784
0.00539729
0.000148939
0.000153905
0.000146242
0.000148412
0.000177944
0.000152516
0.000153157
0.000149656
0.000148501
0.000212307
0.000146657
0.000148846
0.000179112
0.000153415
0.0324121
0.000171983
0.000272728
0.00016366
0.000153535
0.000150499
0.000192641
0.000148033
0.0464679
0.0214394
0.00015193
0.000148654
0.0449105
0.000201224
0.000200897
0.0248248
0.000144137
0.000148036
0.000156312
0.000564784
0.000153606
0.000148922
0.000168618
0.000164684
0.0155941
0.0397359
0.000627175
0.000186854
0.000149465
0.000641323
0.000151532
0.000156988
0.000147689
0.000156912
0.000186576
0.000176176
0.000253816
0.000147279
0.000157626
0.000156752
0.000148109
0.0194062
0.000164131
0.000156737
0.000387546
0.000242352
0.000147652
0.000145872
0.000156466
0.0456018
0.000144261
0.000175906
0.000158038
0.000151045
0.000172224
0.000169221
0.000152655
0.0291192
0.000149401
0.000191479
0.000163619
0.000178731
0.0001693
0.000152986
0.000364027
0.000168129
0.000149251
0.000160247
0.000175547
0.000146066
0.000168446
0.00016287
0.0275668
0.000149573
0.00783485
0.00014803
0.000162349
0.00016196
0.000146655
0.0220734
0.000185157
0.000145828
0.000174999
0.000148473
0.000149073
0.000146988
0.000152359
0.000157568
0.000174594
0.00014987
0.000155472
0.000181485
0.000166581
0.000179176
0.000174011
0.000146298
0.000150461
0.000146233
0.000169322
0.000146607
0.000154587
0.000200643
0.00019078
0.0001482
0.000148428
0.000147693
0.000186738
0.000148964
0.000154039
0.000194548
0.000158893
0.00746786
0.00019887
0.000149708
0.000177342
0.0311471
0.000148664
0.000148109
0.034649
0.000172091
0.000170388
0.000148691
0.000145413
0.000143551
0.000151897
0.0332386
0.026655
0.000148169
0.000190064
0.000170978
0.000156677
0.000146129
0.000149489
0.0284064
0.000149126
0.000147853
0.0119166
0.00085543
0.000145059
0.000144762
0.000148005
0.0319342
0.000152048
0.000150501
0.0284469
0.0247132
0.000147176
0.000160712
0.000148911
0.000194973
0.000205851
0.000148088
0.0631402
0.000155751
0.00018376
0.000146964
0.000373169
0.0311168
0.000180238
0.0258175
0.0440478
0.000144067
0.0248756
0.000148029
0.00014722
0.0174386
0.000149588
0.00019673
0.000159623
0.00372612
0.000148099
0.00686776
0.0334106
0.000147919
0.000149774
0.000191837
0.0180548
0.000154695
0.000148769
0.00015984
0.000186228
0.000160684
0.000146988
0.0273485
0.000150869
0.000158774
0.000151886
0.000174498
0.0260032
0.000146683
0.0302719
0.000182687
0.000209832
0.000149563
0.000151615
0.000177257
0.0002038
0.0675675
0.00014697
0.000148182
0.000145839
0.00045606
0.000200716
0.0231241
0.0708113
0.000188655
0.000145841
0.000149052
0.000147554
0.0461547
0.000147317
0.0267821
0.0603968
0.000149235
0.000193019
0.000171016
0.000167613
0.000185783
0.000147939
0.000146213
0.000230596
0.00125754
0.000146158
0.000150594
0.0415999
0.000243084
0.000156464
0.000265273
0.000150781
0.000150148
0.0498667
0.066404
0.00014863
0.000153111
0.000145929
0.0229464
0.0683058
0.00014628
0.00014718
0.000150806
0.000148208
0.000159501
0.000156066
0.000148225
0.0383077
0.000197321
0.000159088
0.000153643
0.00416388
0.000146132
0.000148904
0.000147798
0.0351879
0.00020163
0.000149222
0.000147638
0.0210446
0.000158903
0.0491996
0.000149226
0.0338985
0.0521313
0.000171229
0.000146174
0.000149157
0.000147279
0.000162775
0.000225344
0.000193287
0.000270354
0.000162603
0.000148653
0.000221612
0.00462337
0.0175867
0.000160774
0.000146832
0.000146299
0.000143552
0.000205327
0.00419821
0.000152722
0.00016015
0.000147186
0.000148375
0.00014703
0.000174769
0.00014773
0.00018916
0.000145741
0.000181536
0.0375848
0.047479
0.0176002
0.000205573
0.000148409
0.000158529
0.000186813
0.00017057
0.000153484
0.000156989
0.000148324
0.000147708
0.000154928
0.000146737
0.000146881
0.00017979
0.000145388
0.000161462
0.0217803
0.000148974
0.000158209
0.000195747
0.000149762
0.0546352
0.00016888
0.000158585
0.000148427
0.000143776
0.00035047
0.000148192
0.000154423
0.000145745
0.000148111
0.000148994