/*--------------------------------*- C++ -*----------------------------------*\
| =========                 |                                                 |
| \\      /  F ield         | OpenFOAM: The Open Source CFD Toolbox           |
|  \\    /   O peration     | Version:  v2012                                 |
|   \\  /    A nd           | Website:  www.openfoam.com                      |
|    \\/     M anipulation  |                                                 |
\*---------------------------------------------------------------------------*/
FoamFile
{
    version     2.0;
    format      ascii;
    class       volScalarField;
    location    "300";
    object      k_0;
}
// * * * * * * * * * * * * * * * * * * * * * * * * * * * * * * * * * * * * * //

dimensions      [0 2 -2 0 0 0 0];


internalField   nonuniform List<scalar> 
14804
(
0.0232925
0.000146405
0.000189515
0.000161327
0.000166359
0.000180213
0.000151407
0.000148691
0.000191285
0.000149166
0.000245845
0.000190976
0.000149397
0.000167065
0.000200547
0.0548451
0.00016715
0.000159938
0.00533585
0.000173869
0.00014994
0.00015405
0.000162632
0.000150273
0.0169275
0.000150263
0.000166401
0.000166211
0.0211952
0.000150415
0.000146331
0.000161165
0.000173832
0.000170214
0.000189438
0.000151413
0.000660253
0.000149579
0.0321912
0.000173437
0.000189524
0.000188361
0.000177799
0.000147663
0.000166306
0.000151373
0.00514476
0.000149203
0.00015444
0.000223031
0.000149493
0.000145937
0.000148069
0.000154536
0.000235616
0.00571857
0.00023133
0.0201032
0.000148735
0.000151474
0.0117895
0.000149642
0.000147649
0.00892796
0.000147637
0.000148212
0.000149873
0.000150876
0.000148231
0.035469
0.000146853
0.000165409
0.000243723
0.0405213
0.000150076
0.0357441
0.048575
0.00014636
0.000164744
0.000144128
0.0448063
0.000148201
0.000144343
0.000150101
0.000149687
0.00020047
0.000145443
0.000152131
0.000145966
0.000166144
0.000165326
0.000153092
0.000186361
0.000146308
0.000225055
0.0508233
0.0217372
0.000160564
0.000149856
0.000254487
0.0207166
0.0354597
0.000149755
0.000169197
0.000206264
0.0365752
0.000190715
0.000204161
0.000148363
0.000146502
0.000147826
0.0213769
0.00018654
0.0260095
0.0213081
0.0398431
0.000212596
0.00016608
0.000149658
0.000160362
0.0481024
0.000145981
0.000153089
0.000170908
0.000148782
0.000149697
0.00021226
0.00016822
0.000163535
0.000165255
0.000165097
0.000201784
0.0305692
0.000241507
0.00267994
0.000170361
0.000147704
0.00205401
0.00014995
0.000170437
0.000147082
0.0441223
0.000148659
0.0246571
0.0259414
0.000148339
0.000205466
0.000148371
0.000227395
0.00658784
0.000191292
0.00724748
0.000174089
0.000169326
0.00014427
0.0219932
0.000164466
0.000253716
0.0200383
0.000246903
0.000146877
0.000147488
0.030979
0.00861483
0.000155827
0.0221319
0.000149331
0.0123733
0.000150296
0.000148686
0.000245848
0.000154471
0.000195566
0.000198474
0.000963134
0.000241136
0.000161096
0.00017241
0.000144874
0.00023848
0.000180225
0.0556362
0.000150937
0.000157063
0.000152775
0.0221376
0.000179382
0.000178214
0.000157882
0.00014463
0.000176843
0.00781835
0.000148523
0.00277915
0.000162209
0.000147215
0.034672
0.000149261
0.000177913
0.0158353
0.0259545
0.000144598
0.000153074
0.000188411
0.000151085
0.0188539
0.000163764
0.000439173
0.00016707
0.000151494
0.000150308
0.011182
0.000151066
0.000146875
0.000150618
0.000150165
0.000168513
0.00014724
0.000148153
0.000147535
0.00015708
0.000187661
0.000177997
0.0001541
0.000147221
0.000298027
0.000173499
0.00244155
0.0304957
0.000153589
0.000146318
0.000152685
0.000148169
0.0355168
0.0402
0.000149751
0.000151248
0.000204824
0.000197019
0.0001563
0.0410933
0.000202669
0.000149805
0.000147598
0.000145771
0.000202339
0.000159674
0.00015571
0.000162595
0.000146759
0.0456857
0.000147207
0.000147136
0.000146389
0.0275766
0.000150903
0.000144672
0.000154243
0.000146716
0.000148432
0.00979713
0.000157921
0.000163498
0.000149048
0.000323215
0.000149614
0.00016324
0.000145611
0.0190868
0.012714
0.0539228
0.0597725
0.000149778
0.000148762
0.0492002
0.000203097
0.000152355
0.0227446
0.000170195
0.0364324
0.000205461
0.00014657
0.0147919
0.0115333
0.0498143
0.000595222
0.000170918
0.000152312
0.000157808
0.000213705
0.000147155
0.000149292
0.000153959
0.000150239
0.000179158
0.000207884
0.000203655
0.000163364
0.000147241
0.000157873
0.000145471
0.000146616
0.000158992
0.000173761
0.000164271
0.000150707
0.0170715
0.0369264
0.00019849
0.0244877
0.0173353
0.000150288
0.000155911
0.000156057
0.0277474
0.000150666
0.00935379
0.000212128
0.000143853
0.0505781
0.000203952
0.000211637
0.00183234
0.0156494
0.000149684
0.000172982
0.000211115
0.00014879
0.000811599
0.022713
0.000169136
0.00016645
0.000160799
0.000155385
0.000148466
0.000146118
0.000146681
0.0262179
0.000150527
0.000195512
0.00015395
0.000149735
0.00016016
0.000149498
0.000146317
0.0237845
0.0504158
0.0339167
0.000192646
0.0303095
0.0226329
0.000154218
0.000148136
0.000145563
0.000150501
0.000204773
0.00014945
0.00575627
0.000144543
0.000147102
0.00015036
0.000198235
0.000185594
0.000195209
0.0621646
0.039284
0.000152055
0.000164865
0.000178554
0.000147327
0.000153207
0.000149044
0.000164401
0.000150452
0.000146309
0.0322103
0.00014571
0.000149741
0.0304974
0.00025117
0.00097521
0.000160543
0.00017598
0.0527548
0.000159669
0.000147267
0.0559347
0.000151363
0.000148528
0.0553095
0.000157311
0.000144795
0.000150335
0.000154458
0.0266309
0.000153319
0.000228112
0.000165764
0.0655282
0.000149107
0.000197019
0.000147517
0.000207319
0.0266922
0.000164803
0.000154105
0.000219255
0.000149407
0.000173294
0.000149766
0.000147422
0.000159396
0.0386156
0.000149147
0.000150337
0.000321945
0.000148584
0.000160579
0.000150265
0.0230315
0.000213383
0.000179079
0.000145061
0.0310402
0.000153984
0.00016637
0.0608734
0.000163526
0.00015818
0.000145723
0.000152365
0.000150114
0.000234491
0.000148379
0.000151445
0.000148331
0.000145457
0.0233655
0.000147138
0.000150244
0.000172203
0.048646
0.000146577
0.000149604
0.000145495
0.000157803
0.0275462
0.0303914
0.000203846
0.000153073
0.0343911
0.000153132
0.000149659
0.000149752
0.000148866
0.000147491
0.000158942
0.033986
0.000154516
0.000149693
0.00512534
0.00014545
0.000254637
0.000222619
0.000166951
0.0030393
0.000160657
0.0366612
0.000179212
0.000149729
0.000149692
0.000159234
0.000148584
0.000146539
0.0292711
0.000161047
0.000149279
0.000163676
0.0213221
0.0497831
0.0001703
0.000159673
0.00015581
0.000187685
0.000149904
0.000156261
0.0344608
0.000148354
0.000146589
0.000166281
0.000156444
0.000473793
0.000169932
0.000145957
0.00016328
0.000149684
0.00014834
0.0120162
0.000170771
0.000147407
0.000195635
0.000150216
0.000147037
0.000165436
0.0457561
0.000148375
0.00014759
0.00014542
0.00014711
0.0141889
0.000148407
0.00014966
0.00518069
0.00014814
0.000149964
0.0652078
0.000148301
0.000548651
0.000143729
0.000212421
0.0101589
0.000268879
0.0001491
0.000148604
0.000165048
0.000152589
0.000143792
0.000151783
0.00014545
0.000162809
0.000145741
0.000165454
0.000166912
0.000150198
0.0501026
0.000186847
0.0464346
0.000154325
0.000143722
0.000196389
0.000148093
0.000158717
0.000208027
0.000158678
0.000208005
0.0344799
0.000147462
0.069615
0.000192823
0.000154423
0.000154098
0.0672148
0.0595374
0.000144114
0.000146529
0.00014669
0.000207771
0.000188492
0.0590646
0.0460075
0.000147614
0.000178952
0.000177044
0.000365381
0.000165657
0.000157178
0.000158554
0.000146731
0.000204559
0.0600213
0.000164631
0.000175212
0.000143865
0.000146744
0.0001471
0.000163581
0.000145869
0.000210367
0.000148505
0.005641
0.000231931
0.000161995
0.000170811
0.000146741
0.000147272
0.0341107
0.000151809
0.00598485
0.000146242
0.00014713
0.000146904
0.000149695
0.000176518
0.000160827
0.0419322
0.0441899
0.000148543
0.000149696
0.000159182
0.000194184
0.000170971
0.000159975
0.000146669
0.000274622
0.000152925
0.0216491
0.000145036
0.000239425
0.0138852
0.000145796
0.000147546
0.000170069
0.000149946
0.000143801
0.000169745
0.000150114
0.0137739
0.000178498
0.000353202
0.000147069
0.000242165
0.00167611
0.000170288
0.000149945
0.0141883
0.000146762
0.000209782
0.000148171
0.000149114
0.0102516
0.00019274
0.000320504
0.000178651
0.000159529
0.000144591
0.0414308
0.00014685
0.0147261
0.000279814
0.000159681
0.000145709
0.000147763
0.000165038
0.000159403
0.000149516
0.000185945
0.000171362
0.000165744
0.000148529
0.0504676
0.0446546
0.000242887
0.000147592
0.000165426
0.000144192
0.00014951
0.00016327
0.0183877
0.000159732
0.0364282
0.000164309
0.000199838
0.000205662
0.000148705
0.0609271
0.00931829
0.000146777
0.000161131
0.000197164
0.000160014
0.00016039
0.000155157
0.000160717
0.00240769
0.000145582
0.000170217
0.000146158
0.000149398
0.022408
0.0518541
0.000173697
0.000148259
0.000144761
0.000144166
0.000152758
0.000162407
0.0636042
0.000178584
0.000211586
0.00612108
0.000176944
0.000158995
0.0125677
0.000148619
0.0390471
0.000151686
0.000147011
0.000148135
0.000160179
0.0001813
0.000145396
0.000154348
0.000168997
0.000192955
0.000158725
0.000207409
0.000148333
0.000205749
0.00017552
0.000170116
0.000168015
0.000148959
0.000149167
0.0247729
0.0404044
0.000148615
0.000192679
0.000148258
0.000144679
0.000148536
0.000153125
0.000183117
0.000146398
0.000161914
0.000146858
0.000156054
0.000147767
0.000169591
0.000151825
0.000145765
0.000148389
0.000177668
0.00017052
0.00309816
0.000953048
0.000146838
0.000147537
0.000147163
0.0211295
0.000157024
0.00017794
0.0503242
0.000161109
0.000158525
0.0214556
0.000146979
0.000146901
0.000147453
0.000146699
0.000195637
0.000148293
0.000144681
0.000244331
0.000196733
0.000156053
0.000146477
0.0234779
0.045675
0.000176558
0.000156093
0.00016089
0.00153849
0.0001762
0.00825223
0.000267606
0.000192591
0.0193563
0.000152908
0.000161698
0.000224978
0.00014652
0.000279837
0.000151057
0.000149601
0.062177
0.000164228
0.000171942
0.0148519
0.000193208
0.000147072
0.021204
0.000146341
0.000151587
0.000154933
0.000152233
0.000149527
0.0369607
0.0600417
0.000166165
0.000202795
0.000155283
0.0148804
0.00368694
0.000162471
0.0495329
0.000151062
0.000146323
0.00014535
0.000148538
0.000148286
0.00698815
0.000161558
0.0508688
0.000213382
0.000149383
0.000178154
0.000160394
0.000146922
0.000149258
0.0531702
0.0111879
0.000150109
0.000177838
0.000149547
0.000147265
0.000170741
0.000154452
0.0444328
0.00020207
0.00211301
0.00502349
0.000158252
0.000206311
0.000148597
0.00681663
0.000195207
0.000146775
0.000158866
0.0107148
0.000147552
0.000167985
0.000145261
0.0061786
0.000168112
0.000149863
0.000149514
0.000146128
0.00014582
0.000155724
0.0229668
0.000146702
0.000146991
0.000159188
0.000149807
0.041719
0.000170868
0.000147934
0.000144791
0.000148354
0.00016215
0.000148623
0.000147023
0.000204024
0.00118495
0.000147687
0.000144449
0.000172389
0.0107348
0.000148006
0.000147427
0.000147237
0.000194172
0.000144674
0.0293906
0.000169863
0.000175856
0.000268814
0.000493244
0.000146837
0.000246832
0.000143088
0.0208547
0.000165287
0.000157964
0.000148386
0.000148119
0.0260135
0.000149231
0.0212854
0.000147302
0.000183176
0.0110944
0.0591172
0.000201264
0.000149056
0.0123691
0.000149936
0.000146723
0.000159005
0.000237917
0.00014956
0.000209616
0.000179937
0.000149733
0.000161227
0.000149765
0.000149836
0.000148349
0.000148908
0.000147062
0.00019201
0.000148559
0.000172274
0.000152175
0.0258375
0.00014994
0.000819118
0.000144713
0.000163171
0.000163014
0.000197181
0.000170615
0.000175658
0.000159755
0.000156574
0.000149861
0.000160221
0.000199888
0.000156435
0.000146303
0.000144601
0.067084
0.000184985
0.000170498
0.000146854
0.000146441
0.000196946
0.000187599
0.0205826
0.0351545
0.000198464
0.000177965
0.0598602
0.000144388
0.000149312
0.00560375
0.000165012
0.000228884
0.000183294
0.000148458
0.000146579
0.000191028
0.000145327
0.0168987
0.000153695
0.000180072
0.00014541
0.000203882
0.000149047
0.0034635
0.000146696
0.000146717
0.000172255
0.000199884
0.000206381
0.0388027
0.000171154
0.0204945
0.000156603
0.000171081
0.0202586
0.000165337
0.000212832
0.000149871
0.000145174
0.000191113
0.0257303
0.000181923
0.00015376
0.000146805
0.000178795
0.000149802
0.0329127
0.0133789
0.000147329
0.000149398
0.000147452
0.000158946
0.000783051
0.000149511
0.0149028
0.000267624
0.0299973
0.000166804
0.000149683
0.000148877
0.00134309
0.000146903
0.00287275
0.000153816
0.000167179
0.000147702
0.000148071
0.000181904
0.000176834
0.00137932
0.000223937
0.00016746
0.000144179
0.000149151
0.000149327
0.0141504
0.000188342
0.00957791
0.00014881
0.0362274
0.000204327
0.000175089
0.000150558
0.000150212
0.000148313
0.000149314
0.0369237
0.000170131
0.000144829
0.000193808
0.000259154
0.000159988
0.000170298
0.000160978
0.000147292
0.000252887
0.000148973
0.000167112
0.000148623
0.000175255
0.000172635
0.0001475
0.0251804
0.000151584
0.0180685
0.000145597
0.000148884
0.000144951
0.0213042
0.0449252
0.000159369
0.000205504
0.000190595
0.000149844
0.000152161
0.000148666
0.0700629
0.0115144
0.000196964
0.000230617
0.000148582
0.000152595
0.013522
0.000153261
0.000161332
0.00261691
0.000154186
0.000154782
0.0368546
0.000192827
0.0687378
0.000152538
0.000170779
0.000151538
0.000373072
0.0279414
0.000148654
0.000152475
0.0313996
0.000192529
0.000177963
0.000150951
0.0218421
0.0371161
0.000148402
0.000177852
0.000144087
0.000147796
0.0318233
0.000147851
0.000171302
0.000162742
0.000206475
0.00014821
0.000148413
0.000144881
0.000164171
0.000153736
0.0130386
0.0624413
0.00017013
0.00197853
0.000145474
0.000146786
0.000149033
0.00014808
0.000164195
0.000159607
0.0272501
0.000164037
0.000150697
0.000178688
0.000144609
0.000147032
0.00014649
0.000233584
0.0373476
0.0271034
0.0001472
0.000166983
0.0187799
0.000148001
0.000147016
0.00015117
0.0550812
0.0193898
0.000150313
0.000191718
0.000171532
0.000155874
0.000154595
0.000148622
0.000194281
0.000192791
0.000166758
0.00023601
0.002398
0.000148415
0.00014971
0.000160525
0.000147483
0.000181519
0.000152581
0.000188418
0.0001487
0.0142015
0.035584
0.000150244
0.000147929
0.000152811
0.000144733
0.000192423
0.000146215
0.000148961
0.000146864
0.000192409
0.00014795
0.000208166
0.000149871
0.00014909
0.00410841
0.000164928
0.000148386
0.000205728
0.0191374
0.000212223
0.000147405
0.0586579
0.000148113
0.000145632
0.000149916
0.000163293
0.00015334
0.000167232
0.000176642
0.000158225
0.000148763
0.000144767
0.040116
0.000191575
0.0297288
0.000281351
0.000145897
0.0522416
0.000182459
0.000152075
0.000149077
0.000190599
0.0151343
0.000147433
0.000265268
0.0680463
0.0674953
0.000163201
0.000148674
0.000165355
0.000155102
0.000149299
0.000146718
0.000186154
0.00014902
0.000146175
0.000149762
0.0467948
0.0206377
0.0222805
0.0233189
0.000164798
0.000145287
0.0406656
0.000265987
0.000193876
0.000144939
0.000147581
0.000147906
0.000160879
0.000156349
0.000171955
0.000146435
0.000161586
0.0292223
0.000158449
0.000158495
0.000191455
0.00016971
0.00014976
0.0244953
0.000145761
0.0394724
0.000148028
0.0173334
0.0295638
0.000199668
0.000176512
0.00014616
0.000145932
0.000148197
0.000147647
0.000145382
0.00127525
0.0508842
0.000149349
0.000171483
0.000195674
0.000154876
0.000148689
0.000665901
0.000156835
0.0201196
0.0162182
0.0498365
0.000175384
0.000148458
0.000146931
0.0524742
0.000144588
0.000148102
0.000158926
0.00020863
0.000155446
0.000148499
0.000206198
0.000203164
0.000218891
0.0252346
0.0553643
0.000146483
0.00014677
0.000204953
0.00014543
0.000148651
0.000146087
0.00022979
0.000205812
0.000149237
0.000159989
0.0126812
0.000148251
0.000176117
0.000214864
0.000148361
0.000148937
0.000179151
0.000159598
0.000167052
0.0191013
0.000193275
0.000149691
0.000149045
0.000143279
0.0273648
0.000145645
0.0486673
0.000148089
0.00214575
0.000149596
0.000149707
0.00015531
0.000151336
0.00020005
0.0258667
0.000240061
0.000173592
0.000147504
0.000172241
0.000148505
0.000176904
0.000244444
0.00014451
0.000178663
0.000149337
0.000145135
0.000149195
0.0302413
0.000190813
0.000149084
0.000152304
0.000189036
0.000149887
0.000206499
0.00282848
0.0316483
0.0087022
0.000151566
0.000188192
0.000148226
0.0211437
0.00015598
0.000149301
0.0249489
0.000157298
0.00583
0.000149187
0.00019278
0.000167914
0.000149884
0.0170136
0.023043
0.000168332
0.0338426
0.0437684
0.0317456
0.000159741
0.000355803
0.000148541
0.000148749
0.000196158
0.0479319
0.000169883
0.00014868
0.000145109
0.000148346
0.000149202
0.000148552
0.0471966
0.0282293
0.000147575
0.000238137
0.000156378
0.000162127
0.0418235
0.0232128
0.000145834
0.000147081
0.000165806
0.020541
0.000149479
0.00599891
0.000146291
0.000145361
0.000158139
0.000145012
0.000260731
0.000144572
0.0427816
0.0182622
0.000153704
0.000178044
0.000152769
0.0001815
0.000147947
0.000154307
0.0214895
0.000226854
0.000148004
0.000199147
0.000154175
0.020976
0.000191774
0.000146321
0.000151194
0.0646375
0.0363041
0.000262796
0.000146466
0.000153969
0.000388657
0.0661064
0.000157718
0.000159301
0.000247072
0.000161417
0.000154085
0.0221345
0.000191509
0.000188978
0.000260661
0.000149891
0.000151038
0.000146437
0.0262223
0.000151344
0.000150136
0.0586929
0.000149739
0.000149324
0.000148907
0.000195488
0.000148486
0.0483433
0.000148513
0.000179413
0.000158239
0.000191774
0.000157032
0.000164506
0.000155
0.00019455
0.036478
0.0216035
0.000148245
0.0597735
0.000157832
0.000195042
0.000157655
0.000158966
0.000149756
0.000157923
0.000146555
0.0159529
0.000201838
0.000150285
0.000147233
0.000149844
0.000164855
0.000144617
0.00016033
0.00384971
0.00015029
0.000163898
0.0116869
0.00190336
0.000157471
0.00024556
0.000149535
0.000144606
0.000148998
0.000171475
0.000147879
0.000147227
0.000146297
0.000148743
0.000145341
0.0177653
0.000154907
0.0437796
0.0350737
0.000149872
0.000196958
0.000148506
0.000158452
0.0145964
0.000927675
0.0341872
0.000147462
0.000162195
0.00014431
0.00014484
0.0111993
0.000168325
0.000208308
0.000144556
0.000146854
0.000147976
0.000153423
0.000329467
0.000195553
0.000146923
0.00014994
0.000149393
0.00245942
0.000192543
0.000147785
0.00351749
0.00113914
0.0228728
0.000158191
0.000184931
0.000193494
0.000146308
0.000146121
0.000148454
0.000147051
0.00699853
0.0533006
0.000192885
0.000159955
0.000206865
0.000270209
0.000158032
0.000148359
0.000147996
0.000223606
0.000159759
0.000169887
0.000160106
0.000148078
0.00016519
0.000159754
0.000153817
0.000150937
0.0546507
0.0279519
0.000146286
0.000165699
0.000151075
0.00014562
0.000149796
0.0336336
0.00014783
0.000203734
0.000163149
0.000151088
0.000149159
0.000147955
0.00319224
0.000149873
0.000177599
0.0648487
0.0426827
0.0001464
0.000183331
0.000151558
0.000149687
0.000145353
0.000154183
0.000148824
0.000175744
0.000147948
0.000517758
0.000155848
0.000147817
0.00015137
0.000166849
0.000159392
0.000158227
0.000159261
0.000159087
0.000144773
0.000144203
0.000173201
0.000147088
0.000646672
0.000149697
0.000187443
0.0394537
0.0388314
0.00014681
0.000211592
0.000165269
0.0466371
0.0494072
0.000306249
0.0213906
0.000144847
0.0560111
0.00015105
0.000153168
0.000209666
0.0457649
0.000170356
0.00148814
0.000146965
0.000154837
0.000214074
0.000203396
0.0374704
0.000263367
0.00018103
0.000156685
0.0256459
0.000154759
0.000252221
0.00014883
0.000179029
0.000219208
0.000152651
0.000183697
0.000144131
0.000148563
0.00017475
0.000148404
0.0380122
0.000159769
0.000148524
0.000222195
0.0276897
0.000144949
0.0243843
0.000154634
0.000145934
0.035023
0.0465653
0.000150943
0.000147158
0.00014881
0.00019161
0.000154265
0.0518348
0.0252084
0.000204648
0.0522479
0.000149022
0.000173669
0.000149681
0.0251037
0.000148204
0.000223556
0.0424713
0.000194815
0.0290825
0.000147357
0.000146339
0.000143257
0.000148294
0.000149757
0.000160747
0.0624744
0.000154315
0.000174518
0.000879673
0.0332242
0.0301486
0.022948
0.000147101
0.000147136
0.000165301
0.000151003
0.0240367
0.000170317
0.0001464
0.057169
0.0304597
0.000149962
0.000148589
0.000146148
0.0106863
0.000156624
0.000147057
0.000147454
0.000148796
0.00014846
0.000147718
0.000145331
0.00020198
0.000144203
0.000303733
0.000188547
0.00015317
0.000159508
0.000153464
0.000148403
0.00017388
0.000149762
0.000149872
0.000166793
0.000254295
0.000146362
0.000166232
0.000152083
0.000168543
0.0573634
0.000144747
0.000163291
0.00014778
0.0113396
0.000151218
0.0250099
0.00114064
0.0368401
0.0691742
0.000261527
0.000194054
0.000464139
0.0565379
0.000151057
0.063569
0.000148223
0.00020997
0.0382128
0.000175993
0.00014596
0.000149314
0.000145748
0.0697851
0.000180672
0.000144961
0.000144562
0.000147572
0.000191617
0.000204489
0.000149267
0.000178388
0.0555767
0.000145237
0.000186346
0.000146599
0.000147354
0.000147774
0.00015834
0.0697822
0.000216072
0.000222262
0.000202994
0.0687601
0.000193842
0.00140236
0.0336336
0.000247183
0.0618978
0.000146856
0.00018847
0.000148795
0.000149378
0.000148867
0.000161289
0.000148108
0.000151592
0.00673498
0.000152654
0.000154515
0.000154863
0.000161236
0.000146153
0.000200258
0.000149707
0.000149934
0.000193233
0.000170271
0.0300719
0.000163058
0.000152661
0.000172488
0.0705765
0.0121803
0.000149408
0.000196786
0.000152403
0.000166487
0.000148614
0.000149581
0.000153816
0.0497713
0.000166337
0.000169096
0.000158226
0.0114565
0.0542505
0.0522797
0.0209982
0.000147547
0.000146308
0.061184
0.000174437
0.000169613
0.0271392
0.000148755
0.000145022
0.000149836
0.000151854
0.000187218
0.0185364
0.000182577
0.000144888
0.000146427
0.000148634
0.000175922
0.00024987
0.000148162
0.00016093
0.000176504
0.000148021
0.000167594
0.000209516
0.0333715
0.0316127
0.00014735
0.000173524
0.0448376
0.000174348
0.000158571
0.000170893
0.0300985
0.000149109
0.000144028
0.000145681
0.00014608
0.000151795
0.0121707
0.000144049
0.000148501
0.000171716
0.000158673
0.0206812
0.000153639
0.000156632
0.000160482
0.00016345
0.000149144
0.043542
0.000149075
0.000149758
0.000191666
0.000163366
0.000146651
0.000149769
0.000170258
0.0487367
0.000158099
0.000154316
0.000188392
0.000169969
0.000154973
0.0321099
0.030494
0.000158625
0.000150737
0.000150551
0.0166215
0.000220922
0.000160192
0.000176648
0.000144618
0.000183482
0.000146757
0.000156922
0.0201855
0.000157439
0.000169307
0.00015366
0.000512887
0.000177963
0.000148898
0.000195086
0.000191528
0.000149663
0.000179921
0.000148785
0.00017059
0.0188592
0.0168079
0.000593295
0.000170884
0.000235025
0.000198489
0.000180111
0.000148257
0.000148111
0.000156523
0.000164858
0.0588672
0.000160456
0.000150093
0.000148893
0.059374
0.000181292
0.0641214
0.000151712
0.000146439
0.0114302
0.0565699
0.000148098
0.000149508
0.000145874
0.000162004
0.000174545
0.00015118
0.000157301
0.000163603
0.000158892
0.0258099
0.000147982
0.000156143
0.0388428
0.000144743
0.00017694
0.000143927
0.000157825
0.0592346
0.000157505
0.000164973
0.000145704
0.000146817
0.00019179
0.000149198
0.000148128
0.00014844
0.000163367
0.000189175
0.000157622
0.000170623
0.000147995
0.000146366
0.000162405
0.0299951
0.0436718
0.000157711
0.0192627
0.000157943
0.000154534
0.000154208
0.012802
0.000153775
0.000149079
0.000148349
0.000190266
0.000161913
0.000184097
0.000149985
0.000148408
0.0105799
0.000151116
0.00014965
0.038045
0.000157528
0.000148555
0.000144753
0.000164274
0.021415
0.0221507
0.000145896
0.000160261
0.000154169
0.000146759
0.000145323
0.000163744
0.000158876
0.000186205
0.000144985
0.000166363
0.00016585
0.0193836
0.000159093
0.0668766
0.000207591
0.000151293
0.0221123
0.000272728
0.000208792
0.0001656
0.000164958
0.00014906
0.000148841
0.000159559
0.0356142
0.000392131
0.000148718
0.0582587
0.000148783
0.000164801
0.000173123
0.000159615
0.000149005
0.000233012
0.0503665
0.000143483
0.000148066
0.000163879
0.000147622
0.000159538
0.000184734
0.00146006
0.000162948
0.000149868
0.000144919
0.000173493
0.000166304
0.000197098
0.00015356
0.00020448
0.00016014
0.000196026
0.000173093
0.000200519
0.000194685
0.000181184
0.000201345
0.0184101
0.000157034
0.000546315
0.000157026
0.000193256
0.000148447
0.000145037
0.000161097
0.000147687
0.000177689
0.00024116
0.000169137
0.000157708
0.0503685
0.000165602
0.000157886
0.038747
0.000146314
0.000334814
0.000172233
0.000149876
0.0437266
0.000206831
0.000172913
0.000172868
0.0218513
0.000161399
0.000149594
0.000174029
0.000165872
0.0208327
0.000171292
0.000164752
0.000165019
0.00015833
0.00018253
0.000176179
0.00024323
0.00256056
0.000154214
0.000146281
0.000150073
0.047348
0.000163045
0.00015318
0.000157298
0.0227987
0.000161258
0.000148499
0.00016444
0.000146325
0.000148412
0.000157008
0.000193517
0.000147944
0.0185712
0.000149693
0.000146633
0.000174903
0.00016143
0.0178113
0.000147504
0.000151283
0.0547974
0.000163703
0.000148125
0.0346856
0.0190493
0.000158054
0.000206288
0.000155309
0.000163809
0.0300291
0.00016269
0.000723136
0.000202492
0.000172323
0.000165571
0.000165273
0.000145845
0.000148182
0.000146128
0.000166555
0.000213272
0.0461981
0.000159842
0.000175497
0.000147434
0.000145784
0.000152427
0.0440284
0.000156888
0.000162491
0.000154743
0.000148723
0.0150092
0.000148694
0.000144371
0.000216131
0.000149574
0.000148003
0.000146748
0.000149486
0.00015313
0.0198328
0.00019167
0.00014897
0.00014408
0.000170487
0.000153033
0.000154499
0.0238336
0.000378068
0.0415104
0.000148161
0.000175991
0.0368596
0.0696333
0.0002197
0.00784529
0.000155835
0.000147999
0.020772
0.000164435
0.0314645
0.000152039
0.000148076
0.000152007
0.00015299
0.0223601
0.0192134
0.000154497
0.000163311
0.000213905
0.000149425
0.00450586
0.0624611
0.000151685
0.000176279
0.0640386
0.000147308
0.000206689
0.0374233
0.000149736
0.00014713
0.0394769
0.000147868
0.000148442
0.000155077
0.0237151
0.0218387
0.000146034
0.000163769
0.000150783
0.0249563
0.000205588
0.000148511
0.000145287
0.0279154
0.0347893
0.0438682
0.000144828
0.000145876
0.000148372
0.000176551
0.000165574
0.000158426
0.000146716
0.000157179
0.0407233
0.000176412
0.000145943
0.0462029
0.000163769
0.000146112
0.000153141
0.000159567
0.000148537
0.000193427
0.000167673
0.0410745
0.000176681
0.000164793
0.0185231
0.000161319
0.000194201
0.0214795
0.000166011
0.0458473
0.000162999
0.041557
0.039343
0.0180222
0.000164006
0.066328
0.000201295
0.00014656
0.000156453
0.000185782
0.000173862
0.000161386
0.0547183
0.000153268
0.000145978
0.000159356
0.000144763
0.00014751
0.000155753
0.000187143
0.000191933
0.000163784
0.00539734
0.000148939
0.000153905
0.000146242
0.000148412
0.000177945
0.000152516
0.000153157
0.000149656
0.000148501
0.000212297
0.000146657
0.000148846
0.000179113
0.000153415
0.0324129
0.000171982
0.000272496
0.00016366
0.000153535
0.000150499
0.000192636
0.000148033
0.0464971
0.021439
0.00015193
0.000148654
0.0449103
0.00020125
0.00020091
0.0248251
0.000144137
0.000148036
0.000156312
0.000565026
0.000153606
0.000148922
0.000168618
0.000164684
0.0155941
0.0397361
0.000575578
0.000186854
0.000149465
0.000652821
0.000151532
0.000156988
0.000147689
0.000156912
0.000186575
0.000176176
0.000254526
0.000147279
0.000157626
0.000156752
0.000148109
0.0194063
0.000164131
0.000156737
0.000380848
0.000241633
0.000147652
0.000145872
0.000156466
0.045602
0.000144261
0.000175906
0.000158038
0.000151045
0.000172226
0.000169209
0.000152655
0.0291364
0.000149401
0.000191479
0.000163619
0.000178731
0.000169301
0.000152986
0.00036369
0.00016813
0.000149251
0.000160247
0.000175546
0.000146066
0.000168446
0.00016287
0.0275685
0.000149573
0.00782702
0.00014803
0.000162353
0.00016196
0.000146655
0.0220736
0.00018516
0.000145828
0.000174999
0.000148473
0.000149073
0.000146988
0.000152359
0.000157568
0.000174594
0.00014987
0.000155472
0.000181488
0.000166586
0.000179177
0.000174011
0.000146298
0.000150461
0.000146233
0.00016932
0.000146607
0.000154587
0.000200625
0.000190781
0.0001482
0.000148428
0.000147693
0.000186737
0.000148964
0.000154039
0.000194558
0.000158893
0.00758502
0.000198857
0.000149708
0.000177354
0.031148
0.000148664
0.000148109
0.0346494
0.000172091
0.000170388
0.000148691
0.000145413
0.000143551
0.000151897
0.0332393
0.0266548
0.000148169
0.000190067
0.000170978
0.000156677
0.000146129
0.000149489
0.0284067
0.000149126
0.000147853
0.0119721
0.000935649
0.000145059
0.000144762
0.000148005
0.0319352
0.000152048
0.000150501
0.0284473
0.0247135
0.000147176
0.000160721
0.000148911
0.000194964
0.000205855
0.000148088
0.0631403
0.000155751
0.00018376
0.000146964
0.000372947
0.0311175
0.000180238
0.0258173
0.0440477
0.000144067
0.0248751
0.000148029
0.00014722
0.0174384
0.000149588
0.000196738
0.000159623
0.00396004
0.000148099
0.0068658
0.0334108
0.000147919
0.000149774
0.000191815
0.0180546
0.000154695
0.000148769
0.00015984
0.000186225
0.000160684
0.000146988
0.0273483
0.000150869
0.000158774
0.000151886
0.000174496
0.0260033
0.000146683
0.0302719
0.000182687
0.000209798
0.000149563
0.000151615
0.000177269
0.000203797
0.0675662
0.00014697
0.000148182
0.000145839
0.00048029
0.000200712
0.0231238
0.0708143
0.000188655
0.000145841
0.000149052
0.000147554
0.0461544
0.000147317
0.0267838
0.0603964
0.000149235
0.000193023
0.000171016
0.000167614
0.000185757
0.000147939
0.000146213
0.000230328
0.00125771
0.000146158
0.000150594
0.041599
0.000241485
0.000156464
0.000269251
0.000150781
0.000150148
0.0498679
0.0664038
0.00014863
0.000153111
0.000145929
0.0229465
0.0683051
0.00014628
0.00014718
0.000150806
0.000148208
0.000159501
0.000156066
0.000148225
0.0383075
0.000197314
0.000159088
0.000153643
0.00421581
0.000146132
0.000148904
0.000147798
0.0351874
0.000201537
0.000149222
0.000147638
0.0210444
0.000158903
0.0491999
0.000149226
0.0338982
0.0521324
0.000171247
0.000146174
0.000149157
0.000147279
0.000162781
0.000225281
0.000193298
0.000270278
0.000162602
0.000148653
0.000221633
0.00456198
0.0175849
0.000160773
0.000146832
0.000146299
0.000143552
0.000205377
0.00419719
0.000152722
0.000160151
0.000147186
0.000148375
0.00014703
0.000174768
0.00014773
0.00018916
0.000145741
0.000181535
0.0375835
0.0474819
0.0176004
0.000205602
0.000148409
0.000158529
0.000186814
0.00017057
0.000153484
0.000156989
0.000148324
0.000147708
0.000154928
0.000146737
0.000146881
0.000179793
0.000145388
0.00016146
0.0217798
0.000148974
0.000158209
0.000195754
0.000149762
0.0546331
0.00016888
0.000158585
0.000148427
0.000143776
0.000360802
0.000148192
0.000154423
0.000145745
0.000148111
0.000148994