/*--------------------------------*- C++ -*----------------------------------*\
| =========                 |                                                 |
| \\      /  F ield         | OpenFOAM: The Open Source CFD Toolbox           |
|  \\    /   O peration     | Version:  v2012                                 |
|   \\  /    A nd           | Website:  www.openfoam.com                      |
|    \\/     M anipulation  |                                                 |
\*---------------------------------------------------------------------------*/
FoamFile
{
    version     2.0;
    format      ascii;
    class       volScalarField;
    location    "300";
    object      nut;
}
// * * * * * * * * * * * * * * * * * * * * * * * * * * * * * * * * * * * * * //

dimensions      [0 2 -1 0 0 0 0];


internalField   nonuniform List<scalar> 
14804
(
0.00670718
0.00583
0.00195354
0.00499742
0.00225013
0.00186587
0.00212401
0.00293208
0.00171225
0.00583396
0.000402832
0.00186222
0.00201757
0.00433886
0.000380131
0.00759355
0.00244696
0.00514601
0.000103211
0.00343603
0.0058364
0.00103224
0.000328577
0.00282211
0.00138502
0.0024703
0.00434598
0.00309831
0.00599041
0.00351663
0.00588485
0.000320403
0.00342843
0.00120309
0.00184106
0.00207712
0.000479363
0.00583535
0.00298369
0.003407
0.00195384
0.00191116
4.98507e-05
0.00502517
0.00259399
0.00103881
0.00167565
0.0021616
0.000972133
0.000173094
0.00205473
0.00587418
0.00583164
0.00564587
0.000177295
0.00205207
0.000639941
0.00575145
0.00583477
0.00105944
0.00209777
0.00184316
0.00501519
0.00293225
0.00485163
0.00583203
0.00583616
0.00197233
0.00583128
0.00767456
0.00589961
0.00447864
0.000395553
0.00817146
0.00587747
0.00760947
0.00792847
0.00582968
0.000154963
0.00583475
0.00786594
0.00583188
0.00583652
0.00587652
0.00583562
0.000805988
0.00582783
0.00579534
0.00582869
0.0029103
0.00124012
0.000962297
0.00213897
0.00589056
0.000157967
0.00810672
0.00617428
0.000383835
0.00236563
0.000431774
0.0059439
0.00687219
0.00583586
0.0040789
0.000987949
0.00737179
0.00186922
0.000128759
0.0058364
0.00588843
0.00583612
0.00652179
0.00211962
0.00323002
0.00656796
0.0069093
0.000869667
0.00121336
0.00583553
0.00511204
0.00809915
0.00582859
0.00210405
0.00184178
0.0058347
0.00583567
0.000910259
0.00418698
0.000282959
0.0018453
0.00194797
0.000542612
0.00742681
0.000400064
0.00119364
0.00207834
0.00483787
0.000785259
0.00412135
0.00112057
0.00583041
0.00455405
0.0059255
0.0032377
0.00416272
0.00583201
0.00104887
0.00583582
0.000735682
0.000154898
0.00170985
0.000286147
0.00335425
0.00405226
0.00583547
0.00633784
0.00454593
0.000331687
0.0028893
0.000640541
0.00582875
0.0058298
0.00743651
0.000360331
0.00375105
0.00642468
0.0021287
0.00233318
0.00434953
0.003161
0.000433539
0.000806693
0.00159372
0.000389029
0.000604742
0.000492284
0.000227607
0.00117162
0.00583092
0.000605349
0.00170189
0.0086295
0.00218793
0.000418814
0.00105265
0.00509471
0.00100437
0.000872735
0.00247705
0.00583275
5.33661e-05
0.00201156
0.00312521
0.001011
0.000291909
0.00584258
0.006449
0.00205937
0.000447213
0.00233327
0.0036868
0.00583267
0.00287703
0.000445873
0.00128594
0.00267248
0.00462981
0.000502085
0.00113244
0.00166176
0.0036917
0.00211936
0.0017826
0.00582877
0.00172426
0.00412006
0.00415585
0.00585042
0.0058441
0.00565288
0.000422312
0.00202257
0.000405779
0.000879479
0.00588342
0.000450937
0.0034881
0.00107967
0.00728415
0.00110064
0.00588786
0.00293548
0.00536714
0.00787909
0.00828026
0.00583585
0.00113832
0.00104615
0.00065636
0.00124946
0.00522415
6.32128e-05
0.00221856
0.00543018
0.00585029
0.000832966
0.00176233
0.00357221
0.000297546
0.00589305
0.00279818
0.00584201
0.00582892
0.00582944
0.0071232
0.00132207
0.00583162
0.0032961
0.0058975
0.00583243
0.00273965
0.0025786
0.000286387
0.00259214
0.000365709
0.00397989
0.0046968
0.00584715
0.00296882
0.00194514
0.00894215
0.00580349
0.00583589
0.0058353
0.00432169
0.000382803
0.00566979
0.00326677
8.06854e-05
0.0076234
0.00105145
0.00582791
0.00347791
0.00213715
0.00903967
0.000536931
8.36643e-05
0.00578805
0.000385107
0.000495841
0.0057073
0.00382365
0.00104002
0.00587227
0.0019729
0.000202587
0.000508278
0.000264476
0.00454276
0.000380925
0.00583731
0.00582958
0.000387766
0.00345142
0.000153008
0.00272837
0.00169712
0.0072472
0.000396353
0.0028629
0.00275472
0.00587159
0.000572181
0.0012214
0.00701039
0.00156624
0.00264656
0.000541791
0.00582957
0.00434444
0.00110499
0.000912253
0.00104064
0.00199593
0.00588646
0.00351336
0.000491746
0.0058349
0.000456236
0.00384516
0.00392256
0.0043907
0.00025893
0.000624739
0.00583242
0.00588064
0.00582955
0.0035528
0.00136112
0.00159138
0.000984426
0.00546238
0.00152068
0.00205844
0.00588927
0.00665484
0.00863253
0.00749166
0.0015966
0.00517746
0.00313175
0.00341568
0.00583173
0.00584541
0.00140044
0.00106642
0.00236897
0.000118795
0.00584635
0.00582892
0.00145827
0.000844765
0.0021135
0.000728581
0.00804872
0.00791966
0.00571093
0.00130656
0.0012362
0.00584055
0.001685
0.00583376
0.000245587
0.00382957
0.00582892
0.00175347
0.00584871
0.00183367
0.00743307
0.000361218
0.000607306
0.00357538
0.000409951
0.00924798
0.0018305
0.00584132
0.00913423
0.00110653
0.00583239
0.00700368
0.000388804
0.00586086
0.00149494
0.00564973
0.00378134
0.00176693
0.000640714
0.00446259
0.00520777
0.00583397
0.00041007
0.00583204
0.000104127
0.00142449
0.000684571
0.000665493
0.00078247
0.00205124
0.00350731
0.00583588
0.00566252
0.000310556
0.00254114
0.00583397
0.00586948
0.000425646
0.00583328
0.00322725
0.0028344
0.00657944
0.000554841
0.00243893
0.00586631
0.00492831
0.000676331
0.00430563
0.00865365
0.000177284
0.00531618
0.00587692
0.00235509
0.00587437
0.000201995
0.00583199
0.00177418
0.00454271
0.00583628
0.00645537
0.00584624
0.00150059
0.00357216
0.00897362
0.00586167
0.00387885
0.00583157
0.00536218
0.00356836
0.0045666
7.11328e-05
0.00178781
0.00776577
0.00170892
0.00588742
0.00583583
0.00592875
0.00462206
0.00605822
0.00447181
0.00349
0.00583566
0.00115105
0.00583137
0.000464812
0.000781114
0.00433425
0.00085344
0.00352675
0.00700989
0.00240458
0.00175714
0.00583564
0.000301065
0.00362721
0.00585745
0.00405564
0.00502238
0.00220465
0.00132129
0.00337981
0.00759677
0.00208683
0.00442917
0.00118178
0.00201588
0.00588233
0.000496477
0.00539823
0.00344488
0.00586234
0.000881475
0.000477563
0.000339125
0.00096008
0.00585735
0.000597581
0.00583562
0.00476936
0.00165807
0.00212501
0.00502009
0.000450805
0.00176845
0.00583017
0.000181229
0.00822233
0.00583459
0.00583255
0.00582763
0.00588365
0.00255117
0.00583445
0.00183865
0.000982414
0.00346149
0.00192986
0.00810317
0.00583317
0.000418107
0.00583111
0.000957399
0.00115025
0.000292737
0.00245199
0.00583352
0.00454973
0.00577222
0.00583035
0.00124812
0.0058306
0.00061021
0.00587592
0.000869605
0.00289036
0.00587374
0.0086506
0.00199326
0.00522053
0.000879439
0.0058321
0.000892629
0.00583179
0.00525962
0.000500161
0.000319079
0.00101048
0.00762887
0.00582994
0.00577054
0.000943065
0.0031897
0.000615309
0.00821353
0.00701089
0.00583392
0.00582794
0.00582929
0.000442263
0.000442236
0.00915539
0.00785172
0.00583206
0.00296467
5.0446e-05
0.000488977
0.00440112
0.00542835
0.00137434
0.00588233
0.00108153
0.00894711
0.000897612
0.000434904
0.00583024
0.00582919
0.00589697
0.000762863
0.00582862
0.000979344
0.00583242
0.00030774
0.000713181
0.000674382
7.22964e-05
0.00588245
0.00584189
0.00765283
0.00580928
0.000333137
0.00582899
0.00589746
0.00584961
0.0058356
0.00323176
0.00346729
0.00747039
0.00769254
0.0058334
0.00553069
0.00391417
0.00118315
0.000164143
0.00065548
0.00588796
8.35502e-05
0.00100705
0.00354972
0.00584684
0.000444995
0.00197011
0.0058285
0.00529815
0.000322875
0.00583643
0.00583093
0.000903113
0.00481112
0.00352671
0.00118958
0.000522124
0.00584389
0.000441379
7.86401e-05
0.000344575
0.00583648
0.00315185
0.00585283
0.000538121
0.00583374
0.005834
0.00152584
0.00168664
0.000461587
0.00300206
0.000516654
0.00584781
0.00807267
0.00583178
0.00170494
0.00041098
0.00395183
0.00582808
0.00562914
0.00451633
0.00132455
0.00583512
0.000436905
7.84507e-05
0.00448345
0.00584016
0.00667523
0.00850559
0.000125062
0.00564432
0.000161177
0.00583552
0.0045654
0.000261428
0.00263686
0.000391085
0.00797831
0.000193356
0.000817952
0.00103033
0.00337541
0.00771107
0.0014662
0.00582898
0.00501286
0.000880408
0.00180266
0.000363933
0.00127082
0.000565737
0.000908619
0.00582799
0.000995944
0.00582798
0.00323348
0.00630578
0.00830144
0.000405989
0.00537661
0.00582992
0.00583257
0.00110566
0.000189479
0.00852967
0.00129257
0.000518104
0.000350017
0.000456311
0.000511881
0.00233646
0.00284742
0.00818981
0.00195074
0.00582909
0.00485745
0.00513052
0.000570822
0.00582714
0.000610077
0.00105793
0.000456123
0.000644007
0.00103079
0.00328146
0.00106919
0.00323597
0.00238613
0.00417097
0.00583344
0.00216081
0.00288196
0.00805569
0.00278205
0.00170455
0.00490192
0.00583258
0.00583941
0.00103689
0.000501398
0.00585352
0.000383833
0.00588894
0.00120682
0.00518768
0.000891332
0.0058098
0.00582819
0.00583824
0.00115713
0.00117819
0.000743375
0.000691432
0.00582891
0.00583229
0.00582995
0.00646875
0.000439703
0.000688908
0.00885244
0.000527867
0.0037034
0.00627011
0.00566772
0.00583124
0.00582911
0.00588748
0.00116788
0.00588738
0.00582991
0.000416451
0.00152916
0.000515537
0.00589361
0.00670945
0.00552233
0.0032485
0.000794387
0.00310591
0.000940469
0.000445747
0.00232846
0.000406519
0.00160271
0.0033538
0.00103917
0.000486873
8.22831e-05
0.00583161
0.000436101
0.00438243
0.00583537
0.0091603
0.00461817
6.86871e-05
0.00407148
0.0003952
0.00584285
0.00653578
0.00582931
0.00113687
0.00486687
0.00214233
0.00583513
0.00517132
0.00672602
0.00432618
0.00112725
0.000867836
0.00219497
0.000853617
0.000487775
0.00738379
0.0047796
0.00582948
0.00584158
0.00583318
0.00343449
0.000454667
0.00466995
0.00874332
0.000864509
0.00589324
0.00141461
0.000282854
0.0058992
0.00327825
0.00891335
0.000672394
0.00353019
0.000757335
0.00230698
0.00583015
0.000981404
0.00565076
0.00813418
0.000485036
0.000988966
0.00160043
0.000518388
0.00099773
0.00583255
0.000334225
0.00132724
0.0058919
0.0052564
0.000643025
0.00584237
0.000206512
0.00585317
0.00035908
0.000208382
0.00207459
0.00232275
0.00588402
0.00584527
0.000914043
0.00110728
0.00585338
0.00589443
0.00519131
0.00170456
0.00733998
0.000174625
0.00583303
0.00583337
0.00360024
0.00020609
0.00287934
0.00582856
0.00111225
0.000714885
0.0058305
0.00584522
0.00120028
0.00167052
0.00583142
0.00590684
0.00588531
0.00148706
0.00583041
0.00463161
0.000806322
0.003322
0.000119444
8.44769e-05
0.00589138
0.000169165
0.00582505
0.00640883
0.00179637
0.00534813
0.00583391
0.00444434
0.00375804
0.00255218
0.00450875
0.00583009
0.00252077
0.00149508
0.00601432
0.000547608
0.00583382
0.00262987
0.00583641
0.0057584
0.00520929
0.000162334
0.00188839
0.00040949
0.00273481
0.0018509
0.00500062
0.00583589
0.00213727
0.00354704
0.00587929
0.00582864
0.000309077
0.00583373
0.00117434
0.0057954
0.00125549
0.00583641
0.000503344
0.00584071
0.000180607
0.00472756
0.000595995
0.00233784
0.000420745
0.00151482
0.00545554
0.00583613
0.00512647
0.000876442
0.000494617
0.00585404
0.00583118
0.00796964
0.00218897
0.000963667
0.00588286
0.0058291
0.00044129
0.00196507
0.00624067
0.00734725
0.00144056
0.00213546
0.00921427
0.00584315
0.00583446
0.000284387
0.00179138
0.000114406
0.00252302
0.00583322
0.00589108
0.00183634
0.00584054
0.00520402
0.00569579
0.00272699
0.00584828
0.00108783
0.00583379
0.000877531
0.00589037
0.00586985
8.98666e-05
0.000491031
0.000997226
0.00714571
0.000151359
0.00436804
0.000386598
0.000162401
0.00428267
0.00442824
0.000106256
0.00167506
0.00585216
0.0018306
0.00397459
0.00264578
0.00569112
0.00584572
0.000663584
0.004513
0.00583161
0.00194156
0.0058412
0.0020438
0.00584012
0.000567608
0.000334387
0.00192815
0.00257641
0.000139579
0.00717694
0.00374506
0.00588604
0.00583432
0.000686732
0.00584855
0.000674492
0.000665269
0.00336766
0.00583054
0.00583251
0.00264737
0.00320842
0.00075259
0.000757977
0.000333269
0.00583362
0.00583405
0.00205862
0.00353078
0.002042
0.00164092
0.00583393
0.00677874
0.00108805
0.000290689
0.00205477
0.00531896
0.00324326
0.00588798
0.00605121
0.000835445
0.00584114
0.000892842
0.000334138
0.00513959
0.000896214
0.00051021
0.00583893
0.000303511
0.00306284
0.00428925
0.00276603
0.00327208
0.00354046
0.00584188
0.00351151
0.00171541
0.00237322
0.00583505
0.00295351
0.00584169
0.00619037
0.00812085
0.000595209
0.000398108
0.000443268
0.00184203
0.00296999
0.00264572
0.00770766
0.00184553
0.000498966
0.00066761
0.00583394
0.00577001
0.000660142
0.00320881
0.00065809
0.00111269
0.000624502
0.00129232
0.00614396
0.00165873
0.00785
0.00286369
8.04003e-05
0.00582359
0.0004742
0.00722354
0.0027132
0.00196079
0.0074904
0.000251699
0.0019622
0.00595832
0.00646628
0.00732402
0.00583714
0.000403036
0.00583198
0.00583538
0.00437479
0.00583528
0.00357041
0.000767519
0.000976828
0.0058335
0.00583214
0.00584165
0.000247337
0.000913083
0.000825095
0.00887197
7.83138e-05
0.000885951
0.00584423
0.0058539
0.00401401
0.0058316
0.000197513
0.00149923
0.0035557
0.000965481
0.00129571
0.00112197
0.00585006
0.00589142
0.00587868
0.000215448
0.00782782
0.00680479
0.00583712
0.00423654
0.00479216
0.00583126
0.00584088
0.00428133
0.00579968
0.00609251
0.00462521
0.00182891
0.00363322
0.000668757
0.00432649
0.00300726
0.000654535
0.00098753
0.00427017
0.000245772
0.000529593
0.00583315
0.00583565
0.000314213
0.00583038
0.00112674
0.00577154
0.00191598
0.00395382
0.00248611
0.00635423
0.00285147
0.00583263
0.00175939
0.00585069
0.000296416
0.00583368
0.00583438
0.00589023
0.000244587
0.00583139
0.000551902
0.00583616
0.00583385
0.00132631
0.00166597
0.00386733
0.00106913
0.00223018
0.00016492
0.00583037
0.00818809
0.00335351
0.00582803
0.00382221
0.00128602
0.00124511
0.000332676
0.00324104
0.000514445
0.00374894
0.00584119
0.00819827
0.00105863
0.00580884
0.000332135
0.0058272
0.00826318
0.00236122
0.0019748
0.00593995
0.000453503
0.00194078
0.00590772
3.1099e-05
0.00515502
0.00669806
0.000208532
0.0026748
0.0044691
0.00349121
0.00420674
0.00585733
0.00207053
0.00583366
0.00583325
0.00583588
0.00504721
0.00304216
0.00658732
0.00113479
0.00458008
0.00582715
0.00783871
0.000528158
0.00159685
0.0058341
0.00590742
0.00583324
0.00193798
0.00547285
9.66193e-05
0.00586888
0.000484173
0.00411932
0.00125908
0.00112136
0.0002693
0.000355981
0.00583587
0.0034708
0.00587314
0.00784144
0.00583961
0.00392604
0.00414676
0.000491824
0.00324439
0.00584087
0.00588156
0.00583185
0.00584435
0.0058489
0.000405195
0.00714409
0.00488634
6.91648e-05
0.00117866
0.00471096
0.00263795
0.000388604
0.00545477
0.000930354
0.00225877
0.00888661
0.000270242
0.00583218
0.00587902
0.00760463
0.00585144
0.00365606
0.00525576
0.00102276
0.000692774
0.00583201
0.00109585
0.00111694
0.000785598
0.00681943
0.00788983
0.00587362
0.00587561
0.00107038
0.00584257
0.00285128
0.00583255
0.000621675
0.000584277
0.00589732
0.00489351
0.00203158
0.00583329
0.00328949
0.000491969
0.00583161
0.00282954
0.000616933
0.000386826
0.000604259
0.004725
0.000396882
0.0058357
0.00401554
0.00582528
0.00719319
0.00582914
0.00749675
0.0036224
0.00115079
0.0058354
0.00588724
0.000630257
0.00106235
9.57106e-05
0.00695307
0.000509266
0.0034265
0.0058303
0.00239029
0.00583827
0.000648431
3.29018e-05
0.00583568
0.00103719
0.00589253
0.00583614
0.00589443
0.00731499
0.00184912
0.00583383
0.00237185
0.00197883
0.00184155
0.00108516
0.000993815
0.00614761
0.00126032
0.00536057
0.00205336
0.00329709
0.0035495
0.0055169
0.005888
0.00672143
0.00538965
0.0021123
0.00223435
0.000348202
0.00058587
0.00583621
0.00230997
0.00364379
0.00112314
0.00559705
0.00519731
0.00737046
0.00516768
5.43204e-05
0.00583236
0.00353887
0.00069675
0.00729539
0.00270338
0.00583253
0.00584893
0.00583321
0.00583419
0.00583242
0.00813653
0.00710878
0.00583036
0.000679678
0.000467884
0.00484276
0.00805061
0.0053208
0.0058594
0.00579589
0.000246468
0.0045321
0.00589128
0.000885435
0.00586262
0.00583726
0.0053332
0.0058429
0.000390438
0.00584893
0.00795824
0.00295729
0.00117125
0.00291753
0.00102651
0.00113015
0.00583109
0.000612627
0.00530525
0.00020301
0.00583152
0.00139535
0.000682306
0.0035571
8.83928e-05
0.00588653
0.0011073
0.00911411
0.00672141
0.000242941
0.00582982
0.000728226
0.00040141
0.00773637
0.00234456
0.000312476
0.000564988
0.000336431
0.00261976
0.00374067
0.00102822
0.000337577
0.0002767
0.00173915
0.0011592
0.00588398
0.00662138
0.00550626
0.00168157
0.007658
0.00175241
0.00208986
0.00583339
0.0015965
0.00583215
0.00896234
0.00583409
0.000782086
0.00372065
0.00181864
0.000636963
0.00025956
0.00418522
0.000225701
0.00796405
0.00367375
0.00325904
0.00950091
0.00165805
0.000363292
0.00147322
0.000409119
0.00583584
0.00183699
0.00583157
0.00381183
0.000135227
0.00144355
0.00583858
0.00470272
0.000352671
0.00585126
0.00425368
0.00149083
0.00148606
0.00465996
0.0019814
0.000515819
0.0053901
0.000327033
0.00583519
0.00583062
0.00583423
0.00368744
0.00583257
0.00582907
0.00584987
0.00583399
0.00583733
0.00558515
0.000737263
0.00854669
0.0059257
0.00583618
0.00140124
0.00335378
0.00098639
0.00233267
0.000640726
0.00622423
0.00583927
0.00479913
0.00584227
0.00585185
0.00141085
0.000750925
0.000109611
0.00583525
0.00588316
0.00583255
0.00571664
0.000482454
0.000522986
0.00587883
0.00583639
0.00589312
0.000468437
0.000366011
0.00575043
0.0012641
0.000454245
0.00374072
0.000427296
0.00214237
0.00171505
0.00587424
0.00588532
0.00583188
0.00589456
0.00137633
0.00456368
0.000459156
0.00157083
0.00104598
6.3246e-05
0.00533185
0.00583435
0.00583117
0.000190879
0.00516681
0.00294714
0.00197921
0.0036247
0.000707615
0.00149481
0.00279524
0.00127626
0.00832347
0.00524209
0.00585902
0.00012035
0.00124272
0.005836
0.00198386
0.00724022
0.00583268
0.00111044
0.00120567
0.0011294
0.0039554
0.00583131
0.00123574
0.00170103
0.000873311
0.00897256
0.00746723
0.0058524
0.00226618
0.00105352
0.00323401
0.00582818
0.000697052
0.00293975
0.000572346
0.00491967
7.06158e-05
0.000667636
0.00583066
0.00162341
0.00021585
0.00518426
0.00103067
0.00123764
0.00524323
0.00583366
0.00583035
0.00349653
0.00589914
0.000516691
0.00583567
0.00206458
0.00721246
0.0073699
0.00584457
0.000932286
0.000136734
0.00799823
0.00787241
0.000389699
0.00576033
0.00584546
0.00836023
0.00169678
0.00102796
0.000974545
0.00874968
0.00122238
0.000407204
0.00584897
0.000950332
0.000867591
0.00111262
0.00634534
0.000351318
0.000619938
0.00546785
0.00370492
0.000652008
0.000420909
0.005833
0.00214171
0.000831998
0.0057673
0.00147305
0.00582652
0.00583232
0.000163586
0.00398773
0.00785778
0.00301418
0.00358082
0.000785669
0.00680028
0.00586228
0.00422727
0.000678078
0.00587655
0.00707857
0.00848568
0.00118531
0.00583697
0.00583539
0.00166245
0.00074794
0.00915419
0.0060246
0.0010228
0.00730034
0.00583369
0.000357476
0.00359159
0.00658149
0.00488886
0.000758828
0.0082001
0.000334123
0.00664566
0.00582935
0.00583229
0.00582537
0.00356961
0.00583585
0.00470266
0.00868618
0.00566022
0.0033319
0.00054115
0.00747544
0.00331439
0.00586073
0.0058812
0.00583584
0.00166763
0.00126832
0.00658039
0.0035667
0.00586142
0.00942399
0.00711075
0.00200736
0.00339322
0.00584149
0.00307149
0.00044088
0.00583049
0.00462336
0.00344268
0.00458858
0.00583557
0.00585578
0.00115679
0.00582975
0.000478747
0.00200932
0.000784403
0.00117437
0.00115074
0.0058349
0.000417016
0.00583588
0.00583621
0.000233528
0.000183024
0.00582901
0.000156717
0.00290213
0.000346047
0.00783261
0.00583139
0.000376976
0.00583249
0.00131324
0.00155821
0.00385537
0.000612228
0.0020101
0.0079488
0.000524975
0.000431971
0.000328731
0.00777725
0.00186544
0.00795158
0.00293286
0.000980172
0.00662928
0.00042232
0.00583856
0.005891
0.0058743
0.00798747
8.90718e-05
0.00584596
0.00585627
0.0058297
0.00178931
0.00106215
0.0058344
0.00261718
0.00935099
0.00583311
0.000260596
0.00587254
0.00473389
0.00449415
0.00139763
0.00705119
0.000848919
0.00078317
0.000499598
0.00718387
0.000639684
0.000491376
0.00196988
0.000275504
0.00901233
0.00587222
0.00204017
0.00583294
0.00212783
0.00583408
0.000565975
0.00584239
0.00101398
0.000367279
0.0057668
0.00317216
0.00459533
0.00187071
0.00582813
0.0011614
0.00177125
0.00588001
0.00154074
0.00316301
0.00412999
0.00021797
0.00114877
0.00356371
0.00709337
0.00199663
0.0058941
0.000305756
0.00323291
0.00014233
0.00583372
0.00589029
0.00568815
0.00804103
0.00216591
1.46963e-05
0.000597706
0.0018837
0.00373706
0.00842326
0.00648944
0.00583146
0.00588115
0.00728688
0.00333593
0.000156662
0.00687012
0.00583427
0.00582982
0.00162111
0.00107971
0.00202456
0.00277757
0.000399657
0.00583397
0.00586548
0.00275901
0.000554119
0.000242092
0.00371564
0.00047795
0.0031189
0.00583264
0.000365438
0.00100239
0.0071493
0.00171811
0.00583028
0.0035251
0.00819998
0.000502009
0.000638857
0.000140954
0.00533157
0.00500709
0.00582636
0.00586144
0.00583332
0.00231376
0.00175323
0.00582939
0.00426424
0.00257392
0.00300233
0.00571827
0.00569943
0.00114516
0.00060439
0.000178824
0.0058982
0.00761648
0.00481924
0.00583582
0.00165763
0.000626919
0.00583076
0.00213346
0.00288638
0.00894652
0.000610637
0.00212523
0.000328117
0.000320188
0.00123989
0.00674583
0.00706065
0.00525845
0.0012846
0.00134424
0.00284695
0.000264063
0.000623379
0.001464
0.00582958
0.00251262
0.00583225
0.000558889
0.00343291
0.000620367
0.000428692
0.000748946
0.000491138
0.00218426
0.00583326
0.000741796
0.0017925
0.00588447
0.00285807
0.00583361
0.00156758
0.00128599
0.00305995
0.000282789
0.000188051
0.000251875
8.74898e-05
0.00275836
0.00331449
0.00583875
0.000442201
0.000351298
0.00924795
0.00068577
0.00533205
0.00590094
0.00727866
0.000578641
0.00887229
0.00296288
0.00586748
0.00171517
0.00675757
0.00369503
0.00578763
0.00588079
0.000689948
0.000464248
0.00440806
0.00152142
0.00122953
0.000568788
0.00679161
0.004929
0.000596866
0.00666764
0.00583083
0.000714409
0.00582958
0.00534882
0.00666037
0.00168243
0.000771917
0.00582926
0.00582574
0.00181295
0.00214468
0.00353929
0.00583375
0.000813107
0.00042508
0.0018897
0.000418297
0.00583106
0.0058315
0.00066852
0.00611914
0.0078402
0.00535537
0.00486024
0.00244138
0.000810969
0.00361008
0.00234338
0.000781478
0.0058343
0.00583823
9.70891e-05
0.000817431
0.00222937
0.00150274
0.00583645
0.00151273
0.00152546
0.00436023
0.00800528
0.000651978
0.00404939
0.00582978
0.00102752
0.00357356
0.00660913
0.00582888
0.00050978
0.00566886
0.00583166
0.0058271
0.00462247
0.000407878
0.00217963
0.00586185
0.00247899
0.000910071
0.0058243
0.0042803
0.0084857
0.00104009
0.00154163
0.00594899
0.000285161
6.10801e-05
0.00447669
0.00451497
0.00231127
0.00489104
0.00295229
0.0079264
0.000401495
0.00583458
0.00750303
0.00583576
0.00144767
0.000293297
0.00516496
0.00573857
0.000296275
0.00306111
0.00582916
0.00583789
0.000803052
0.00541822
0.000663341
0.00237481
0.000684713
0.000978771
0.00583615
0.00584627
0.000408322
0.00127176
0.00139665
0.000682782
0.00101545
0.000387325
0.000835133
0.000513829
0.000119805
0.000335801
0.00261833
0.000630816
0.00576577
0.00237238
0.000413532
0.00544066
0.00103608
0.0030212
0.00582716
0.000200596
0.00470504
0.0018972
0.000307161
0.00107786
0.00385916
0.0069579
0.00353906
0.000455987
0.00815582
0.0058313
0.000446188
6.92983e-05
0.00583622
0.00717902
0.00104291
7.1294e-05
0.000414142
0.00598014
0.0002714
0.00583538
0.000546704
0.00434718
0.0027689
0.000372676
0.000993646
0.00456195
0.0042472
0.00258276
0.000541572
0.000210736
0.00121063
0.00496948
0.0058639
0.00217808
0.00713819
0.00476808
0.000795464
0.00540542
0.00314367
0.000737959
0.00583925
0.00461659
0.00587329
0.00482952
0.00542615
0.000293779
0.00583102
0.00379308
0.00583568
0.00583032
0.000583365
0.00490199
0.00546168
0.00582979
0.000941356
0.00718913
0.00467454
0.00583781
0.00690969
0.00608444
0.00533903
0.000374273
0.000643013
0.00167105
0.00473832
0.00475879
4.85994e-05
0.000467042
0.00362175
0.00295846
0.00139057
0.00584165
0.00343873
0.00586903
0.00438031
0.000203428
0.00803381
0.000333084
0.000688371
0.005838
0.00584119
0.00116828
0.00693875
0.00323577
0.000863844
0.000694241
0.0030752
0.0022616
0.00583352
0.00583672
0.000856841
0.00214686
0.00358029
0.0058427
0.00466433
0.001533
0.00601755
0.00164146
0.00246314
0.00583123
0.00376594
0.00206765
0.00487043
0.00525967
0.000233647
0.00669612
0.00332713
0.000772319
0.00631699
0.00587743
0.000757235
0.000769383
0.00552614
0.00583101
0.00612076
0.00448186
0.00705829
0.00356509
0.00350574
0.00317816
0.000776129
0.00535423
0.00588087
0.00251528
0.00108413
0.000898206
0.002059
0.000340476
0.0072875
0.00359401
0.000815778
0.00532922
0.00583807
0.0010522
0.00728521
0.00305346
0.00582872
0.00674127
0.00434557
0.00583584
0.000641173
0.00336401
0.00497227
0.00583759
0.00470555
0.00131764
0.00547372
0.000462768
0.00583727
0.00583239
0.00680933
0.00553043
0.00834856
0.00583808
0.0058391
0.0035107
0.000953511
0.00450175
0.00433947
0.0058837
0.00541221
0.00715726
0.0018106
0.00583977
0.00738958
0.00148601
0.00587523
0.000743089
0.00046171
0.00342296
0.00163324
0.000899652
0.00806098
0.00100315
0.00457338
0.00490596
0.00020688
0.00148556
0.00639927
0.000304728
0.00829243
0.00471894
0.00728615
0.00800987
0.00504739
0.00463677
0.00452631
0.00115881
0.00586651
0.000631137
0.0021639
0.000243436
0.00030562
0.00709291
0.000728644
0.00583719
0.000396991
0.00582932
0.00583162
0.000813905
0.00202112
0.000675101
0.00195546
0.00028907
0.00589907
0.00515157
0.00582808
0.00359978
0.00108181
0.00502854
0.000719569
0.0058841
0.00369319
2.71746e-05
0.00583175
0.00583447
0.00269372
0.00544565
0.0071822
0.000310703
0.000497048
0.0022075
0.00309246
0.00213226
0.00143784
0.00328394
0.00317155
0.00643687
0.00580778
0.00332596
0.00870691
0.00129664
0.00117987
0.00514408
0.00583049
0.00467942
0.0015104
0.000462693
0.00525039
0.00241188
0.00136731
0.00373627
0.00434373
0.00686025
0.000383348
0.00210157
0.00303464
6.60287e-05
0.00582574
0.00199206
0.0058425
0.00173948
0.00213256
0.00205858
0.000523554
0.00590131
0.00422746
0.00156285
0.00341844
0.00328669
0.00466915
0.00546339
0.000127935
0.000213006
0.00583593
0.00583718
0.00548299
0.0080354
0.00582669
0.00268884
0.00532679
0.00159982
0.000262588
8.25428e-05
0.00249047
0.00156182
0.00218737
0.000275461
0.00471847
0.00287022
0.000204501
0.00151101
0.000399675
0.000160517
0.00228034
0.0051061
0.00285482
0.00584116
0.000998244
0.00478224
0.0062546
0.00223005
0.000934163
0.00354467
0.000312745
0.00485624
0.00584617
0.0034843
0.000275891
0.00585322
0.00340654
0.00363273
0.00589311
0.00583074
0.00120862
0.00321361
0.0034462
0.0058362
0.00140242
0.000214216
0.000170559
0.00237893
0.00349611
0.00587964
0.00586663
0.00583107
0.000152131
0.00583062
0.00125381
0.00116785
0.0018719
0.00375097
0.00452109
0.00584363
0.000330437
0.0058336
0.000712095
0.000226879
0.00179228
0.00032893
0.00120972
0.00229314
8.27172e-05
0.00203733
0.00583281
0.00397937
0.00546853
0.0036397
0.0026243
0.00583299
0.00582831
0.00582852
0.00254818
0.00734268
0.00405028
0.00334363
0.00193897
0.00372628
0.00544423
0.00583758
0.00583502
0.00705632
0.0058973
0.00481351
0.00183515
0.000304928
0.00583209
0.00583295
0.00583134
0.00732329
0.00102011
0.00134238
0.0069415
0.00620427
0.00515288
0.000253637
0.00442194
0.000358287
0.00107778
0.00583119
0.0091906
0.00380768
0.00150173
0.00584046
0.000286097
0.0067296
0.000288735
0.00672949
0.00777696
0.00583
0.00680975
0.00583765
0.0058394
0.0044762
0.00224491
0.000795419
0.000400577
0.000593535
0.00376514
0.0024879
0.00515068
0.00357886
0.00583587
8.62452e-05
0.0048647
0.00563451
0.00583304
0.00514567
0.000214533
0.00299972
0.00583841
0.00449126
0.00537192
0.00148478
0.00374925
9.63255e-05
0.00317868
0.00583117
0.00571892
0.000436407
0.00101356
0.00583528
0.00123104
9.01472e-05
0.00111352
0.00721169
0.00583089
0.00384361
0.00583239
0.000401896
0.0011506
0.00305782
0.00619249
0.000225005
0.00583196
0.00231858
0.00452572
0.00767631
0.00582971
0.00589077
0.00669362
0.00471693
0.000536295
0.00128821
0.000328571
8.78116e-05
0.00583087
0.00583148
0.00051049
0.000777806
0.00583877
0.00540412
0.00752515
0.000485566
0.000601753
0.000503828
0.00125461
0.00168009
0.00760488
0.00791997
0.00583264
0.00122543
0.00587963
0.00497212
0.00781239
0.00586043
0.00582965
0.00127461
0.00363765
0.000378858
0.000516004
0.00352062
0.00732203
0.00123174
0.00522423
0.000968071
0.000688106
0.00582821
0.00583493
0.00550808
0.00213947
7.73129e-05
0.00589086
0.00584069
0.00488808
0.00185853
0.00887192
0.00221754
0.00598814
0.00652919
8.67368e-05
0.00582831
0.00278442
0.0058368
0.000196993
3.91051e-05
7.65488e-05
0.000326299
0.000368989
0.00323286
3.26114e-05
0.00025823
0.00396291
0.000307279
0.00582834
0.00585588
0.00582918
0.000567655
0.00167565
0.000850678
0.000326918
0.0058298
0.00521091
0.00584002
0.000218864
0.00584274
0.000277166
0.00583382
0.000396645
0.00654779
0.0064068
0.00569035
0.000528902
0.00289979
0.00180943
0.00125933
0.00244142
0.000817276
0.000619208
0.00310946
0.00583041
0.000717637
0.00584865
0.00582837
0.000760045
0.00585405
0.000234076
0.00650718
0.00247701
0.000362068
0.000404266
0.00583587
0.00348711
0.000730912
0.00311977
0.00300083
0.0058291
0.000418921
0.00329092
0.00204347
0.0058512
0.0058324
0.00285857
0.00016231
0.000209857
0.000208709
0.00585297
0.00684365
0.00748234
0.00622294
0.00368564
0.00582931
0.00589631
0.0058337
0.00584382
0.00697544
0.00790808
0.000824548
0.00336779
0.000702356
0.00430147
0.0058335
0.00611147
0.00120491
0.00584137
0.00138645
0.000959092
0.000102282
0.000466531
0.00187313
0.000138418
0.00541766
0.00603039
0.00500652
0.000422862
0.00822722
0.000208505
0.000441046
0.00160549
0.000109169
0.00752015
0.00354081
0.00060324
0.00436143
0.00211985
0.00015185
0.00583886
0.000652217
0.00684913
0.00583175
0.000505489
0.00209234
0.00233835
0.0016308
0.0036075
0.00667024
0.00502919
0.00585254
0.00724421
0.00320569
0.000304294
0.00583615
0.00583378
0.00122023
0.00312894
0.00223648
0.00584506
0.000384152
0.000722199
0.00537892
0.00759801
0.00583126
0.00583121
0.00582889
0.0059024
0.000988931
0.00212756
0.00148178
0.00758857
0.000858017
0.00583711
0.00287062
0.00772513
0.00390359
0.0021714
3.30871e-05
0.00323796