/*--------------------------------*- C++ -*----------------------------------*\
| =========                 |                                                 |
| \\      /  F ield         | OpenFOAM: The Open Source CFD Toolbox           |
|  \\    /   O peration     | Version:  v2012                                 |
|   \\  /    A nd           | Website:  www.openfoam.com                      |
|    \\/     M anipulation  |                                                 |
\*---------------------------------------------------------------------------*/
FoamFile
{
    version     2.0;
    format      ascii;
    class       volScalarField;
    location    "300";
    object      omega_0;
}
// * * * * * * * * * * * * * * * * * * * * * * * * * * * * * * * * * * * * * //

dimensions      [0 0 -1 0 0 0 0];


internalField   nonuniform List<scalar> 
14804
(
3.47292
0.0251123
0.0970098
0.0322821
0.0378792
0.0639973
0.0262614
0.0253978
0.111718
0.0255686
0.384504
0.102552
0.0255566
0.0385043
0.180353
7.22265
0.0389237
0.0310799
20.4474
0.0506016
0.0256905
0.028022
0.0407115
0.025774
12.2221
0.0257787
0.0382886
0.0376555
3.53847
0.0257466
0.0248658
0.0382447
0.0507032
0.0448582
0.102893
0.0262813
1.37824
0.0256333
10.7824
0.0509062
0.0969988
0.0985558
0.161607
0.0252472
0.0378727
0.0264734
3.07402
0.0255348
0.0283443
0.490314
0.0255876
0.0248437
0.0253906
0.0273716
0.597119
2.78712
0.361642
3.49562
0.0254912
0.0265293
5.62007
0.0256399
0.0252363
3.04517
0.025239
0.0254135
0.0256801
0.0260732
0.0254201
4.62163
0.0248919
0.0369327
0.425797
4.959
0.0255341
4.69734
6.12665
0.025106
0.052612
0.0247017
5.69628
0.0254123
0.024731
0.0255425
0.0256505
0.152972
0.0249566
0.0262506
0.0250428
0.037588
0.0376656
0.0275057
0.0871222
0.0248378
0.503453
6.26928
3.52084
0.0369354
0.0257078
0.481078
3.48561
4.93743
0.0256612
0.0414809
0.208758
4.84885
0.102028
0.429356
0.0254203
0.0248796
0.0253295
3.27779
0.0880024
8.05244
3.24427
5.76662
0.244682
0.0388032
0.025646
0.0313694
5.93917
0.0250457
0.0270294
0.0446398
0.0254996
0.0256521
0.233181
0.040177
0.0432912
0.0368833
0.0367897
0.171525
4.11594
0.412901
2.24562
0.0439439
0.0252538
2.45679
0.0255772
0.0452362
0.0252267
8.61249
0.025088
7.6156
6.23184
0.0254353
0.195876
0.0254241
0.30835
18.8247
0.11188
25.3277
0.051901
0.0417857
0.0247229
3.47032
0.0361788
0.518692
6.93525
0.385727
0.0251987
0.0252989
4.16566
23.9082
0.0281737
3.44498
0.0255761
5.30325
0.0256916
0.025398
0.564215
0.0285146
0.122716
0.165866
1.59999
0.411404
0.0406589
0.0483566
0.0248457
0.395248
0.0639869
6.26165
0.0260616
0.0323486
0.0273083
4.34521
0.0657517
0.062124
0.0297069
0.0247962
0.155831
3.8908
0.02534
2.6222
0.556733
0.0251968
4.97317
0.02552
0.0731361
6.78682
7.03991
0.024791
0.0268213
0.110859
0.0262516
7.05477
0.0353717
0.875514
0.040176
0.0263322
0.0256987
5.2762
0.0261591
0.0251982
0.0260599
0.025636
0.0405484
0.0251675
0.0253509
0.025236
0.0321673
0.0927844
0.0731704
0.0282319
0.025023
0.668167
0.0497404
2.26145
4.18643
0.0276762
0.0248507
0.0266175
0.0253481
4.50775
4.855
0.0256605
0.0264069
0.195805
0.139308
0.0292046
7.17571
0.443903
0.0257082
0.0252433
0.0249168
0.163036
0.0314358
0.0281314
0.0409357
0.0249038
14.7069
0.025198
0.0252424
0.0251121
3.8714
0.026145
0.0248083
0.0273393
0.0248777
0.0254494
3.57636
0.0297021
0.0433588
0.0254709
0.98514
0.0255025
0.0347555
0.0249029
6.42908
6.53627
5.95033
8.46202
0.0256649
0.0254934
10.1712
0.198563
0.0263382
6.96241
0.0891663
4.77911
0.195414
0.0251496
4.25313
5.39666
5.51059
1.05373
0.0915136
0.026315
0.0333035
0.318305
0.0251657
0.0254247
0.0279136
0.0255845
0.0610034
1.06509
0.182288
0.0436571
0.0251671
0.0335696
0.0249209
0.0251504
0.0351831
0.0503447
0.0512218
0.0259565
10.0673
4.98152
0.164829
8.55359
6.293
0.0255958
0.0302218
0.0290857
3.95804
0.026069
3.53425
0.24392
0.0246764
11.6394
0.184515
0.230615
1.76097
7.84063
0.0254286
0.0492353
0.239817
0.0255
1.82019
5.90685
0.0414327
0.0379098
0.0398664
0.0296365
0.0254553
0.0248473
0.0251617
7.37949
0.0260308
0.122867
0.0280664
0.0254705
0.0318212
0.0255906
0.0248447
3.57422
5.56343
4.52719
0.120656
5.85417
7.22695
0.0273339
0.0254017
0.0249021
0.0260238
0.191974
0.0255987
20.4332
0.0247237
0.0252366
0.0259535
0.141215
0.0878124
0.128819
7.01884
4.77719
0.0262086
0.0373313
0.0605686
0.0252248
0.0271399
0.0255485
0.046577
0.0257528
0.0251005
18.1908
0.0249131
0.0257238
4.10001
0.482913
1.66293
0.0316694
0.0672705
5.70441
0.031348
0.0252113
6.12367
0.0264693
0.025466
7.45451
0.0324819
0.0247054
0.0259542
0.027339
7.04277
0.0271807
0.314956
0.0371452
9.93297
0.0255584
0.153815
0.0252942
0.449578
18.7161
0.0391355
0.028564
0.279815
0.0255701
0.0494096
0.025663
0.0250449
0.035883
15.2258
0.0255654
0.0256134
0.746794
0.0254719
0.0317358
0.025785
3.50071
0.25495
0.0604379
0.0247277
6.29834
0.0284367
0.0386401
6.64652
0.0476866
0.0297545
0.0247958
0.0265924
0.0255541
0.779941
0.0254423
0.0263138
0.0253615
0.0249229
3.61977
0.0251679
0.025907
0.0482069
5.42095
0.025006
0.0255059
0.0249495
0.0294289
7.71963
6.47552
0.44934
0.027023
4.42849
0.0271013
0.0254201
0.0256608
0.0251091
0.0251925
0.0262358
7.57037
0.027469
0.0256514
4.38335
0.0249426
0.521665
0.28378
0.0385191
3.48426
0.0317314
5.0166
0.060917
0.0256818
0.0256513
0.0357389
0.0253226
0.0250175
7.2174
0.0320658
0.0255255
0.0357171
6.30861
5.92422
0.0437243
0.0308764
0.0289566
0.0931034
0.0254838
0.0309493
6.38378
0.0253413
0.0250053
0.04027
0.0311252
1.39743
0.0453654
0.0249187
0.038052
0.02565
0.0253644
7.24708
0.0443129
0.0251856
0.143441
0.0258961
0.02522
0.0528949
5.48104
0.0254302
0.0253045
0.0249536
0.0250031
5.56171
0.0254364
0.0256636
5.13669
0.0252666
0.0257734
7.35781
0.0254237
1.28621
0.0246486
0.22187
8.83186
0.927934
0.0254816
0.0254741
0.0362765
0.026435
0.0246627
0.026678
0.0249459
0.0372934
0.0248031
0.0389228
0.0384722
0.0255711
5.79184
0.0937377
8.06685
0.028324
0.0246433
0.130319
0.0253941
0.0301766
0.223426
0.0347356
0.20595
4.51961
0.0252939
9.6253
0.113221
0.0274169
0.0285813
7.36697
7.02013
0.0247027
0.0251425
0.0251642
0.238053
0.110725
6.45136
5.85952
0.0253107
0.0603614
0.157701
0.762039
0.0376399
0.028955
0.0307664
0.0249443
0.189105
6.70839
0.0376884
0.402793
0.0246756
0.025174
0.0249451
0.0371554
0.0250262
0.214805
0.0254619
18.3305
0.322681
0.0359347
0.0940252
0.0249456
0.0252096
4.45719
0.0261322
17.9652
0.0250887
0.024948
0.0251136
0.0256521
0.0546199
0.0318913
5.61307
5.7445
0.0254643
0.0254601
0.0304239
0.11764
0.0720228
0.0340853
0.02491
1.04788
0.0273398
6.10692
0.0248059
0.404431
7.04801
0.0250144
0.0252323
0.0549931
0.0256913
0.0246617
0.0453588
0.0256075
3.90565
0.0607453
0.687973
0.0251664
0.353997
21.2167
0.0554251
0.0256909
4.5016
0.0250753
0.389146
0.0253989
0.0255594
6.71875
0.114282
0.689638
0.0595095
0.0340035
0.0247257
5.13237
0.025181
8.60876
0.700721
0.030851
0.0250012
0.0252769
0.0365425
0.0315554
0.0256234
0.100089
0.0941115
0.0369679
0.0254323
6.57282
5.24971
0.576319
0.025255
0.052862
0.0247094
0.0254396
0.0437883
6.97325
0.0355928
4.56594
0.0486803
0.149939
0.199572
0.0253522
6.87274
6.41516
0.0251806
0.0321436
0.134483
0.031626
0.0369337
0.0284365
0.0352293
2.65201
0.0249798
0.0455879
0.0250786
0.0254913
3.55379
5.98014
0.0629909
0.0253566
0.0248307
0.0247174
0.02721
0.0441448
6.8199
0.0608139
0.262655
17.4879
0.0680575
0.0335333
5.37898
0.0253606
4.76785
0.0264194
0.0252202
0.0253227
0.0312208
0.0765616
0.0249515
0.0287188
0.0430529
0.130908
0.0331468
0.201121
0.0252962
0.192359
0.0542403
0.0433162
0.040282
0.0255354
0.0255207
8.59594
5.01575
0.0253813
0.113049
0.0253543
0.0248053
0.0254368
0.0274393
0.364919
0.0250103
0.0392103
0.024938
0.029081
0.0252745
0.045462
0.0261325
0.0250104
0.0254166
0.0588781
0.0451493
4.32922
1.37907
0.0251913
0.0252967
0.0252426
3.2664
0.0320796
0.0636887
5.6847
0.0358413
0.0299544
3.42203
0.0251164
0.025192
0.0252959
0.0249171
0.124701
0.0251882
0.0248171
0.474452
0.128622
0.0306595
0.0248535
3.4994
8.27099
0.0543503
0.0296253
0.0319731
1.63617
0.0663892
3.54462
0.506998
0.120158
5.77146
0.0273288
0.0366719
0.705049
0.025125
0.572802
0.0258966
0.0256368
6.60222
0.0355612
0.104563
3.64781
0.138666
0.0251712
3.24431
0.0251044
0.0265682
0.0276149
0.0265657
0.0256253
6.31573
6.79907
0.0384092
0.179837
0.0289571
6.77934
4.05688
0.0380419
5.71485
0.0258971
0.0251005
0.024882
0.0254643
0.0253297
15.3698
0.0324812
5.81805
0.246983
0.0253482
0.0595654
0.0378927
0.0249054
0.0254509
5.84745
16.6386
0.0256505
0.0638532
0.0256182
0.0252592
0.0461376
0.0273329
5.34124
0.177722
2.13694
3.13901
0.0327715
0.206768
0.0254771
20.3927
0.121268
0.0249114
0.0302233
16.6628
0.0252555
0.0582796
0.0248174
17.2067
0.0582439
0.0257613
0.0255987
0.0248347
0.0249466
0.0292938
20.7703
0.0250628
0.0249372
0.0306643
0.0257414
5.68376
0.0730214
0.0253615
0.0248211
0.0253434
0.0436137
0.0253788
0.0252246
0.183358
1.76425
0.02533
0.0247124
0.0483799
6.42612
0.0253807
0.0249587
0.0250178
0.130557
0.0248137
6.34571
0.0457176
0.0529367
1.09205
5.07608
0.024924
0.766877
0.0245643
3.25405
0.0370015
0.0295362
0.025435
0.0253195
6.92217
0.0255153
4.33342
0.0252658
0.0726672
7.4206
7.98764
0.169605
0.0255503
4.7034
0.0256897
0.0250629
0.0305234
1.35085
0.0256322
0.238011
0.0657951
0.0257115
0.0322414
0.0256628
0.0257188
0.0253384
0.0253276
0.0252309
0.145279
0.0254655
0.048377
0.0262578
20.5842
0.0256904
1.5848
0.0247767
0.0472616
0.0344815
0.141245
0.0439694
0.0668121
0.0315455
0.0287001
0.0256782
0.0312536
0.149795
0.0309103
0.0249917
0.0247979
7.51725
0.0845077
0.0459802
0.024963
0.0251224
0.152364
0.0954652
3.29814
4.78474
0.137733
0.0575333
6.49648
0.0247107
0.0255913
19.7046
0.0367929
0.771787
0.0726489
0.0254505
0.0248815
0.104024
0.0248825
3.24724
0.026984
0.0660332
0.0248638
0.187356
0.0255489
4.11505
0.0249044
0.024995
0.0959597
0.164131
0.20695
5.4302
0.0754627
4.25646
0.0316155
0.0729505
4.73039
0.0373371
0.540211
0.0257253
0.0248069
0.104397
6.47372
0.0687599
0.0270176
0.0251132
0.0678239
0.0255251
5.06594
6.89079
0.0252224
0.0255756
0.0252481
0.0333936
2.24033
0.0256323
5.78434
0.906739
4.17954
0.03832
0.0254302
0.0255176
2.00501
0.0251179
4.02784
0.0282461
0.038796
0.0253324
0.0253872
0.0687113
0.0551161
1.90343
0.295229
0.0506486
0.0247151
0.0255655
0.0255714
4.00777
0.0922311
5.88964
0.0255076
4.79884
0.173788
0.0731187
0.0259496
0.025606
0.0252984
0.0253592
6.1018
0.0459012
0.0247946
0.118213
0.650736
0.0311285
0.0459051
0.0357501
0.0252259
0.556846
0.0254263
0.0389606
0.0253872
0.0535609
0.0487606
0.0252487
7.17082
0.0263507
7.61341
0.0249522
0.0254327
0.0248133
3.44167
5.5322
0.0334046
0.214312
0.120142
0.0257148
0.0263991
0.0253884
8.14589
6.23913
0.146181
0.35063
0.0254686
0.0264462
20.4832
0.0268775
0.0352669
2.37086
0.0286809
0.0282371
5.99845
0.116243
8.02215
0.0265872
0.091363
0.0260215
0.787217
3.86811
0.0253828
0.0266927
4.19186
0.163087
0.05782
0.0253345
3.37794
5.06776
0.0254237
0.0735918
0.0247064
0.0253275
7.27717
0.0253373
0.0449159
0.0363176
0.211378
0.0254067
0.0254475
0.0248013
0.0462692
0.0279521
15.8023
6.85998
0.0884649
2.2341
0.0248918
0.0250748
0.0253683
0.0253926
0.0486091
0.0315156
7.66387
0.0371838
0.0261079
0.0619727
0.0247192
0.024957
0.0249188
0.537324
4.77117
3.98298
0.025218
0.039415
3.91889
0.0253806
0.0251702
0.0259462
8.07351
3.18247
0.0256644
0.104825
0.0472122
0.0299836
0.0274464
0.0253756
0.125411
0.112822
0.0390518
0.447386
4.68119
0.0254434
0.0256544
0.0382045
0.0252956
0.0700278
0.0264367
0.0983382
0.0254037
5.71232
5.60006
0.0257713
0.0253623
0.0268719
0.0247377
0.148886
0.025064
0.0255316
0.0249335
0.160869
0.0253713
0.210155
0.0256798
0.025556
3.09524
0.0368123
0.0253551
0.192354
8.58097
0.928497
0.0252823
6.19836
0.0252657
0.0249882
0.0255871
0.0354925
0.0274362
0.0494493
0.0545024
0.0326458
0.0254112
0.0247839
4.89333
0.106751
5.11784
0.850596
0.0250373
6.04682
0.0772742
0.0266108
0.0250973
0.119856
7.7981
0.024956
1.87126
10.0976
10.0772
0.0451341
0.0253917
0.0365618
0.027758
0.025431
0.0250486
0.0899058
0.0255449
0.025059
0.0256622
8.12666
6.78378
3.38243
13.5969
0.0359814
0.0249328
5.18797
0.448908
0.121404
0.0248435
0.0249823
0.0253558
0.0323642
0.0285681
0.0936825
0.024951
0.0368618
7.09405
0.0310425
0.031064
0.151237
0.0557746
0.0256621
6.71497
0.0248183
5.03385
0.025349
4.41499
7.12938
0.163366
0.0544046
0.0250237
0.0248117
0.0254116
0.0252631
0.0248562
3.22827
7.12259
0.0254001
0.0970379
0.124108
0.027582
0.0253982
1.73893
0.0287519
21.659
7.18016
5.60799
0.0765965
0.025455
0.0249925
6.31191
0.0247099
0.025296
0.0302384
0.203914
0.0294982
0.0254627
0.188249
0.181853
0.277932
3.70055
6.4719
0.0249391
0.0249795
0.191525
0.0248914
0.025379
0.0250469
0.323193
0.195878
0.0253059
0.0311134
6.242
0.0254147
0.0535401
0.268316
0.0254409
0.0254211
0.0691261
0.0356751
0.0434299
4.04262
0.139356
0.025651
0.0253755
0.0245961
3.8043
0.0249857
5.98579
0.0252928
1.86482
0.0256359
0.0254291
0.0296325
0.026395
0.341703
3.72031
0.389678
0.0506616
0.0252996
0.0465575
0.0254365
0.0638282
1.52267
0.0247632
0.0618938
0.0253435
0.0248683
0.0253112
4.13401
0.103189
0.0255552
0.0265794
0.0955282
0.0257128
0.190191
2.83986
5.1481
6.86306
0.0260357
0.0916506
0.0253122
5.95675
0.0282731
0.0253568
3.71202
0.0290317
2.76025
0.0255136
0.141397
0.0446568
0.0256818
7.3653
6.32384
0.041783
6.04651
7.80067
4.30699
0.0309115
3.39894
0.0254685
0.0254086
0.135491
5.4454
0.0428143
0.0254915
0.0248094
0.0254313
0.0255737
0.0254701
5.72726
3.97103
0.0253114
0.352199
0.0311402
0.0334783
5.19523
4.36266
0.024889
0.0251313
0.0498503
4.53238
0.025373
6.74988
0.0249532
0.0249023
0.0296518
0.0248186
0.675841
0.0247177
5.37591
6.17532
0.027693
0.0610253
0.0272536
0.0700617
0.0253721
0.0287616
4.05064
0.664611
0.02538
0.142745
0.028663
5.89695
0.262881
0.0248569
0.0262929
6.96351
5.11459
0.651548
0.0251235
0.0283748
0.966462
7.47648
0.0296242
0.0357008
0.392205
0.03859
0.0273327
5.91727
0.10694
0.560274
0.644022
0.0256929
0.0262561
0.0248874
3.96025
0.025955
0.0258668
7.18128
0.0256831
0.0255571
0.0255266
0.122438
0.0254599
5.394
0.025456
0.067913
0.0298122
0.105449
0.0311171
0.0466187
0.0276807
0.184128
4.58037
5.89781
0.0252839
6.29137
0.0299388
0.152985
0.0299416
0.0344479
0.0256615
0.0298845
0.0251312
4.1851
0.368057
0.0259139
0.0252173
0.0255242
0.0447609
0.0247155
0.0313663
2.58276
0.0259212
0.0351716
5.89837
3.41829
0.0292148
0.510262
0.0256265
0.0248012
0.0255386
0.0465024
0.0253539
0.0252573
0.0250086
0.0254959
0.0248985
3.18081
0.029015
5.12241
5.91891
0.0256798
0.130638
0.0253045
0.0312891
6.2574
1.555
5.04941
0.0252535
0.0337967
0.024701
0.024751
7.93797
0.043361
0.51489
0.0247729
0.0249618
0.0253707
0.0268379
0.692903
0.137569
0.0249918
0.0256905
0.0253504
5.21311
0.13911
0.0252861
2.76963
2.47891
6.09867
0.0333774
0.0863208
0.11281
0.0249067
0.024828
0.0254557
0.0249469
5.12696
10.0612
0.130395
0.03175
0.197832
1.78174
0.0296392
0.0254286
0.0253802
0.428019
0.0309203
0.0427502
0.0315692
0.025277
0.0397266
0.0316456
0.0271262
0.0262348
6.56584
5.33218
0.0249676
0.0581718
0.0262998
0.024952
0.0257126
4.64533
0.0253451
0.183534
0.0354642
0.02627
0.0253907
0.0253725
2.58312
0.0257181
0.0608034
7.01292
5.716
0.0250153
0.0809001
0.0265706
0.0255774
0.0249397
0.0285247
0.0254209
0.061384
0.0251453
7.16763
0.0299141
0.0253518
0.0263489
0.0539983
0.0307454
0.0310751
0.0315314
0.0303413
0.0248168
0.0247332
0.049535
0.0249338
1.30711
0.025652
0.0907935
5.23884
5.26894
0.0251191
0.227153
0.0563382
5.83091
5.88344
0.788546
3.71347
0.0247795
6.34255
0.0262046
0.0274898
0.215156
5.23045
0.0452714
3.75234
0.0251267
0.02863
0.246569
0.182868
5.90523
0.652419
0.0748694
0.0286557
6.92223
0.029029
0.451686
0.0255153
0.0606709
0.262263
0.0264684
0.0753631
0.0247371
0.0254724
0.0863648
0.0253594
4.83763
0.031021
0.0253723
0.281389
4.0718
0.0247257
5.76835
0.0288997
0.0248332
4.94778
5.48756
0.0262328
0.0252114
0.0255014
0.115249
0.0285464
5.66233
4.18423
0.200124
6.63603
0.0255451
0.0633224
0.0255722
3.81431
0.0253492
0.294617
5.1795
0.15676
4.37404
0.0252784
0.0250912
0.0245919
0.025331
0.0256615
0.0317647
6.7948
0.0272632
0.0523778
1.62792
4.44444
8.81827
3.91558
0.025012
0.0252126
0.0371103
0.0262239
3.65284
0.0432579
0.024977
6.06633
4.28342
0.0257597
0.0253188
0.025019
3.47866
0.0314206
0.025222
0.0251827
0.0254149
0.0253808
0.0253134
0.0248183
0.174665
0.0247356
0.639156
0.0938362
0.0276972
0.0317699
0.0275669
0.0254336
0.0610629
0.0256623
0.0256798
0.0533666
0.587265
0.0251093
0.0571519
0.0263994
0.0515761
7.12814
0.0248221
0.0412056
0.0253374
8.6471
0.0262926
6.48706
1.97332
16.2311
7.83064
0.475024
0.138855
1.52874
6.64402
0.0261398
7.18051
0.0253031
0.21427
5.76424
0.0667846
0.0249993
0.0253462
0.0248112
7.92231
0.161109
0.0247968
0.0246851
0.0252464
0.107093
0.192476
0.0255839
0.0586003
5.9434
0.0248987
0.124829
0.0249635
0.0251721
0.0251473
0.0305865
8.28321
0.254038
0.284232
0.182005
8.11073
0.123823
2.94554
17.0726
0.548385
6.86808
0.0250086
0.092381
0.0255094
0.0255415
0.0255168
0.0358828
0.0253506
0.0265918
18.2396
0.0264712
0.0274856
0.0275892
0.0326856
0.0250771
0.172468
0.0256557
0.025499
0.125406
0.0432228
7.28126
0.0448974
0.0271287
0.0484013
8.42117
5.98628
0.0253487
0.170387
0.0265069
0.0583125
0.025475
0.0253945
0.0270415
6.11812
0.0379994
9.69468
0.0323765
6.16213
11.7138
6.20657
3.23574
0.0253019
0.0248775
7.19937
0.0522903
0.0696241
3.95033
0.0254967
0.0248759
0.0257147
0.0267409
0.092473
6.67359
0.0886342
0.0248353
0.0249643
0.0253928
0.0610103
0.616645
0.0253003
0.0360603
0.0565917
0.025378
0.0485312
0.209006
4.66781
18.3873
0.0252732
0.0492255
5.46798
0.0600949
0.0324041
0.0764382
5.64537
0.0253425
0.0247201
0.0248541
0.0250424
0.0263427
6.94182
0.0247108
0.0253819
0.0458037
0.0301554
3.61674
0.0269568
0.0293694
0.0345594
0.0476542
0.0252864
5.71684
0.0253423
0.0256618
0.115618
0.0378956
0.0251513
0.0257018
0.0432298
5.44752
0.0320593
0.0275259
0.124721
0.0563313
0.0283617
4.64892
4.31868
0.0301657
0.0260937
0.0260447
5.8384
0.342646
0.0341296
0.0559935
0.0248076
0.0730242
0.025163
0.0312221
5.88001
0.0316399
0.0511244
0.0280986
1.04299
0.0579681
0.0255257
0.12767
0.106851
0.0254335
0.0629518
0.0255047
0.0446653
14.6278
5.49293
2.09065
0.0694135
0.413599
0.350346
0.065296
0.0253237
0.025367
0.0313733
0.0445428
6.22188
0.0340179
0.0255724
0.0252321
7.01388
0.0768683
6.83489
0.0262228
0.0249577
6.66417
7.04247
0.0252776
0.0253949
0.0248052
0.0357578
0.0615487
0.0259439
0.0297551
0.0357701
0.0333118
3.80039
0.0251448
0.0302977
5.82555
0.0248238
0.0619121
0.0246891
0.0295066
7.31311
0.029774
0.0390907
0.0249952
0.0250587
0.10579
0.0255354
0.0252392
0.0254451
0.0367098
0.116188
0.0297296
0.0531245
0.0253804
0.0250993
0.0362471
4.66265
5.5702
0.0294492
3.96336
0.0297582
0.0285664
0.0272966
5.40709
0.0281428
0.0255521
0.0254098
0.237738
0.035063
0.0825776
0.025754
0.0254277
6.99393
0.0262702
0.0254865
4.75258
0.0314174
0.0252817
0.0248299
0.037101
5.99191
3.35161
0.0250298
0.0348366
0.0271957
0.0251658
0.0249392
0.0354234
0.0345127
0.0854325
0.0247337
0.0379664
0.0393016
3.32809
0.0303979
7.29837
0.199627
0.0263439
3.71703
0.56385
0.529671
0.0369915
0.0365358
0.025494
0.0252871
0.0308753
4.49313
0.977577
0.025489
7.13806
0.0254951
0.0369199
0.0675575
0.0309034
0.0252902
0.441287
13.4994
0.0246147
0.0253629
0.0373386
0.0252536
0.0332804
0.0777896
2.13747
0.0356222
0.0256792
0.0247884
0.0616983
0.0389558
0.131521
0.0280949
0.173232
0.0361329
0.129953
0.0561847
0.323649
0.152579
0.0691982
0.164955
3.1929
0.0291078
1.26377
0.0288616
0.114405
0.0253469
0.0248898
0.0410397
0.0252453
0.0572783
0.473394
0.0434199
0.0293908
6.35212
0.0368848
0.0328853
4.75091
0.0250911
0.76568
0.104071
0.0256804
5.60716
0.198407
0.109875
0.0579733
3.65426
0.0400852
0.0256356
0.0570449
0.0381561
7.52377
0.0569074
0.0376575
0.0361728
0.0298548
0.0706726
0.0625672
0.543015
2.11453
0.027225
0.0249461
0.0257894
6.09395
0.0341951
0.0277098
0.0291
7.24731
0.0346143
0.0254312
0.0356193
0.0249137
0.0253778
0.0289354
0.152482
0.0253719
4.89611
0.0256514
0.0251501
0.0577945
0.0329314
3.26116
0.0253018
0.0264317
6.68816
0.0350201
0.0253734
5.01988
3.1308
0.0296036
0.216664
0.0294669
0.0353822
6.33755
0.0341871
14.2799
0.43458
0.0475802
0.0369856
0.0374519
0.0249664
0.0253122
0.0248982
0.0380234
0.372398
5.57117
0.0363987
0.0579896
0.0252542
0.024958
0.0270044
5.78618
0.0288741
0.0354122
0.0289325
0.025404
6.63659
0.0254895
0.024735
0.252982
0.0256454
0.0252634
0.0251165
0.0254427
0.0271247
3.29583
0.104961
0.0254576
0.0247083
0.0452707
0.0268931
0.0273651
4.53137
1.59541
5.58571
0.0252841
0.0580491
5.835
9.55054
0.289609
10.2813
0.0281996
0.0253813
3.39381
0.0354964
4.45764
0.0263205
0.0252491
0.0263159
0.0275755
4.17617
3.26708
0.0275792
0.0357252
0.238155
0.0256078
13.5897
7.35086
0.0261632
0.0577562
9.65057
0.0252322
0.18629
5.13692
0.02561
0.0252423
5.39461
0.0251645
0.0254362
0.0293681
7.0614
4.39213
0.0250161
0.0348034
0.0261461
4.27329
0.206911
0.0254419
0.0249103
4.09946
6.29044
5.25457
0.0248075
0.0249827
0.025284
0.0574427
0.03678
0.0298713
0.024936
0.0290415
5.68973
0.054832
0.0249912
5.80443
0.0355619
0.0248691
0.0277035
0.0343656
0.0253737
0.112996
0.042266
5.09548
0.0569747
0.0360331
3.77565
0.0415104
0.13071
3.35663
0.0468477
5.52878
0.0345414
5.42512
4.91185
3.57062
0.0353706
10.4376
0.17366
0.0249826
0.0305193
0.085857
0.0724261
0.0395966
6.71483
0.0278144
0.0250083
0.0349404
0.0248335
0.0252948
0.0293984
0.0925941
0.115017
0.0351684
18.6713
0.0252478
0.027063
0.0250927
0.0253582
0.0605201
0.0264429
0.0276995
0.0254339
0.0253716
0.841588
0.025148
0.0255115
0.060314
0.0268308
4.51283
0.0653102
0.549198
0.0348938
0.0269819
0.0259277
0.109555
0.025272
14.0699
3.3307
0.0261598
0.0253921
5.15802
0.155186
0.170238
4.82591
0.0247213
0.0251683
0.02911
1.22585
0.0269271
0.0254558
0.0416936
0.0358164
3.59004
5.79218
1.57759
0.0889089
0.0255256
9.72066
0.0260108
0.0292075
0.0252784
0.029256
0.0874886
0.0540744
0.484244
0.024957
0.0293138
0.0292521
0.0252671
5.9045
0.0351522
0.0286886
3.02766
0.619605
0.0253004
0.0249901
0.0285367
5.67511
0.0247587
0.0532938
0.0296686
0.0262242
0.0659652
0.0809553
0.0266976
18.6445
0.0255993
0.150032
0.0346762
0.0622707
0.063012
0.0270521
0.910385
0.0625038
0.0255023
0.0313835
0.052487
0.0250064
0.0427702
0.0340573
4.32404
0.0256414
8.39273
0.0252596
0.0405587
0.0333509
0.0250856
6.33507
0.115803
0.0249142
0.051372
0.0253662
0.0252962
0.0252092
0.0269433
0.0293698
0.0506623
0.0256794
0.0285443
0.113165
0.0570112
0.0607897
0.049773
0.0248822
0.0256469
0.0250782
0.0688398
0.0251443
0.0281474
0.171823
0.10192
0.0252968
0.0253738
0.0252742
0.114432
0.0255354
0.0283544
0.179842
0.0307234
22.705
0.164429
0.0256689
0.136201
15.2894
0.0254875
0.0253091
6.33605
0.0472818
0.0434628
0.0254914
0.0249495
0.0246291
0.0263656
4.52676
6.58103
0.0252754
0.0980257
0.0458844
0.0287786
0.0250325
0.0256193
4.02566
0.0252871
0.025135
6.4863
2.80985
0.0248726
0.0248179
0.0253809
4.36062
0.0268631
0.0260067
4.0981
3.98326
0.025157
0.039066
0.0253325
0.151099
0.191038
0.0253958
6.7184
0.0281347
0.0752386
0.0251631
1.30283
4.56871
0.091849
3.83646
5.66387
0.0247113
3.65295
0.0253576
0.0252115
3.89582
0.0256622
0.13305
0.0351312
6.40481
0.0253004
2.76043
6.48664
0.0252294
0.0256644
0.269784
3.71137
0.0274549
0.0255046
0.0310629
0.1362
0.0318694
0.025176
6.08925
0.0258081
0.0307865
0.0262465
0.11053
8.18044
0.0251549
5.29329
0.0899905
0.207032
0.0256307
0.0265778
0.132804
0.183052
7.96859
0.0252054
0.0253156
0.025005
1.12226
0.17443
7.56226
9.07218
0.147247
0.0250072
0.0254763
0.0252053
5.76873
0.0252701
4.33937
7.47001
0.0253798
0.125869
0.0458924
0.0496269
0.206872
0.0253716
0.0250731
0.451914
1.61691
0.0250323
0.0257124
5.39067
0.421683
0.0305691
0.499658
0.0261461
0.0258682
6.15484
7.49289
0.0254825
0.0273257
0.0248194
4.61503
7.74166
0.0249606
0.0252469
0.0260875
0.0253138
0.0358832
0.0306183
0.0253227
5.23184
0.160194
0.0304519
0.0278552
6.03342
0.0250732
0.0255195
0.0252835
11.8666
0.409182
0.0253311
0.0252776
4.30528
0.030654
5.54554
0.0255449
5.66093
6.77726
0.0929383
0.02508
0.0254761
0.0252329
0.0446753
0.982883
0.296984
0.821376
0.0398577
0.0253914
1.00957
17.8985
4.38876
0.0380483
0.0251928
0.0249833
0.0246264
0.194335
2.50513
0.0273601
0.0373938
0.0252471
0.0253784
0.0251763
0.0827807
0.0252843
0.133952
0.024982
0.0852253
5.29429
6.39144
3.09298
0.200655
0.0253225
0.0304363
0.0865038
0.0438145
0.0278849
0.0309466
0.0253281
0.0253341
0.0290511
0.025089
0.025201
0.0688915
0.0248355
0.0413321
3.34711
0.0254611
0.0337748
0.150271
0.0256624
13.1438
0.0450749
0.0301428
0.0253355
0.0246652
0.840466
0.0252834
0.0276303
0.0249085
0.0253945
0.0254465
0.557387
2.03826
0.0679176
0.0247042
5.82009
4.11616
5.81074
0.02707
0.0247255
0.0249499
0.0247758
0.0249426
4.90947
4.75452
0.114331
6.66298
0.0282917
0.0386615
0.0255392
5.60251
0.0268118
0.0246811
0.0260299
0.0427505
2.66049
0.549577
0.0256863
1.61663
0.0290046
5.40676
3.23105
5.75699
5.80235
0.101607
0.69108
12.8305
0.375986
4.67246
13.8812
0.0335543
0.0379965
0.0883447
0.697799
0.0251625
0.0355595
6.7055
0.0254159
0.568647
0.0261169
0.026052
0.0307501
0.0252484
5.19938
9.8127
0.0248246
4.47025
0.0253131
0.848984
0.0256777
0.025551
0.161938
6.86254
16.8398
0.0251055
0.151085
0.0368631
0.0269554
4.99865
0.024887
0.0249173
0.0251224
0.0251958
4.22354
15.1607
0.102951
5.28893
0.0376721
0.0250252
0.0271245
7.35282
0.0272956
0.0257831
1.05349
0.0253094
0.036863
0.296617
0.093176
4.41067
0.0255087
0.0329381
0.736968
0.0259648
0.156041
0.0260843
0.0360913
0.0252822
0.0346353
0.129494
7.91804
17.3013
0.025112
5.76896
4.19889
0.0719863
0.182672
0.191318
7.65835
6.24341
0.0294562
6.7116
0.0262747
5.60224
0.0258387
0.0445323
0.0326688
1.50271
0.0247882
0.0251135
0.0262062
0.130431
7.78881
0.0266304
0.0368306
0.376939
1.93098
0.0780751
6.76166
0.0364008
1.11243
0.0255725
0.0248112
0.0251533
0.0957099
0.461196
0.0372225
0.0296691
0.0460212
0.0253575
0.119012
5.58956
5.07787
9.16957
0.518319
0.0253305
1.96893
0.0249147
0.025162
0.864316
7.2596
6.04644
7.05144
7.17445
5.8842
1.19647
0.0253185
0.0249438
0.373522
4.20704
3.41892
0.061938
0.0552301
5.1854
5.20401
4.23371
5.74188
0.0254145
0.0308268
0.0289914
0.031185
0.0253023
0.036745
0.0255059
0.025361
0.0307702
0.0253292
0.0262252
0.0809489
0.0286329
0.0334004
0.0522309
0.0351845
0.0350602
3.83195
0.0251697
6.42522
0.0256525
0.036009
3.92993
13.2019
0.35577
0.0304037
0.0252757
4.82667
2.57227
5.61427
9.11638
0.02538
0.569648
7.831
0.0371183
0.0255337
0.0290677
0.242674
8.40976
0.0944813
6.88783
0.0254783
3.46708
0.0466615
5.76181
0.311706
0.0262665
4.16979
4.08476
0.0249885
13.3717
0.378425
0.029972
0.0871402
5.3663
8.46305
0.200808
5.68671
0.950081
0.0791062
0.0364856
0.0259576
0.0302986
6.00362
1.79895
4.67263
2.06513
0.148715
0.0256645
0.364102
0.322932
0.0779566
0.0252133
0.0253829
0.026007
4.61424
4.47411
5.94861
0.277427
0.0253127
0.031072
0.0286674
0.472431
0.0993864
0.0284731
0.0256801
2.06903
0.025357
13.5723
0.064036
3.82436
5.20224
5.6806
0.0256516
0.214483
0.0253255
1.73852
0.0250766
0.939325
4.64638
0.0339582
0.0253222
0.0478667
7.58138
0.446367
0.944845
3.66223
0.0254684
0.0253032
0.0810218
11.6604
0.0248241
0.426312
0.0247337
0.0304815
6.82974
0.236923
0.0477369
3.34443
0.269145
9.7267
0.0253182
0.0414504
0.0365975
8.81756
4.86628
0.0255187
5.00965
0.0398489
0.0256363
3.2608
0.0249156
1.74032
0.0252155
5.08617
0.031153
5.63921
0.0499204
0.0265552
0.167517
8.65494
0.176701
4.99258
5.92149
0.0349978
0.12248
0.0247009
0.0264281
0.0254465
0.0249345
0.0288049
0.0250741
0.0255492
4.65364
0.456141
0.183989
8.68237
5.14449
0.280166
0.0386083
6.43254
0.0312071
4.50474
5.92487
3.61955
0.0280353
0.0256503
0.0841403
4.73378
0.187442
0.0251276
7.45797
0.0560969
0.840137
0.0450258
5.68398
0.0287225
0.0263149
0.0340527
0.0324936
0.169982
0.0253608
0.708092
0.0385474
0.188654
0.0255493
0.0364269
4.95082
7.3559
0.029172
0.0374533
0.0254763
0.0271589
0.337472
5.77296
14.3836
0.0447758
3.20352
0.0365827
0.025103
0.0261602
0.50011
7.19291
0.0262402
0.0250983
0.101339
1.30336
0.05932
6.51403
0.0253503
8.26739
10.087
0.256059
8.03771
0.025433
0.0250818
0.131759
0.0383874
4.06766
0.0310957
0.142237
0.0514669
0.0334328
0.230365
0.189024
0.0249173
0.0254789
0.0377131
0.809584
5.72703
5.65112
0.0988356
0.0249444
0.167962
0.033267
3.92158
0.243024
0.0252551
0.0323601
2.27394
0.0249162
0.0256378
0.317216
0.0254928
0.292604
0.039148
0.0601958
7.96689
0.0253254
0.0249832
0.0253269
0.0253304
0.0246911
0.0275899
0.0253363
0.025345
0.0253565
0.160132
0.0253676
0.0471082
0.0253197
0.0253814
0.0253967
0.544056
0.0254129
0.136389
0.0254307
0.0319583
0.0315028
8.40816
6.25724
6.66592
0.0254498
0.0353968
0.825238
0.169799
0.0314213
0.0254855
0.0280916
5.55865
0.0393998
0.100705
0.037339
0.104318
21.7038
0.0919065
0.0250891
0.0254347
2.67567
1.09178
0.0288489
0.0253039
0.0387649
5.19568
0.392841
0.158706
0.0335457
6.71835
0.603118
0.0270263
0.0255
4.32379
7.18247
0.025471
0.036481
5.71599
6.31158
0.174334
0.0249055
0.0389027
0.0249222
6.33689
0.0250193
6.18003
5.76414
0.0340168
6.94653
0.0248546
0.147355
0.0253136
0.0261685
0.0613255
4.21775
0.0305971
0.0709134
0.0511374
0.0407781
0.0246676
0.0249712
0.0273495
0.0247312
0.0332847
0.0262466
5.98511
0.0253667
0.0249118
6.53073
0.0481574
7.6076
0.217659
6.56746
0.0281391
0.0250163
6.75357
4.45249
5.71234
5.89422
0.0353482
0.542759
0.142189
0.0252181
5.66876
0.0255185
5.79507
4.02598
5.97725
6.53809
0.0372987
0.052853
7.56654
5.71216
0.0247283
3.06601
0.0549208
3.94322
1.30237
0.0833035
0.0253573
1.05824
4.79217
11.5508
0.038473
0.592682
0.0293058
7.32825
6.26349
8.75682
0.0252709
0.180537
0.0332144
6.03492
5.73992
5.84768
2.16554
0.0591669
9.77549
0.029128
1.00058
0.0421782
0.0375963
0.0252396
0.135286
0.0262373
0.0363324
4.32477
5.94986
0.0337893
5.22958
0.0365878
1.82737
0.0520688
5.48829
0.0260815
5.38836
0.0378127
8.09424
0.0249911
0.0368801
0.0252607
0.0569393
0.124477
0.0348063
6.16208
0.23194
0.554952
0.696313
0.0392395
0.0255039
0.0252873
5.7884
0.0252618
3.43967
4.26636
0.219602
0.0297714
0.796408
0.0253554
0.0425051
0.0309131
0.0447666
0.0342886
4.09532
0.0498539
0.593019
0.0256705
0.0278637
0.0316022
0.0303014
0.0285629
0.154862
0.0254935
0.0252396
6.01124
0.0252364
0.134389