/*--------------------------------*- C++ -*----------------------------------*\
| =========                 |                                                 |
| \\      /  F ield         | OpenFOAM: The Open Source CFD Toolbox           |
|  \\    /   O peration     | Version:  v2012                                 |
|   \\  /    A nd           | Website:  www.openfoam.com                      |
|    \\/     M anipulation  |                                                 |
\*---------------------------------------------------------------------------*/
FoamFile
{
    version     2.0;
    format      ascii;
    class       volScalarField;
    location    "300";
    object      omega;
}
// * * * * * * * * * * * * * * * * * * * * * * * * * * * * * * * * * * * * * //

dimensions      [0 0 -1 0 0 0 0];


internalField   nonuniform List<scalar> 
14804
(
3.47291
0.0251123
0.0970115
0.0322821
0.0378792
0.0639969
0.0262614
0.0253978
0.111718
0.0255686
0.394027
0.102554
0.0255566
0.0385043
0.180257
7.22266
0.0389237
0.0310799
20.4474
0.0506017
0.0256905
0.028022
0.0406951
0.025774
12.222
0.0257787
0.0382886
0.0376555
3.53844
0.0257466
0.0248658
0.038246
0.0507031
0.044858
0.102895
0.0262813
1.37842
0.0256333
10.7823
0.0509062
0.0970013
0.098557
0.162032
0.0252472
0.0378727
0.0264734
3.0714
0.0255348
0.0283443
0.490376
0.0255876
0.0248437
0.0253906
0.0273716
0.597207
2.78735
0.36167
3.49559
0.0254912
0.0265293
5.62
0.0256399
0.0252363
3.04532
0.025239
0.0254135
0.0256801
0.0260732
0.0254201
4.62163
0.0248919
0.0369327
0.421878
4.95896
0.0255341
4.69734
6.12662
0.025106
0.0526146
0.0247017
5.69628
0.0254123
0.024731
0.0255425
0.0256505
0.152981
0.0249566
0.0262506
0.0250428
0.0375879
0.0376657
0.0275057
0.087126
0.0248378
0.503497
6.26924
3.52081
0.0369364
0.0257078
0.505666
3.48559
4.93744
0.0256612
0.0414809
0.208766
4.84881
0.10203
0.429301
0.0254203
0.0248796
0.0253295
3.27781
0.0880059
8.0524
3.24428
5.76662
0.244734
0.0388033
0.025646
0.0313694
5.93916
0.0250457
0.0270294
0.0446398
0.0254996
0.0256521
0.233097
0.040177
0.0433109
0.0368833
0.0367897
0.171511
4.11596
0.409699
2.24532
0.043944
0.0252538
2.44284
0.0255772
0.0452361
0.0252267
8.61247
0.025088
7.61562
6.23185
0.0254353
0.195885
0.0254241
0.309936
18.8247
0.111879
25.3277
0.051901
0.0417857
0.0247229
3.4703
0.0361788
0.519048
6.93525
0.385298
0.0251987
0.0252989
4.16568
23.9082
0.0281737
3.44496
0.0255761
5.30322
0.0256916
0.025398
0.564427
0.0285146
0.122711
0.16585
1.59939
0.410808
0.0406264
0.048356
0.0248457
0.394945
0.0639866
6.26172
0.0260616
0.0323505
0.0273083
4.34513
0.0657525
0.0621264
0.0297069
0.0247962
0.156248
3.88964
0.02534
2.61485
0.556856
0.0251968
4.97319
0.02552
0.0731365
6.7868
7.03992
0.024791
0.0268213
0.110861
0.0262516
7.05476
0.0353717
0.859525
0.0401761
0.0263322
0.0256987
5.27612
0.0261591
0.0251982
0.0260598
0.025636
0.0405483
0.0251675
0.0253509
0.025236
0.0321672
0.0927834
0.0731701
0.0282319
0.025023
0.695251
0.0497404
2.26167
4.18644
0.0276762
0.0248507
0.0266175
0.0253481
4.50773
4.85496
0.0256605
0.0264069
0.195783
0.139215
0.0292046
7.17574
0.443894
0.0257082
0.0252433
0.0249168
0.16309
0.0314358
0.0281314
0.0409315
0.0249038
14.7069
0.025198
0.0252424
0.0251121
3.87139
0.026145
0.0248083
0.0273393
0.0248777
0.0254494
3.57604
0.0297021
0.043376
0.0254709
0.97605
0.0255025
0.0347556
0.0249029
6.42904
6.53634
5.95038
8.46213
0.0256649
0.0254934
10.1712
0.198538
0.0263382
6.96242
0.089154
4.77908
0.195398
0.0251496
4.25312
5.39658
5.5106
1.04816
0.0914428
0.026315
0.0333031
0.318301
0.0251657
0.0254247
0.0279136
0.0255845
0.0610028
1.07331
0.182302
0.0436519
0.0251671
0.0335698
0.0249209
0.0251504
0.0351829
0.0503446
0.0511581
0.0259565
10.067
4.98151
0.164831
8.55353
6.29297
0.0255958
0.0302218
0.0290857
3.95803
0.026069
3.53407
0.246173
0.0246764
11.6395
0.184546
0.232198
1.761
7.84059
0.0254286
0.0492354
0.238969
0.0255
1.82897
5.90685
0.0414327
0.0379098
0.0398549
0.0296365
0.0254553
0.0248473
0.0251617
7.3795
0.0260308
0.12286
0.0280664
0.0254705
0.0318212
0.0255906
0.0248447
3.57419
5.56348
4.5272
0.12066
5.85419
7.22696
0.0273339
0.0254017
0.0249021
0.0260238
0.19199
0.0255987
20.4331
0.0247237
0.0252366
0.0259535
0.141236
0.087814
0.12877
7.01884
4.77716
0.0262086
0.0373312
0.0605681
0.0252248
0.0271399
0.0255485
0.0465756
0.0257528
0.0251005
18.1904
0.0249131
0.0257238
4.10002
0.485455
1.6746
0.0316694
0.0672722
5.70444
0.031348
0.0252113
6.12371
0.0264693
0.025466
7.45455
0.0324818
0.0247054
0.0259542
0.027339
7.0428
0.0271807
0.319969
0.0371452
9.93284
0.0255584
0.153809
0.0252942
0.449519
18.7163
0.0391356
0.028564
0.279447
0.0255701
0.0494094
0.025663
0.0250449
0.0358831
15.2269
0.0255654
0.0256134
0.73009
0.0254719
0.0317358
0.025785
3.50069
0.256788
0.0604376
0.0247277
6.29835
0.0284367
0.0386401
6.64653
0.0477013
0.0297545
0.0247958
0.0265924
0.0255541
0.771861
0.0254423
0.0263138
0.0253615
0.0249229
3.61974
0.0251679
0.025907
0.0482069
5.42099
0.025006
0.0255059
0.0249495
0.0294289
7.71958
6.47445
0.449242
0.027023
4.42849
0.0271013
0.0254201
0.0256608
0.0251091
0.0251925
0.0262358
7.56931
0.027469
0.0256514
4.3846
0.0249426
0.522279
0.284708
0.0385192
3.42788
0.0317314
5.01655
0.0609163
0.0256818
0.0256513
0.035739
0.0253226
0.0250175
7.21738
0.0320658
0.0255255
0.0357171
6.3086
5.92425
0.0437243
0.0308764
0.0289566
0.0931028
0.0254838
0.0309493
6.38375
0.0253413
0.0250053
0.0402698
0.0311252
1.39786
0.0453651
0.0249187
0.0380514
0.02565
0.0253644
7.24712
0.044313
0.0251856
0.143437
0.0258961
0.02522
0.0528961
5.48101
0.0254302
0.0253045
0.0249536
0.0250031
5.56177
0.0254364
0.0256636
5.13744
0.0252666
0.0257734
7.35788
0.0254237
1.24026
0.0246486
0.221919
8.8319
0.919138
0.0254816
0.0254741
0.0362765
0.026435
0.0246627
0.026678
0.0249459
0.0372935
0.0248031
0.0389226
0.0384722
0.0255711
5.79186
0.0937394
8.06686
0.028324
0.0246433
0.130322
0.0253941
0.0301766
0.223687
0.0347355
0.206025
4.51961
0.0252939
9.62517
0.113221
0.0274169
0.0285813
7.3669
7.02014
0.0247027
0.0251425
0.0251642
0.238108
0.110731
6.45142
5.85952
0.0253107
0.0603615
0.158006
0.758123
0.0376399
0.028955
0.0307664
0.0249443
0.189144
6.70842
0.0376885
0.402724
0.0246756
0.025174
0.0249451
0.0371553
0.0250262
0.214736
0.0254619
18.3304
0.326772
0.0359346
0.0941146
0.0249456
0.0252096
4.4572
0.0261322
17.9651
0.0250887
0.024948
0.0251136
0.0256521
0.0546199
0.0318913
5.61307
5.7445
0.0254643
0.0254601
0.0304239
0.117629
0.0720274
0.0340858
0.02491
1.04827
0.0273398
6.10349
0.0248059
0.399457
7.04805
0.0250144
0.0252323
0.0549928
0.0256913
0.0246617
0.0453592
0.0256075
3.90561
0.0607463
0.680173
0.0251664
0.348258
21.2179
0.0554196
0.0256909
4.50162
0.0250753
0.388627
0.0253989
0.0255594
6.71865
0.114274
0.689175
0.0595095
0.0340035
0.0247257
5.13232
0.025181
8.62158
0.686896
0.030851
0.0250012
0.0252769
0.0365425
0.0315554
0.0256234
0.100087
0.0940031
0.0369679
0.0254323
6.57282
5.24968
0.57644
0.025255
0.0528632
0.0247094
0.0254396
0.0437783
6.97323
0.0355923
4.56592
0.0486802
0.149991
0.19961
0.0253522
6.87277
6.39067
0.0251806
0.0321436
0.13449
0.031626
0.0369334
0.0284365
0.0352294
2.65925
0.0249798
0.0455876
0.0250786
0.0254913
3.55377
5.98019
0.0629902
0.0253566
0.0248307
0.0247174
0.02721
0.0441707
6.81984
0.0608138
0.262229
17.4878
0.0680571
0.0335333
5.37896
0.0253606
4.76782
0.0264194
0.0252202
0.0253227
0.0312208
0.0765621
0.0249515
0.0287188
0.043053
0.130904
0.0331468
0.201119
0.0252962
0.192397
0.0542402
0.0433162
0.040282
0.0255354
0.0255207
8.59588
5.01572
0.0253813
0.113036
0.0253543
0.0248053
0.0254368
0.0274393
0.364906
0.0250103
0.0392087
0.024938
0.029081
0.0252745
0.0454621
0.0261325
0.0250104
0.0254166
0.0588799
0.0451489
4.29036
1.37898
0.0251913
0.0252967
0.0252426
3.26643
0.0320795
0.0636885
5.68474
0.0358426
0.0299544
3.42202
0.0251164
0.025192
0.0252959
0.0249171
0.124692
0.0251882
0.0248171
0.475956
0.128644
0.0306595
0.0248535
3.49938
8.27102
0.0543505
0.0296253
0.0319731
1.63645
0.066388
3.54493
0.49259
0.120165
5.77148
0.0273288
0.0366732
0.70499
0.025125
0.567425
0.0258966
0.0256368
6.60217
0.0355612
0.104326
3.64777
0.138674
0.0251712
3.24433
0.0251044
0.0265682
0.0276149
0.0265657
0.0256253
6.31576
6.79911
0.0384092
0.179874
0.0289571
6.77938
4.06384
0.0380427
5.71487
0.0258971
0.0251005
0.024882
0.0254643
0.0253297
15.3697
0.0324812
5.81807
0.246833
0.0253482
0.0595645
0.0378928
0.0249054
0.0254509
5.84751
16.6387
0.0256505
0.0638537
0.0256182
0.0252592
0.0461373
0.0273329
5.34119
0.177752
2.1373
3.13948
0.0327715
0.206766
0.0254771
20.3927
0.121283
0.0249114
0.0302233
16.6629
0.0252555
0.0582794
0.0248174
17.2066
0.0582395
0.0257613
0.0255987
0.0248347
0.0249466
0.0292938
20.7699
0.0250628
0.0249372
0.0306643
0.0257414
5.68376
0.0730222
0.0253615
0.0248211
0.0253434
0.0436518
0.0253788
0.0252246
0.183427
1.74696
0.02533
0.0247124
0.0483793
6.42605
0.0253807
0.0249587
0.0250178
0.130573
0.0248137
6.34571
0.0457168
0.0529367
1.09251
5.07665
0.024924
0.761915
0.0245643
3.25407
0.0370015
0.0295362
0.025435
0.0253195
6.92218
0.0255153
4.33337
0.0252658
0.0726669
7.4206
7.98766
0.169533
0.0255503
4.70334
0.0256897
0.0250629
0.0305234
1.35121
0.0256322
0.237283
0.0657951
0.0257115
0.0322414
0.0256628
0.0257188
0.0253384
0.0253276
0.0252309
0.145288
0.0254655
0.0483763
0.0262578
20.5839
0.0256904
1.58697
0.0247767
0.0472891
0.0344815
0.141233
0.0439694
0.0668134
0.0315455
0.0287001
0.0256782
0.0312536
0.149788
0.0309103
0.0249917
0.0247979
7.51737
0.0845075
0.04598
0.024963
0.0251224
0.152349
0.0954662
3.29817
4.78473
0.137758
0.0575347
6.49655
0.0247107
0.0255913
19.7046
0.0367928
0.771669
0.0726486
0.0254505
0.0248815
0.104026
0.0248825
3.24723
0.026984
0.0660332
0.0248638
0.187392
0.0255489
4.11477
0.0249044
0.024995
0.0959514
0.164187
0.206937
5.43021
0.0754705
4.25638
0.0316147
0.0729545
4.73039
0.0373371
0.540147
0.0257253
0.0248069
0.104399
6.47373
0.0687596
0.0270176
0.0251132
0.0678252
0.0255251
5.06584
6.89086
0.0252224
0.0255756
0.0252481
0.0333936
2.3357
0.0256323
5.7844
0.907048
4.17956
0.03832
0.0254302
0.0255176
2.00838
0.0251179
4.01252
0.0282462
0.038796
0.0253324
0.0253872
0.0687109
0.0551155
1.93253
0.295585
0.0506415
0.0247151
0.0255655
0.0255714
4.00774
0.0922339
5.85774
0.0255076
4.7988
0.173753
0.0731216
0.0259496
0.025606
0.0252984
0.0253592
6.10182
0.0459016
0.0247946
0.118219
0.668507
0.0311286
0.0459052
0.0357492
0.0252259
0.540119
0.0254263
0.0389606
0.0253872
0.0535609
0.0487606
0.0252487
7.17084
0.0263507
7.61341
0.0249522
0.0254327
0.0248133
3.44166
5.53216
0.0334046
0.214341
0.120143
0.0257148
0.0263991
0.0253884
8.14601
6.2391
0.146175
0.353092
0.0254686
0.0264462
20.4832
0.0268775
0.0352668
2.36965
0.0286808
0.0282371
5.99846
0.116254
8.02219
0.0265872
0.0912957
0.0260215
0.782503
3.8681
0.0253828
0.0266927
4.19187
0.163093
0.0578211
0.0253345
3.37794
5.06777
0.0254237
0.0735926
0.0247064
0.0253275
7.27833
0.0253373
0.0449159
0.0363177
0.21134
0.0254067
0.0254475
0.0248013
0.0462604
0.0279521
15.8023
6.86006
0.0885363
2.23831
0.0248918
0.0250748
0.0253683
0.0253926
0.0486078
0.0315156
7.66382
0.037184
0.0261079
0.0619734
0.0247192
0.024957
0.0249188
0.536776
4.77116
3.98297
0.025218
0.039415
3.91893
0.0253806
0.0251702
0.0259462
8.07365
3.18251
0.0256644
0.104828
0.0472122
0.0299836
0.0274464
0.0253756
0.125414
0.11282
0.0390518
0.441883
4.6965
0.0254434
0.0256544
0.038205
0.0252956
0.0700283
0.0264367
0.0983398
0.0254037
5.71239
5.60006
0.0257713
0.0253623
0.0268719
0.0247377
0.148909
0.025064
0.0255316
0.0249335
0.160758
0.0253713
0.210047
0.0256798
0.025556
3.09305
0.0368124
0.0253551
0.192402
8.581
0.929709
0.0252823
6.19833
0.0252657
0.0249882
0.0255871
0.0354926
0.0274362
0.0494481
0.0545016
0.0326458
0.0254112
0.0247839
4.89329
0.106751
5.11785
0.825199
0.0250373
6.04687
0.077273
0.0266108
0.0250973
0.119857
7.79805
0.024956
1.87089
10.0975
10.0772
0.0451336
0.0253917
0.0365618
0.027758
0.025431
0.0250486
0.0899068
0.0255449
0.025059
0.0256622
8.12671
6.7838
3.38243
13.5965
0.0359814
0.0249328
5.18789
0.444289
0.121416
0.0248435
0.0249823
0.0253558
0.0323642
0.0285681
0.0936879
0.024951
0.0368616
7.09401
0.0310425
0.031064
0.151215
0.0557768
0.0256621
6.71495
0.0248183
5.03386
0.025349
4.41504
7.12937
0.163335
0.0544053
0.0250237
0.0248117
0.0254116
0.0252631
0.0248562
3.23475
7.12266
0.0254001
0.0967466
0.124111
0.027582
0.0253982
1.69021
0.0287519
21.659
7.18012
5.60802
0.076606
0.025455
0.0249925
6.31197
0.0247099
0.025296
0.0302384
0.204003
0.0294982
0.0254627
0.188212
0.181896
0.277894
3.70052
6.47197
0.0249391
0.0249795
0.191492
0.0248914
0.025379
0.0250469
0.323446
0.19563
0.0253059
0.0311134
6.24203
0.0254147
0.0535394
0.267271
0.0254409
0.0254211
0.0691265
0.0356751
0.0434283
4.04265
0.139277
0.025651
0.0253755
0.0245961
3.80429
0.0249857
5.98579
0.0252928
1.86514
0.0256359
0.0254291
0.0296325
0.0263951
0.341536
3.72028
0.392684
0.0506615
0.0252996
0.0465575
0.0254365
0.0638278
1.52253
0.0247632
0.0618949
0.0253435
0.0248683
0.0253112
4.13403
0.10319
0.0255552
0.0265794
0.0955289
0.0257128
0.190217
2.8423
5.1481
6.85776
0.0260357
0.091651
0.0253122
5.95673
0.0282731
0.0253568
3.71199
0.0290317
2.76044
0.0255136
0.141346
0.0446565
0.0256818
7.36525
6.32385
0.0417831
6.04651
7.8007
4.30701
0.0309115
3.39767
0.0254685
0.0254086
0.135561
5.44542
0.0428143
0.0254915
0.0248094
0.0254313
0.0255737
0.0254701
5.72726
3.97103
0.0253114
0.34982
0.0311402
0.0334783
5.19517
4.36264
0.024889
0.0251313
0.0498539
4.53238
0.025373
6.75921
0.0249532
0.0249023
0.0296518
0.0248186
0.681598
0.0247177
5.37585
6.17529
0.027693
0.0610254
0.0272536
0.0700624
0.0253721
0.0287616
4.05066
0.672932
0.02538
0.142721
0.028663
5.89697
0.263105
0.0248569
0.0262925
6.96344
5.11451
0.652709
0.0251235
0.0283748
0.966239
7.47637
0.0296242
0.0357007
0.389232
0.0385909
0.0273327
5.91728
0.10694
0.560447
0.648047
0.0256929
0.0262561
0.0248874
3.96025
0.025955
0.0258668
7.18122
0.0256831
0.0255571
0.0255266
0.122442
0.0254599
5.39404
0.025456
0.0679124
0.0298122
0.105451
0.0311171
0.0466262
0.0276807
0.184019
4.58036
5.89963
0.0252839
6.29132
0.0299388
0.153271
0.0299416
0.034448
0.0256615
0.0298845
0.0251312
4.18513
0.368016
0.0259139
0.0252173
0.0255242
0.044754
0.0247155
0.0313663
2.58306
0.0259212
0.0351716
5.89831
3.47228
0.0292148
0.509977
0.0256265
0.0248012
0.0255386
0.0465024
0.0253539
0.0252573
0.0250086
0.0254959
0.0248985
3.18081
0.029015
5.12243
5.91891
0.0256798
0.130615
0.0253045
0.0312891
6.25746
1.55969
5.04931
0.0252535
0.0337967
0.024701
0.024751
7.93806
0.0433609
0.514842
0.0247729
0.0249618
0.0253707
0.0268379
0.690039
0.137563
0.0249918
0.0256905
0.0253504
5.21744
0.13896
0.0252861
2.77686
2.4384
6.10379
0.0333773
0.0863201
0.112817
0.0249067
0.024828
0.0254557
0.0249469
5.1256
10.0612
0.130386
0.03175
0.197775
1.78148
0.0296392
0.0254286
0.0253802
0.427824
0.0309203
0.0427502
0.0315692
0.025277
0.0397267
0.0316456
0.0271262
0.0262348
6.56581
5.33218
0.0249676
0.0581304
0.0262998
0.024952
0.0257126
4.64534
0.0253451
0.183493
0.0354642
0.02627
0.0253907
0.0253725
2.58257
0.0257181
0.0608047
7.01284
5.716
0.0250153
0.0808987
0.0265706
0.0255774
0.0249397
0.0285247
0.0254209
0.0613852
0.0251453
7.17291
0.0299141
0.0253518
0.0263489
0.0540075
0.0307454
0.0310751
0.0315314
0.0303413
0.0248168
0.0247332
0.0495351
0.0249338
1.29803
0.025652
0.0907912
5.2387
5.26894
0.0251191
0.227002
0.0563768
5.8309
5.88346
0.788551
3.71349
0.0247795
6.34262
0.0262046
0.0274898
0.215102
5.23048
0.0452714
3.72457
0.0251267
0.02863
0.246373
0.182832
5.90521
0.652054
0.07487
0.0286557
6.92222
0.029029
0.450789
0.0255153
0.0606711
0.263386
0.0264684
0.0753634
0.0247371
0.0254724
0.0863619
0.0253594
4.83761
0.031021
0.0253723
0.282715
4.07179
0.0247257
5.76836
0.0288997
0.0248332
4.94778
5.48755
0.0262328
0.0252114
0.0255014
0.115256
0.0285464
5.66237
4.18422
0.200093
6.636
0.0255451
0.0633224
0.0255722
3.81431
0.0253492
0.294226
5.17945
0.156877
4.37405
0.0252784
0.0250912
0.0245919
0.025331
0.0256615
0.0317647
6.79477
0.0272632
0.0523779
1.62726
4.44443
8.81821
3.9156
0.025012
0.0252126
0.0371103
0.0262239
3.65284
0.0432579
0.024977
6.0663
4.28344
0.0257597
0.0253188
0.025019
3.47868
0.0314208
0.025222
0.0251827
0.0254149
0.0253808
0.0253134
0.0248183
0.174617
0.0247356
0.639379
0.0938363
0.0276972
0.0317699
0.0275669
0.0254336
0.061064
0.0256623
0.0256798
0.0533657
0.586088
0.0251093
0.057154
0.0263994
0.05158
7.12809
0.0248221
0.0412055
0.0253374
8.64623
0.0262926
6.48707
2.04349
16.2318
7.8306
0.463115
0.138855
1.50132
6.64409
0.0261398
7.18046
0.0253031
0.21418
5.76424
0.0667866
0.0249993
0.0253462
0.0248112
7.92239
0.161
0.0247968
0.0246851
0.0252464
0.107089
0.192529
0.0255839
0.0586
5.94337
0.0248987
0.124847
0.0249635
0.0251721
0.0251473
0.0305865
8.28332
0.254445
0.283691
0.181905
8.11071
0.123821
2.94169
17.0728
0.549232
6.86815
0.0250086
0.0923802
0.0255094
0.0255415
0.0255168
0.0358817
0.0253506
0.0265918
18.2398
0.0264712
0.0274856
0.0275892
0.0326856
0.0250771
0.172437
0.0256557
0.025499
0.125415
0.0432228
7.28129
0.044897
0.0271287
0.0484013
8.42135
5.97633
0.0253487
0.170287
0.0265069
0.0583086
0.025475
0.0253945
0.0270415
6.11818
0.0379994
9.68463
0.0323765
6.17078
11.7139
6.20655
3.23577
0.0253019
0.0248775
7.19938
0.0522904
0.0696358
3.95033
0.0254967
0.0248759
0.0257147
0.0267409
0.0924727
6.67356
0.0886374
0.0248353
0.0249643
0.0253928
0.0610103
0.618776
0.0253003
0.0360601
0.0565917
0.025378
0.0485328
0.209005
4.6678
18.3877
0.0252732
0.0492253
5.46798
0.0600943
0.0324041
0.0764601
5.64538
0.0253425
0.0247201
0.0248541
0.0250424
0.0263427
6.9419
0.0247108
0.0253819
0.0458036
0.0301554
3.61675
0.0269568
0.0293694
0.034559
0.0476597
0.0252864
5.71683
0.0253423
0.0256618
0.115625
0.037896
0.0251513
0.0257018
0.0432299
5.44756
0.0320592
0.0275259
0.124727
0.0563309
0.0283617
4.64893
4.3187
0.0301657
0.0260937
0.0260447
5.83841
0.343634
0.0341296
0.0559917
0.0248076
0.0730241
0.025163
0.0312221
5.88003
0.0316399
0.0511231
0.0280986
1.03958
0.0579682
0.0255257
0.127734
0.106849
0.0254335
0.0629519
0.0255047
0.0446654
14.625
5.49294
2.08103
0.0694107
0.414546
0.350284
0.0652963
0.0253237
0.025367
0.0313733
0.0445463
6.22184
0.0340178
0.0255724
0.0252321
7.0139
0.0768686
6.8348
0.0262228
0.0249577
6.6642
7.04246
0.0252776
0.0253949
0.0248052
0.0357579
0.0615502
0.0259439
0.0297551
0.0357701
0.0333119
3.80036
0.0251448
0.0302977
5.82556
0.0248238
0.0619123
0.0246891
0.0295066
7.3131
0.029774
0.0390904
0.0249952
0.0250587
0.105787
0.0255354
0.0252392
0.0254451
0.0367097
0.116172
0.0297296
0.0531265
0.0253804
0.0250993
0.0362471
4.66266
5.5702
0.0294492
3.96339
0.0297582
0.0285664
0.0272966
5.42296
0.0281428
0.0255521
0.0254098
0.237873
0.035063
0.0825778
0.025754
0.0254277
6.99391
0.0262702
0.0254865
4.75255
0.0314174
0.0252817
0.0248299
0.0371009
5.99783
3.35162
0.0250298
0.0348367
0.0271957
0.0251658
0.0249392
0.0354234
0.0345127
0.0854298
0.0247337
0.0379664
0.0393017
3.3281
0.0303979
7.29827
0.199615
0.0263439
3.71705
0.565467
0.529523
0.0369915
0.0365358
0.025494
0.0252871
0.0308753
4.49311
0.977925
0.025489
7.13806
0.0254951
0.0369199
0.0675468
0.0309034
0.0252902
0.441497
13.4993
0.0246147
0.0253629
0.0373387
0.0252536
0.0332803
0.0777891
2.13549
0.0356221
0.0256792
0.0247884
0.0616961
0.0389558
0.131535
0.0280949
0.173401
0.0361329
0.129929
0.0561856
0.323616
0.152731
0.0691985
0.164778
3.19292
0.0291078
1.25761
0.0288616
0.11441
0.0253469
0.0248898
0.0410371
0.0252453
0.057278
0.463682
0.0434202
0.0293908
6.35219
0.0368848
0.0328853
4.75088
0.0250911
0.782156
0.103975
0.0256804
5.60718
0.198327
0.109812
0.0579731
3.65423
0.0400841
0.0256356
0.0570432
0.0381561
7.52378
0.0569121
0.0376574
0.0361728
0.0298548
0.0706722
0.0625695
0.547765
2.1143
0.027225
0.0249461
0.0257894
6.09391
0.0341952
0.0277098
0.0291
7.25146
0.0346142
0.0254312
0.0356193
0.0249137
0.0253778
0.0289354
0.152491
0.0253719
4.89612
0.0256514
0.0251501
0.0577959
0.0329315
3.26117
0.0253018
0.0264317
6.68822
0.0350201
0.0253734
5.01989
3.13082
0.0296036
0.216652
0.0294669
0.0353822
6.33755
0.0341871
14.27
0.434296
0.0475801
0.0369856
0.0374519
0.0249664
0.0253122
0.0248982
0.0380234
0.372659
5.57117
0.0363985
0.0579877
0.0252542
0.024958
0.0270044
5.78618
0.0288741
0.0354122
0.0289325
0.025404
6.63661
0.0254895
0.024735
0.252071
0.0256454
0.0252634
0.0251165
0.0254427
0.0271247
3.29585
0.104956
0.0254576
0.0247083
0.0452707
0.0268931
0.0273651
4.53135
1.59951
5.58571
0.0252841
0.0580506
5.83499
9.55041
0.2915
10.3198
0.0281996
0.0253813
3.39381
0.0354964
4.45766
0.0263205
0.0252491
0.0263159
0.0275755
4.17618
3.2671
0.0275792
0.0357252
0.238083
0.0256078
13.5877
7.35079
0.0261632
0.0577543
9.65029
0.0252322
0.186517
5.13694
0.02561
0.0252423
5.39469
0.0251645
0.0254362
0.0293681
7.06867
4.39213
0.0250161
0.0348034
0.0261461
4.27329
0.206809
0.0254419
0.0249103
4.09948
6.29046
5.25458
0.0248075
0.0249827
0.025284
0.0574444
0.03678
0.0298713
0.024936
0.0290415
5.68973
0.0548326
0.0249912
5.80445
0.0355619
0.0248691
0.0277035
0.0343655
0.0253737
0.113
0.0422658
5.0955
0.0569736
0.0360332
3.77567
0.041505
0.130724
3.35663
0.046848
5.52878
0.0345414
5.42502
4.91185
3.57063
0.0353706
10.4375
0.173681
0.0249826
0.0305193
0.0858561
0.0724405
0.039598
6.71488
0.0278144
0.0250083
0.0349403
0.0248335
0.0252948
0.0293984
0.092594
0.115015
0.0351684
18.6712
0.0252478
0.027063
0.0250927
0.0253582
0.060519
0.0264429
0.0276994
0.0254339
0.0253716
0.842024
0.025148
0.0255115
0.0603128
0.0268308
4.51284
0.065297
0.548696
0.0348939
0.0269819
0.0259277
0.109553
0.025272
14.0699
3.33071
0.0261598
0.0253921
5.15803
0.155188
0.170271
4.82589
0.0247213
0.0251683
0.02911
1.22065
0.0269271
0.0254558
0.0416937
0.0358164
3.59002
5.79219
1.63605
0.0889117
0.0255256
9.7128
0.0260108
0.0292075
0.0252784
0.029256
0.0874893
0.0540742
0.484796
0.024957
0.0293138
0.0292521
0.0252671
5.90447
0.0351522
0.0286886
3.02923
0.606278
0.0253004
0.0249901
0.0285367
5.67511
0.0247587
0.0532936
0.0296686
0.0262242
0.0659438
0.0810347
0.0266976
18.6445
0.0255993
0.150017
0.0346762
0.0622708
0.0630057
0.0270521
0.910808
0.062499
0.0255023
0.0313835
0.0524873
0.0250064
0.0427701
0.0340573
4.32405
0.0256414
8.38702
0.0252596
0.0405504
0.0333509
0.0250856
6.33508
0.115804
0.0249142
0.0513715
0.0253662
0.0252962
0.0252092
0.0269433
0.0293698
0.0506626
0.0256794
0.0285443
0.113163
0.057005
0.0607898
0.0497728
0.0248822
0.0256469
0.0250782
0.0688203
0.0251443
0.0281474
0.171806
0.101918
0.0252968
0.0253738
0.0252742
0.114435
0.0255354
0.0283544
0.180368
0.0307234
22.7035
0.164393
0.0256689
0.136173
15.2882
0.0254875
0.0253091
6.33608
0.0472818
0.0434627
0.0254914
0.0249495
0.0246291
0.0263656
4.52677
6.58104
0.0252754
0.0980229
0.0458844
0.0287786
0.0250325
0.0256193
4.02567
0.0252871
0.025135
6.49354
2.80535
0.0248726
0.0248179
0.0253809
4.36064
0.0268631
0.0260067
4.09809
3.98326
0.025157
0.0390652
0.0253325
0.150996
0.190995
0.0253958
6.71833
0.0281347
0.0752389
0.0251631
1.30434
4.56871
0.0918506
3.83647
5.66388
0.0247113
3.65294
0.0253576
0.0252115
3.89585
0.0256622
0.13306
0.0351309
6.27784
0.0253004
2.76047
6.48664
0.0252294
0.0256644
0.27001
3.71139
0.0274549
0.0255046
0.0310629
0.136211
0.0318694
0.025176
6.08926
0.0258081
0.0307865
0.0262465
0.11055
8.1805
0.0251549
5.2933
0.0899913
0.207025
0.0256307
0.0265778
0.132764
0.183022
7.96849
0.0252054
0.0253156
0.025005
1.13477
0.174444
7.56227
9.07212
0.147308
0.0250072
0.0254763
0.0252053
5.76874
0.0252701
4.33939
7.46993
0.0253798
0.125872
0.0458925
0.0496306
0.206987
0.0253716
0.0250731
0.451714
1.61678
0.0250323
0.0257124
5.39067
0.422381
0.0305691
0.504134
0.0261461
0.0258682
6.15488
7.49278
0.0254825
0.0273257
0.0248194
4.61501
7.74155
0.0249606
0.0252469
0.0260877
0.0253138
0.0358832
0.0306183
0.0253227
5.23184
0.160197
0.0304519
0.0278552
6.05123
0.0250732
0.0255195
0.0252835
11.8667
0.4091
0.0253311
0.0252776
4.30529
0.030654
5.54554
0.0255449
5.66094
6.77729
0.0928255
0.02508
0.0254761
0.0252329
0.0446674
0.982315
0.297298
0.828547
0.039865
0.0253914
1.0097
17.9041
4.38854
0.0380437
0.0251928
0.0249833
0.0246264
0.194454
2.50543
0.0273601
0.0373935
0.0252471
0.0253784
0.0251763
0.0827855
0.0252843
0.133955
0.024982
0.0852247
5.29401
6.39145
3.09299
0.20081
0.0253225
0.0304363
0.0865045
0.0438144
0.0278849
0.0309466
0.0253281
0.0253341
0.0290511
0.025089
0.025201
0.0688908
0.0248355
0.041323
3.34712
0.0254611
0.0337746
0.150219
0.0256624
13.1441
0.0450755
0.0301428
0.0253355
0.0246652
0.836602
0.0252834
0.0276303
0.0249085
0.0253945
0.0254465
0.55738
2.01073
0.0679195
0.0247042
5.8201
4.11617
5.81082
0.02707
0.0247255
0.0249499
0.0247758
0.0249426
4.90947
4.7545
0.114333
6.663
0.0282917
0.0386615
0.0255392
5.60265
0.0268118
0.0246811
0.0260299
0.0427506
2.66248
0.55276
0.0256863
1.60083
0.0290046
5.40676
3.23103
5.76627
5.80236
0.101603
0.693107
12.8524
0.375924
4.67244
13.8807
0.0335541
0.0379965
0.0883473
0.697703
0.0251625
0.0355594
6.70558
0.0254159
0.567184
0.0261169
0.026052
0.0307501
0.0252484
5.19939
9.81277
0.0248246
4.47023
0.0253131
0.89175
0.0256777
0.025551
0.161958
6.86743
16.8396
0.0251055
0.151109
0.0368631
0.0269554
4.99861
0.024887
0.0249173
0.0251224
0.0251958
4.27427
15.1612
0.102957
5.28893
0.0376721
0.0250252
0.0271245
7.35273
0.0272956
0.0257831
1.05285
0.0253094
0.0368629
0.296458
0.0931758
4.41066
0.0255087
0.0329382
0.737358
0.0259648
0.156159
0.0260843
0.0360912
0.0252822
0.0346354
0.129567
7.91803
17.3019
0.025112
5.76897
4.19894
0.0719928
0.1827
0.191407
7.65826
6.24344
0.0294562
6.71161
0.0262747
5.60223
0.0258387
0.044533
0.0326688
1.50217
0.0247882
0.0251135
0.0262062
0.13044
7.78867
0.0266304
0.0368307
0.374999
1.93102
0.0779925
6.76505
0.0364013
1.15893
0.0255725
0.0248112
0.0251533
0.09571
0.461015
0.0372225
0.0296691
0.0460225
0.0253575
0.119015
5.58957
5.07782
9.16964
0.512426
0.0253305
1.96688
0.0249147
0.025162
0.864041
7.25965
6.04622
7.05143
7.17446
5.88419
1.20054
0.0253185
0.0249438
0.372942
4.20703
3.54986
0.0619486
0.0552496
5.18542
5.20402
4.23373
5.74187
0.0254145
0.0308278
0.0289914
0.0311846
0.0253023
0.036745
0.0255059
0.025361
0.0307702
0.0253292
0.0262252
0.0809489
0.0286329
0.0334006
0.0522325
0.035185
0.0350605
3.83194
0.0251697
6.42529
0.0256525
0.036009
3.92994
13.2024
0.355874
0.0304037
0.0252757
4.82663
2.55333
5.61426
9.16996
0.02538
0.576354
7.83073
0.0371183
0.0255337
0.0290677
0.242525
8.4098
0.0944717
6.88777
0.0254783
3.46709
0.0466558
5.76183
0.310991
0.0262665
4.16981
4.08436
0.0249885
13.3765
0.376912
0.029972
0.0871396
5.36633
8.4632
0.200762
5.68674
0.919159
0.0791056
0.0364856
0.0259576
0.0302986
6.00363
1.79928
4.67265
2.07759
0.14873
0.0256645
0.360688
0.321417
0.0779574
0.0252133
0.0253829
0.026007
4.61425
4.47412
5.92261
0.276767
0.0253127
0.0310723
0.0286674
0.47462
0.0993832
0.0284731
0.0256801
2.10363
0.025357
13.5969
0.0640344
3.82434
5.19572
5.68066
0.0256516
0.214303
0.0253255
1.73808
0.0250766
0.894412
4.64637
0.0339583
0.0253222
0.0478643
7.5815
0.446187
0.919569
3.66221
0.0254684
0.0253032
0.0810216
11.6605
0.0248241
0.434214
0.0247337
0.0304815
6.82973
0.237149
0.0477368
3.34443
0.268859
9.72631
0.0253182
0.0414437
0.0365975
8.81771
4.86628
0.0255187
5.00965
0.0398485
0.0256363
3.26081
0.0249156
1.77504
0.0252155
5.09411
0.0311528
5.6392
0.0499198
0.0265552
0.167629
8.65489
0.176649
4.99258
5.92155
0.0349986
0.122418
0.0247009
0.0264281
0.0254465
0.0249345
0.0288049
0.0250741
0.0255492
4.65363
0.466894
0.184066
8.68245
5.14452
0.280163
0.0386033
6.43262
0.0312071
4.50472
5.9249
3.61956
0.0280372
0.0256503
0.0841439
4.73376
0.187483
0.0251276
7.45808
0.0560967
0.834125
0.04503
5.68399
0.0287225
0.0263149
0.0340526
0.0324934
0.169793
0.0253608
0.726682
0.0385474
0.188689
0.0255493
0.0364269
4.95083
7.35583
0.029172
0.0374532
0.0254763
0.0271589
0.335672
5.75696
14.3844
0.0447724
3.20356
0.0365836
0.025103
0.0261602
0.494338
7.19292
0.0262402
0.0250983
0.101333
1.24204
0.0593252
6.51411
0.0253503
8.26747
10.0869
0.255254
8.03788
0.025433
0.0250818
0.131767
0.038387
4.06767
0.0310957
0.142234
0.0514687
0.0334328
0.230304
0.18908
0.0249173
0.0254789
0.0377132
0.81215
5.72702
5.65113
0.0988359
0.0249444
0.168
0.033266
3.92161
0.243414
0.0252551
0.0323601
2.33622
0.0249162
0.0256378
0.316204
0.0254928
0.291972
0.0391481
0.0601979
7.96684
0.0253254
0.0249832
0.0253269
0.0253304
0.0246911
0.0275899
0.0253363
0.025345
0.0253565
0.160028
0.0253676
0.0471052
0.0253197
0.0253814
0.0253967
0.551299
0.0254129
0.136381
0.0254307
0.0319583
0.0315028
8.40835
6.25725
6.66588
0.0254498
0.0353967
0.862145
0.169771
0.0314212
0.0254855
0.0280916
5.55866
0.0393999
0.100704
0.0373389
0.10432
21.7041
0.0919049
0.0250891
0.0254347
2.68552
1.06333
0.0288489
0.0253039
0.0387659
5.1957
0.389332
0.158852
0.0335457
6.71834
0.603183
0.0270263
0.0255
4.32377
7.18236
0.025471
0.0364849
5.71597
6.31157
0.174273
0.0249055
0.0389027
0.0249222
6.33683
0.0250193
6.18001
5.76414
0.0340168
6.94647
0.0248546
0.147366
0.0253136
0.0261685
0.0613282
4.21776
0.0305971
0.0710254
0.0511349
0.0407774
0.0246676
0.0249712
0.0273495
0.0247312
0.0332847
0.0262466
5.98511
0.0253667
0.0249118
6.53081
0.0481632
7.60747
0.217705
6.56742
0.0281391
0.0250163
6.75349
4.4525
5.71234
5.89427
0.0353482
0.527484
0.142187
0.0252181
5.66877
0.0255185
5.7951
4.02599
5.9772
6.53815
0.0372987
0.0528627
7.56876
5.7122
0.0247283
3.06473
0.054923
3.94323
1.30705
0.0833048
0.0253573
1.03724
4.7922
11.5403
0.038473
0.595748
0.0293058
7.32817
6.26356
8.75665
0.0252709
0.180502
0.0332144
6.03496
5.73991
5.84767
2.16574
0.0591665
9.77544
0.029128
0.999809
0.0421787
0.0375826
0.0252396
0.135284
0.0262373
0.0363376
4.3209
5.94986
0.0337896
5.22961
0.0365878
1.7974
0.0520685
5.48828
0.0260815
5.38836
0.0378127
8.0942
0.0249911
0.0368801
0.0252607
0.0569416
0.124475
0.034806
6.16213
0.232058
0.559595
0.676941
0.0392606
0.0255039
0.0252873
5.78839
0.0252618
3.43968
4.26638
0.219554
0.0297714
0.820263
0.0253554
0.0425051
0.0309131
0.0447666
0.0342886
4.09534
0.0498552
0.590846
0.0256705
0.0278637
0.0316022
0.0303014
0.0285629
0.154823
0.0254935
0.0252396
6.01122
0.0252364
0.13439
0.213214
9.40518
3.26059
5.12689