/*--------------------------------*- C++ -*----------------------------------*\
| =========                 |                                                 |
| \\      /  F ield         | OpenFOAM: The Open Source CFD Toolbox           |
|  \\    /   O peration     | Version:  v2012                                 |
|   \\  /    A nd           | Website:  www.openfoam.com                      |
|    \\/     M anipulation  |                                                 |
\*---------------------------------------------------------------------------*/
FoamFile
{
    version     2.0;
    format      ascii;
    class       volScalarField;
    location    "300";
    object      p;
}
// * * * * * * * * * * * * * * * * * * * * * * * * * * * * * * * * * * * * * //

dimensions      [0 2 -2 0 0 0 0];


internalField   nonuniform List<scalar> 
14804
(
-0.0162484
0.0196357
-0.0220507
-0.0219365
-0.030669
-0.0367674
0.00116942
0.0525649
-0.018692
0.0241544
-0.106794
-0.0226446
0.061946
-0.024608
-0.12765
-0.275351
-0.0315326
-0.0218051
-0.0160312
-0.0210584
0.0320909
0.0188388
0.0482057
-0.00207913
-0.0521334
-0.000810569
-0.0209475
-0.0283383
-0.0155702
-0.00840827
-0.00326273
0.0677407
-0.0210361
-0.0472428
-0.0193712
6.96687e-05
-0.0213311
0.0280666
-0.264223
-0.0218573
-0.0216367
-0.0195508
0.240243
0.0367109
-0.0298874
0.0743821
-0.0220515
0.0488962
0.0185089
-0.157062
0.0633393
0.00590725
0.0313099
-0.017026
-0.154561
-0.0161073
-0.0151952
-0.0158863
0.0347508
0.0766446
-0.0177486
0.064817
0.0350575
-0.0165001
0.0354403
0.0318949
0.0321015
0.00801158
0.0229703
-0.00511908
-0.00540055
-0.0208506
-0.117407
-0.0123424
-0.0113448
-0.00620057
-0.265897
0.0193326
0.173275
0.00393317
-0.214245
0.0316071
0.00415476
-0.0111907
0.0267699
-0.0589479
0.013767
-0.014026
0.0167779
-0.0289396
-0.0417763
0.0449845
-0.0196635
-0.0043389
-0.166087
-0.263989
-0.0156467
0.0689543
0.0131197
-0.110731
-0.0169413
-0.0114441
0.0269302
-0.0250477
-0.0176537
-0.00871266
-0.0225595
-0.13569
0.038494
-0.00368084
0.0375214
-0.0177858
-0.0196476
-0.196819
-0.0195982
-0.212183
-0.0173513
-0.0432535
0.0264082
-0.0222364
-0.258555
0.0166307
-0.0082083
-0.0366363
0.0343147
0.0280369
-0.0165743
-0.0247364
0.0510093
-0.0349124
-0.0348129
-0.0932173
-0.00553445
-0.0955736
-0.0133526
-0.0357505
0.0374293
-0.071755
-0.00859562
-0.0491209
0.0252398
-0.298744
0.00566698
-0.26283
-0.0243224
0.0231707
-0.0178531
0.0380011
-0.0407228
-0.0133379
-0.0186897
-0.0213708
-0.0218286
-0.0243917
0.00421905
-0.0165241
-0.0205122
-0.150925
-0.0110237
-0.0397044
0.0215057
0.0214184
-0.00743716
-0.0502023
-0.0204741
-0.0172917
0.0493424
-0.0164116
-0.00906151
0.0525827
-0.0134673
0.0361952
-0.0298078
-0.122723
-0.0125158
-0.09734
0.17178
-0.0492039
0.0101949
-0.0151709
-0.0358883
-0.0552619
-0.000347935
0.140849
0.0453278
-0.0101918
-0.0621115
-0.0606034
-0.0250324
0.00704356
0.253932
-0.0196514
0.0178232
-0.054949
-0.0211588
0.0308665
-0.00998378
0.0604867
-0.0849668
-0.00570212
-0.0431817
0.00676783
-0.0156972
-0.106152
0.0795452
-0.0095624
-0.0204443
-0.0585017
-0.0445903
0.00251154
-0.00852529
-0.0190306
0.00656855
0.0213651
0.0289077
-0.00899529
-0.0243567
0.0273957
0.0432984
0.0350798
0.134461
-0.0193974
-0.0881383
0.0382478
0.000813151
-0.0715216
-0.0210674
-0.0156347
-0.00821599
0.016677
-0.00388456
-0.0146325
0.0439345
-0.0118095
-0.0135631
0.0273603
0.0706215
-0.0200318
-0.0750379
-0.0160381
-0.300122
-0.0616819
0.0146129
0.0360397
0.00629822
-0.0593262
-0.0299864
-0.0203179
0.0535588
-0.00395375
-0.295881
0.0310016
0.02148
0.0193951
-0.00963785
0.0790836
0.00778421
-0.0183613
-0.00504568
0.0321037
-0.013765
-0.025441
0.05549
0.057326
-0.124551
-0.00618808
-0.0203028
0.0066501
-0.00817172
-0.00935065
-0.0529775
-0.277669
0.0265518
0.0341113
-0.296444
-0.130018
-0.0145086
-0.0232964
0.217345
-0.00845766
-0.0202491
0.0185848
-0.015567
-0.0168972
-0.0837102
-0.070794
0.209466
-0.0143249
0.13293
-0.0139202
0.0271168
-0.00463858
0.0164026
-0.0114012
-0.0370044
-0.221237
-0.0938729
0.0656342
0.026914
0.138186
0.0102617
0.0209113
0.122439
-0.021032
0.177893
0.000536836
-0.257974
-0.010538
-0.120487
-0.226044
-0.00596593
-0.0115472
0.0738621
-0.0140296
-0.00928639
0.0303927
-0.0140064
-0.103028
0.00490678
-0.274672
-0.0214421
-0.0180833
-0.0164027
-0.00683134
-0.0105158
-0.0210817
-0.12494
0.0339155
-0.176257
-0.0104893
-0.0255002
-0.0223602
0.168882
0.0733333
0.0318419
-0.00298308
0.0213156
-0.257269
0.0591406
-0.0293634
0.0315047
-0.00980685
-0.0309759
0.0632965
-0.00420831
-0.0142651
-0.0500357
-0.00822347
-0.0184488
-0.0443773
-0.0289177
-0.0183481
0.0309707
0.00703186
0.0603136
-0.0213503
0.0168388
-0.0146865
0.0013462
0.021521
0.0556499
-0.0615489
-0.0209071
-0.0731216
-0.0916472
-0.0158636
-0.0140977
-0.0411793
-0.0467321
0.0331846
-0.00785203
0.0329557
0.0558408
-0.0089251
0.0186414
-0.304399
0.00672139
0.040677
-0.0113354
-0.121809
-0.0718204
-0.0246685
-0.080179
-0.0822683
-0.0297318
0.032081
-0.206635
0.0727189
0.0286508
-0.273859
0.128986
-0.0017187
0.056773
-0.0169283
-0.0692992
-0.00840829
-0.0196243
-0.022175
-0.238598
0.0329292
-0.115835
0.0313976
-0.125058
-0.296655
-0.0389414
0.0956777
-0.0204425
0.062051
-0.0210503
0.0305209
0.000664528
0.121736
-0.295382
0.0241033
-0.0116446
-0.121607
0.0349241
-0.0253961
-0.000377107
-0.0153001
-0.106481
-0.0312034
-0.00232725
-0.263092
0.0926523
-0.0208502
-0.088202
0.171448
-0.0189907
-0.00308064
-0.01031
0.0171525
-0.211273
0.0282526
0.00387965
0.0457814
0.0105372
-0.0150468
0.0277754
0.0528315
-0.0217425
-0.0497262
0.00792462
-0.00565273
0.01275
-0.0196369
-0.210985
-0.0827805
-0.0637994
-0.00954947
-0.00961447
-0.00657278
-0.0103976
0.0309039
0.0067252
0.0279221
0.00674004
-0.151534
-0.0190835
0.030687
-0.197732
0.0123548
-0.148097
-0.043892
-0.0248942
-0.178998
-0.0245844
-0.0113348
-0.0307356
0.0649242
0.0271834
0.116048
0.00849545
0.0103092
-0.199445
-0.021571
0.0602867
-0.0393356
-0.0101371
-0.0318945
-0.0343878
-0.0234957
-0.0111277
-0.01941
-0.0108002
0.104553
-0.213894
0.0470789
0.00733151
-0.0466479
0.107999
-0.0216547
-0.0523885
0.00946248
-0.0230533
0.031057
0.0457383
-0.011168
-0.0354043
0.027837
-0.109603
0.0535947
0.0247803
0.112743
-0.0231198
0.0372413
0.0323919
0.0134556
0.000388931
-0.00978322
0.0369003
0.0633977
-0.183816
0.0198845
0.0219093
-0.221815
0.0355349
-0.172704
0.00383536
-0.0152327
-0.0110681
-0.0224442
0.058043
0.035189
-0.0221229
-0.0147648
0.00437431
0.0478679
0.0129982
-0.0229326
-0.00291564
-0.0451414
-0.0285385
-0.0112715
-0.212418
-0.020833
-0.157229
0.0317068
0.00361231
-0.0562567
0.0315906
-0.0192046
-0.121706
0.125362
-0.0157678
-0.00837328
0.0211488
-0.243354
-0.0552017
-0.0186779
0.0975564
-0.16006
-0.0756876
0.00425009
0.0183751
0.0216524
-0.134927
-0.105002
-0.213475
-0.26159
0.0319922
-0.0242085
0.225606
-0.0178167
-0.0207407
-0.0193352
-0.0276751
-0.0011951
-0.0183569
-0.0796083
-0.04289
-0.0161676
0.00467944
0.0215162
-0.0044618
-0.0360544
0.0161162
-0.0172012
0.0289255
-0.0156093
-0.0428169
-0.020571
0.264374
-0.000740577
0.031897
-0.00838267
-0.0136856
-0.0153154
0.0182326
-0.00484787
0.0207323
0.0245458
-0.0248508
-0.0253598
-0.116879
-0.254531
0.0352844
-0.00950939
-0.023424
-0.0435812
0.0103884
0.0045964
-0.00311583
-0.162564
0.0375996
-0.0828818
0.00317176
-0.114539
-0.00644916
0.0159766
0.0348467
-0.0398441
0.0295108
0.0041611
-0.0530023
-0.00976979
-0.018983
-0.0506997
-0.0575024
0.027494
-0.104296
-0.267086
-0.0437484
0.0303059
-0.0127994
0.0163325
-0.0135341
0.0366892
0.0330877
-0.019986
-0.0191312
-0.013379
-0.0244307
0.0313637
0.00102258
-0.0133484
0.0251822
-0.245132
-0.157615
-0.0231358
0.0149014
0.0394772
-0.0209075
-0.0295472
0.0278558
-0.10292
0.180845
-0.0246899
0.037411
-0.270833
-0.02014
-0.164673
0.0371144
0.106166
0.00389071
-0.00795682
0.0720009
-0.00897051
0.0763455
-0.0117809
0.111892
-0.0614847
-0.0181427
0.0088558
-0.082964
-0.242975
0.0215972
-0.0220527
-0.0574871
-0.0305533
0.075688
-0.00965894
0.00333657
-0.0517769
0.0142653
-0.0516133
0.0171215
-0.00136614
-0.0145473
-0.0389466
-0.0674886
0.0449266
0.00975103
0.00490227
0.0304113
0.165279
-0.165404
-0.0479954
-0.137332
-0.0135186
-0.0809078
0.0408767
-0.0145994
0.0185603
-0.0126276
0.00148438
0.020361
0.0447932
-0.0212558
-0.0820275
0.0138001
0.100811
-0.0477239
-0.109109
0.0424557
-0.0158815
0.01835
-0.0161463
-0.0209675
-0.0330219
-0.0215965
0.0239585
0.0519387
-0.2091
-0.0138356
0.0278704
-0.019435
0.0450505
0.00753703
0.037136
0.0308222
-0.0164901
0.0106589
0.0503489
-0.00276266
-0.013334
0.0395953
-0.0534328
-0.0137945
0.0150834
0.0391534
-0.0496821
-0.0473363
-0.243203
-0.021392
0.0214256
0.0318267
0.0203446
-0.0188
0.124172
-0.0695119
-0.03715
0.00419864
-0.0227912
-0.0165407
0.020634
0.0249619
0.0214524
-0.00282882
-0.0431492
0.0127507
0.00859581
-0.100895
-0.0316238
0.0974967
-0.004715
-0.0138009
-0.29727
-0.0268004
0.00795791
-0.0261443
-0.0181467
-0.0781339
-0.0115138
-0.10346
-0.0184732
-0.307465
0.0354375
0.00827338
-0.124171
0.0174733
-0.113731
-0.0120191
0.0246081
-0.115323
-0.0207947
0.263095
-0.0190605
-0.11909
0.0280872
-0.0186794
0.0190925
0.0458957
-0.0184226
-0.00909365
0.0321695
-0.297421
-0.0828416
-0.0209232
-0.0219097
0.0157904
-0.00668062
-0.197215
0.00431815
-0.0350792
-0.0123677
0.0171397
0.00724517
0.0349203
0.0460053
-0.0106173
-0.0229915
-0.20869
-0.016475
0.0168525
-0.0453669
0.111026
0.00480987
-0.000571857
-0.0527259
-0.0221973
-0.00743059
-0.0706782
0.0178966
0.0257979
-0.0523167
-0.0167389
-0.0188339
-0.101942
-0.017585
-0.0120821
0.0466617
-0.0172429
0.0278851
-0.28214
-0.0383189
-0.00401615
-0.0203136
-0.0206077
0.0364661
0.0272865
0.00189173
-0.0147013
0.0182894
0.0396578
0.0153831
-0.00360184
0.0115501
0.0101989
-0.302263
0.0150778
-0.00386289
-0.0190806
0.0423433
-0.125639
0.0227348
0.035162
0.0094684
0.0474751
0.167677
0.0255349
0.0204403
-0.0164944
-0.0583316
0.0266601
0.00139362
-0.047551
-0.0170868
0.029873
-0.00656583
0.000273169
-0.0182833
0.0083364
-0.0682838
-0.0551899
-0.0251728
-0.148718
-0.125973
-0.00353021
-0.20598
0.00418457
-0.0191908
-0.0361838
-0.0201836
0.0365005
0.0446448
-0.0538027
0.0596606
-0.00907473
0.0257059
-0.0258206
-0.0126555
-0.271468
-0.0954535
0.0331276
-0.0167834
0.0244526
0.0144762
-0.0190092
-0.219911
0.0613802
-0.143252
-0.020633
0.0380404
-0.0225489
0.0282511
0.0231681
0.0465558
0.0175362
0.0207449
-0.13103
0.0355042
-0.0492343
-0.0141935
-0.303597
0.0314356
-0.054191
0.00410797
0.173362
-0.0202228
-0.0776641
-0.0339106
-0.0771037
-0.0303819
-0.0177252
0.0299932
-0.021725
-0.0567926
0.101697
0.0120551
0.0075947
-0.210155
-0.0204998
-0.0532874
-0.000378158
0.0179236
-0.113737
-0.0198189
-0.0190709
-0.0152065
-0.0310403
-0.0320733
-0.209433
0.00177214
0.0242376
-0.00740401
-0.0359867
-0.114007
-0.025271
0.0353086
0.00550065
-0.020772
0.00770456
-0.0189868
-0.0155665
-0.0206274
0.00469013
-0.0216677
0.0261808
-0.194809
-0.0036213
0.00453994
0.114637
-0.10047
-0.0172168
-0.0768328
0.0234542
-0.012875
0.136619
0.0114523
-0.0062796
-0.0208049
-0.120925
0.0673674
0.00192854
-0.0211264
-0.0300586
-0.0238898
-0.0156725
0.0216119
-0.0740593
-0.00869257
-0.0117617
-0.0082978
0.0329472
0.060302
0.0350386
0.0310537
-0.231003
0.0375211
-0.00819384
-0.208018
-0.00960818
-0.0278534
-0.0103614
0.0338183
-0.0488084
0.0215393
-0.200528
0.10331
-0.0277324
0.0264748
0.0343173
-0.0243145
-0.0264476
-0.0515173
-0.0270705
-0.0118137
0.00460182
0.0260128
0.0526936
-0.0163068
-0.0213587
-0.208737
0.0343524
-0.0125292
-0.0396551
-0.0669169
0.0085338
-0.0107652
0.0196469
-0.00892542
-0.124783
-0.0547918
0.00453655
-0.0568046
-0.183718
-0.0209279
-0.0540646
0.0159233
0.0326307
-0.16234
0.00971607
-0.0215694
0.0301279
-0.0209881
-0.0213504
0.0356338
-0.26827
0.000698077
-0.013454
0.0121355
0.055078
0.00488449
-0.0171636
-0.0200055
0.00846827
-0.134844
-0.108145
0.0668431
-0.0130841
0.0268916
-0.206324
-0.0154517
-0.101103
-0.0188221
0.0356596
-0.0147347
-0.136844
-0.0162315
-0.0167579
-0.017582
0.106589
-0.00756352
-0.115656
-0.0188222
-0.21802
-0.0141009
0.192593
-0.013205
-0.0173638
-0.00901974
0.0245493
-0.00778614
-0.00704925
-0.138291
-0.0327702
0.00539794
-0.0168239
-0.0373098
0.0384218
-0.086601
0.0048468
0.037022
-0.138246
0.0374135
-0.0271673
-0.0331124
-0.0167503
0.0363911
0.0285463
0.00450553
0.0626842
0.0368351
-0.135637
-0.215634
0.23487
-0.0179197
0.00701437
0.0156536
-0.00324621
0.0305975
0.118895
-0.0303284
-0.228207
-0.041091
0.0693425
-0.0533063
0.000421556
-0.00300191
-0.000955821
-0.201306
-0.0159611
-0.01024
0.0313932
-0.020882
-0.00955652
0.0285254
0.0277922
-0.0121269
-0.28462
-0.0214592
-0.0101554
-0.0260879
-0.0217785
0.052829
-0.0182384
0.0233505
-0.0779461
-0.0534076
-0.020818
-0.19471
-0.253652
0.0352826
0.0320577
0.105883
0.0266437
-0.0513034
-0.0146184
-0.0196421
0.0475927
-0.00902376
-0.0745677
-0.00189236
0.0342613
-0.00898617
0.000640476
-0.133728
0.0183508
0.0333936
-0.00309729
-0.139525
0.0302123
-0.092104
0.0316579
0.0265292
-0.017819
-0.0371312
0.0479898
-0.0161572
-0.0160165
-0.216035
0.0263454
-0.121425
0.0209841
0.0144639
-0.00702027
-0.0385468
0.0107546
-0.0115711
-0.0259997
0.0501247
0.047629
0.00408665
-0.0143572
-0.0503039
-0.0194944
-0.191294
0.0157827
-0.0403305
-0.0228653
0.000941251
0.00524217
-0.106431
-0.00493305
-0.00667802
0.0135026
-0.253103
-0.251195
0.116798
0.0291917
-0.0249561
-0.019514
-0.00414291
0.0124034
-0.0204177
0.0263378
0.0179267
0.0317018
-0.295156
-0.0147568
-0.0158394
-0.307532
-0.0222993
0.0129078
-0.0151782
-0.059156
-0.0186114
0.00802658
-0.00687234
0.035577
-0.0308975
-0.0175841
0.106689
0.00274957
0.0120562
-0.223978
-0.0235923
-0.0243722
-0.134185
-0.0323812
0.0287353
-0.308217
-0.0022821
-0.0371226
0.0206865
-0.00943748
-0.194615
-0.10281
-0.0244503
0.015142
-0.00349845
0.0228533
0.0379221
0.00427432
-0.242043
-0.282139
-0.00759687
0.246434
-0.0393838
-0.0180362
0.031439
-0.164785
-0.018961
-0.299381
-0.0073422
-0.0344147
-0.0705961
0.0280305
0.00909796
-0.0415824
-5.07607e-05
0.0409832
-0.0203005
-0.0159437
0.047287
0.0236483
-0.0388733
-0.0188263
-0.0210324
-0.0138406
-0.0531959
0.00832459
0.00211844
-0.019662
0.00739468
0.0224991
0.017216
-0.0270758
-0.0897446
-0.0099514
-0.0222455
-0.012201
0.0358732
-0.0257872
-0.145996
0.0233106
0.00944382
-0.0764292
0.0820115
-0.0438691
-0.00961756
-0.120375
0.0311223
-0.0027945
0.00466001
-0.0116088
0.014512
-0.0301275
0.0404458
-0.0183545
0.0319926
-0.0106504
0.077072
0.0839081
-0.105792
-0.0112841
-0.0656345
-0.0214006
0.0267455
-0.032444
0.0375377
-0.0758571
0.0210769
0.00529765
-0.052019
-0.0095854
0.0104781
-0.00938131
-0.0093036
-0.0208382
0.0269211
-0.0103009
-0.020982
0.0678568
-0.0164748
-0.0220132
-0.025969
-0.253014
-0.0135195
-0.0217553
0.0403001
-0.00857664
-0.0173777
-0.00876405
-0.0144794
-0.0197219
-0.0158333
0.0577213
-0.126008
-0.0469451
0.0244313
-0.00540106
-0.0166259
-0.0458605
-0.257437
-0.140982
-0.00865313
-0.0205486
-0.0814404
0.0275703
0.0481059
-0.0792364
-0.0327461
-0.0303742
0.0237382
0.0027324
0.0356558
0.0328724
0.0281167
-0.0254586
-0.0107921
0.0264869
-0.028568
0.110172
-0.0200375
-0.0157557
-0.00635495
0.008759
0.0224402
0.0328425
-0.0081551
-0.00999792
-0.246684
0.0043952
0.00951003
-0.0199619
0.00481607
-0.169361
0.000699293
-0.0171099
-0.00697245
0.0100927
-0.0209767
0.0397408
-0.0525984
0.0281746
0.103094
-0.00829564
-0.212321
0.030591
-0.0347309
0.103369
-0.307926
-0.0742925
-0.00363999
0.0815445
-0.118684
-0.0121869
-0.20029
0.0200957
0.0750124
-0.014656
-0.126027
-0.025283
0.125812
-0.0577713
0.0603172
-0.0178569
-0.307686
-0.0520149
-0.0211032
-0.201605
0.0673731
0.0802097
-0.00283749
-0.0109023
-0.0130142
0.0366971
-0.258559
0.0652387
0.0587418
0.0275464
-0.0309436
0.0234716
-0.0531159
0.0361709
-0.0704023
-0.0227686
-0.0265508
0.0406296
0.0521266
-0.0187657
-0.145146
-0.00959438
-0.0772003
0.0176089
-0.133154
-0.0264818
-0.127721
-0.025392
0.0822127
0.031336
-0.0265358
0.021968
-0.0124133
-0.138533
0.0655628
0.0318302
-0.00906283
0.015154
4.05613e-05
-0.0226953
-0.0183855
0.0662881
-0.0208507
-0.0164361
-0.228949
-0.0187114
-0.159427
0.0300606
0.0078967
0.0333472
-0.0211144
0.0338326
0.0217489
0.0117556
0.0347762
0.00906106
-0.0190953
0.0488553
-0.0393764
-0.258667
0.0312331
-0.0365736
0.00714547
-0.0190336
-0.00752136
-0.0664247
-0.0122584
0.0351407
-0.0203098
0.00186198
0.000537685
-0.00761902
-0.0513281
-0.135111
0.00560248
-0.000829261
0.0341272
-0.0153583
-0.0264125
-0.0971891
0.00153672
0.0293976
-0.0101011
-0.244461
-0.124034
0.0399987
-0.0231657
-0.200577
-0.0762185
0.0869054
-0.021712
-0.0315517
-0.000475988
-0.00378171
0.0235301
0.00622572
-0.195717
-0.291989
-0.107396
-0.0314538
-0.017042
-0.0385508
-0.0189839
0.0368921
0.027866
-0.177077
-0.0204328
-0.0292526
-0.0296867
0.0329943
-0.0417498
-0.0312018
-0.0175765
0.0707666
-0.255752
-0.0199301
0.00622951
0.197103
0.073089
0.0119343
0.0260744
-0.00906918
0.0339073
-0.0171084
-0.0386633
0.0821329
-0.00427412
0.0295125
-0.0119062
0.0677147
-0.0604902
-0.124224
-0.249944
0.0114108
-0.0229147
0.0812606
-0.0017837
0.0129419
0.0784075
0.0537971
-0.0735838
0.000222657
-0.162233
0.049155
0.0264037
0.0160148
0.0322421
-0.0194033
-0.0190109
-0.0287795
-0.0205887
0.00741507
0.00607647
-0.0211165
-0.0050974
-0.035093
0.0285088
-0.0198035
-0.0133424
-0.0644146
0.0223399
-0.0237299
0.198855
-0.25313
-0.0316729
-0.0138321
-0.0100158
0.00285531
-0.0565042
0.0163458
0.0333602
-0.0153985
-0.0364243
-0.0493364
-0.248521
0.0223858
0.0158861
-0.0220865
-0.0199457
-0.235649
-0.195359
-0.0789567
-0.0186224
-0.061094
0.0763988
-0.127846
0.0238483
-0.0345599
-0.0262968
-0.0146658
-0.0416416
0.00753106
0.0254665
-0.0351366
0.0483082
-0.0108959
-0.0254578
0.0500397
-0.0264815
-0.00725874
-0.00176916
-0.305548
0.0693408
-0.00251887
-0.0255861
-0.0243609
0.0694515
0.0306331
0.0332319
-0.0187783
0.0664365
-0.055065
-0.00676246
-0.0194932
-0.265741
0.0267096
-0.065827
-0.00135386
-0.0086334
0.0446189
-0.0297982
-0.015887
-0.133227
-0.00961715
0.0223266
0.0199553
0.00451336
0.0462119
0.0291912
-0.023171
-0.0996716
-0.0164673
-0.0211918
-0.0136245
-0.00996078
-0.304603
-0.00832769
0.00139894
0.0302558
-0.0373238
0.080985
-0.010085
-0.027023
0.00632656
-0.12186
-0.00816004
0.0205783
0.00733817
0.0144976
-0.0113918
0.125632
0.0254304
0.0261667
0.0482309
0.0460206
0.0366886
0.00705404
-0.017446
0.00633071
-0.0261671
-0.0207559
0.0806805
-0.0292756
0.014383
0.0372556
-0.0695694
0.0312936
0.0291744
0.0286342
-0.19579
0.0190846
0.127198
-0.0125254
-0.0267465
-0.260471
0.00826939
0.0257163
0.0335015
-0.262794
0.0191952
-0.0290589
-0.171073
-0.305832
-0.16344
-0.0673635
-0.113512
-0.222964
-0.0582847
0.00554303
-0.102281
0.0320331
-0.0237763
-0.256501
-0.0772012
0.0137443
-0.00923756
-0.00249907
-0.175898
0.00755696
0.0031788
-0.00115389
0.0361046
-0.0200803
-0.0185552
0.0328141
-0.0296628
-0.129498
0.0115108
-0.120449
0.00218065
0.0258784
0.00561606
-0.0271034
-0.173478
-0.0322915
-0.0395555
-0.0992783
-0.160206
-0.0800535
-0.223957
-0.299735
-0.180752
-0.219257
0.00457903
-0.0226129
0.0238445
0.0603822
0.0340685
-0.00380069
0.042499
0.0808296
-0.287886
-0.0145906
-0.0190147
-0.0183589
-0.0318609
0.0173991
-0.0200071
0.0663043
-0.0108738
-0.0185519
-0.0289077
-0.129923
0.12241
0.027843
-0.0211515
-0.186216
-0.144176
-0.0101777
-0.138389
-0.0140821
0.12026
0.0353509
-0.0104396
-0.0157051
-0.0327915
-0.0323578
-0.242484
0.027036
-0.158482
-0.295406
-0.251074
-0.018547
0.0301844
-0.00237489
-0.0884441
-0.0211343
0.046265
-0.0111166
0.0346746
0.0111106
0.0666404
0.0606221
-0.0196572
-0.00607298
-0.0987354
0.00797434
0.00442804
0.0323549
-0.0737063
-0.189543
0.0402753
0.0201192
-0.0209302
0.0344953
-0.0237265
-0.0154707
-0.0156424
-0.297098
0.0206465
-0.0217269
-0.102622
-0.0711071
0.00948596
0.0412248
-0.291117
-0.0069041
0.007212
0.00737136
0.0170335
-0.00772022
-0.00988052
0.00700792
0.0470231
-0.0315758
-0.0246933
-0.0119235
-0.01545
-0.019131
-0.0020958
0.161746
-0.00969022
-0.234557
-0.00648384
0.0320811
-0.0187509
-0.0278081
0.0223994
0.0173717
-0.0299883
-0.0387356
0.0230503
-0.0175908
-0.122163
-0.035575
-0.00665833
-0.0086425
-0.00975939
-0.0188931
0.0779588
0.06686
-0.00780091
-0.184337
-0.00461404
-0.0447914
0.00842306
-0.0280365
0.0244223
0.0530922
-0.30604
0.0556244
-0.0409406
0.0819197
-0.0352402
-0.0344411
0.0258237
-0.0708905
-0.020297
-0.0100127
-0.0242092
0.0235706
-0.0414446
-0.283865
-0.00742025
-0.236799
-0.00269713
-0.194092
-0.0920248
-0.0206419
0.0435326
0.0407016
0.120717
0.0136105
-0.123545
-0.014447
-0.0104775
-0.00916823
-0.0745425
-0.0830347
-0.151333
-0.0114975
0.00328802
-0.0131959
-0.0736349
0.0308826
-0.009681
0.00456213
-0.0259886
-0.0722772
-0.0124122
-0.0241387
-0.0396277
0.0273194
-0.0123838
-0.000418874
0.0549982
-0.182883
0.00852667
-0.0711062
0.00522271
-0.0187486
-0.0896907
-0.02548
-0.0413175
0.0148023
0.0126587
-0.0234025
0.0500784
0.0110641
0.0360573
-0.0381348
-0.110644
-0.0258309
-0.0524027
0.0266465
0.0199252
-0.0250515
-0.00927083
-0.122026
-0.0185635
-0.0106891
-0.0257707
0.0331951
-0.0180511
-0.0869506
0.0664323
0.033
0.0395473
-0.07053
-0.0305638
-0.021688
0.069315
0.0381845
-0.014443
0.0239448
-0.00786612
-0.0118326
0.0226835
0.00104725
0.00903659
-0.0419124
-0.0870106
-0.0156906
0.0155934
0.0238632
-0.0162094
0.023995
0.0131046
-0.0204729
0.0869043
-0.0200774
-0.00164975
-0.0317847
-0.0452634
-0.0153464
-0.0226211
-0.148004
-0.0157325
0.0207825
-0.00991739
-0.149127
-0.084778
-0.0217786
-0.0207165
0.0503449
-0.0057801
-0.0254831
-0.00907167
-0.0133839
0.0348376
-0.078442
0.0330565
-0.0392182
-0.0541873
-0.0196414
-0.00798195
-0.193458
-0.301453
0.00370905
0.040034
-0.038886
0.0369105
-0.00315552
-0.027698
-0.0663381
-0.0385433
0.0321161
0.00277309
-0.0648585
-0.0419905
-0.0375348
0.100043
-0.044414
0.0638192
-0.0642309
-0.0672399
-0.130362
-0.131884
-0.0204984
-0.0795868
-0.021626
-0.0241123
-0.16045
-0.018985
-0.0499805
0.0321046
0.0116292
0.181914
0.0365
-0.0350248
-0.173177
-0.0487771
-0.0221323
-0.0399777
-0.0266177
0.0825335
-0.0147196
0.0194036
-0.161371
0.215148
0.0296372
-0.0196771
-0.0156964
0.183066
-0.0649562
-0.0147941
0.104821
0.0302253
-0.0693694
-0.0210295
-0.0202045
-0.0525666
-0.0429112
-0.0234761
-0.0221563
-0.0250303
-0.0756787
-0.20401
-0.0121637
-0.0171621
0.0038477
0.0124759
-0.0319058
-0.0207056
0.0824973
-0.018694
-0.17019
-0.023602
0.0377483
-0.0218565
-2.48762e-05
0.0453062
-0.0182359
-0.134537
0.0275592
-0.00743367
0.0289687
0.0218607
-0.0700141
-0.0200604
-0.0200348
0.0236274
0.0820107
-0.0546918
-0.0206259
0.040101
-0.0288945
-0.0193131
-0.0202534
-0.137824
0.0585232
-0.035681
-0.0715029
-0.0201984
-0.248323
-0.0146905
-0.0210974
-0.0294601
-0.0404612
0.011255
0.0435142
0.000543355
-0.0241111
-0.168193
-0.0224703
0.102578
-0.0683323
0.0345468
0.0110463
0.0322902
-0.0230396
-0.0223448
-0.0353971
0.0594243
0.0526301
-0.00536765
0.0235084
0.00699558
-0.0467193
0.0261048
0.0298901
0.0223255
-0.00752016
-0.005849
-0.019251
-0.0332726
0.0551365
0.00511303
-0.021653
-0.0125181
-0.017547
-0.00643784
-0.230828
-0.0187398
0.0272326
-0.0651902
-0.250994
-0.232006
-0.0706716
-0.272577
-0.0172997
0.0260971
-0.0186612
-0.0246721
-0.00861644
-0.0137111
0.017939
-0.0131028
0.0897638
-0.00740154
-0.0199941
-0.0188406
-0.0396111
-0.031957
0.0356208
-0.278174
-0.0990148
-0.0128564
-0.0610459
-0.228474
0.0328982
-0.0436164
-0.0427807
0.000495584
0.0210272
-0.0154823
0.00577407
0.0374947
0.0691199
-0.161401
-0.00648374
0.0151316
-0.0221596
0.0727903
-0.00925574
-0.120279
0.0371461
0.0108426
-0.00981131
-0.136518
-0.0663912
0.00565578
0.0128961
0.00918645
-0.0567383
-0.0239447
-0.0221698
-0.00116341
-0.0182889
-0.135435
-0.0385166
0.0131169
-0.0245795
-0.0376383
-0.00159462
0.0971183
0.0357619
0.0507879
-0.0327057
-0.0491202
-0.042955
-0.0518596
-0.0216943
-0.0119048
0.187205
-0.0182274
-0.0189819
0.00244646
-0.112717
-0.0202924
-0.0165097
-0.026719
-0.0139671
-0.0206
-0.248347
-0.0224809
0.00510825
0.0431771
-0.019796
-0.0594499
0.0921241
-0.0563211
0.10189
0.0147384
0.07135
0.00927959
0.030545
0.0131641
-0.0196423
-0.0790448
-0.0334654
-0.0158929
-0.00891052
-0.0167453
0.0178119
0.0487226
-0.055611
-0.014898
0.104009
-0.0099723
0.0494964
0.171103
0.0229354
0.0338566
-0.0300604
-0.0159818
-0.00877477
-0.043311
-0.139495
-0.0311983
-0.0167143
0.00762743
-0.0362924
0.0317238
-0.294457
-0.0174318
-0.0138813
0.0515659
-0.0407579
-0.0340272
-0.0188923
-0.00876675
0.00571299
0.000890238
-0.0177868
-0.0198281
-0.0163476
0.0497449
-0.0426616
-0.0263233
-0.0166692
-0.171328
-0.195979
-0.0196773
0.00146412
-0.239221
-0.0132624
-0.0243972
0.0385588
-0.0238961
-0.0197937
-0.0349216
-0.0139565
-0.00537245
-0.0215862
-0.0224666
0.023164
-0.00715866
-0.0232653
-0.0183799
-0.166791
-0.209364
0.0363494
0.0133956
-0.0179348
-0.164765
0.00803716
-0.0316848
-0.0187742
0.0224128
-0.0464167
0.237733
-0.011554
-0.299601
0.038483
-0.136188
-0.0217178
-0.0208948
0.0130097
-0.00423241
-0.01999
0.0617433
0.0587873
-0.0201218
-0.0291168
0.0140147
-0.0498775
-0.0204821
-0.00883733
0.0232068
-0.261945
0.0270933
0.0602225
-0.0200097
0.0187716
-0.0150005
-0.114952
0.00532622
-0.0258951
0.0493681
-0.0085037
0.0251289
0.0273721
-0.02311
-0.0242888
0.0306943
-0.0148229
-0.0903136
0.112216
-0.0319724
-0.0230306
-0.00208528
-0.0116822
0.0185694
0.0575095
0.0218748
-0.00448128
-0.0210818
-0.0232871
0.0311346
0.0465078
0.0386239
-0.116547
0.0326588
0.0723045
-0.145527
-0.0288551
-0.2956
-0.0203153
0.0126195
0.0424931
-0.293686
0.0290503
0.0438374
-0.139861
-0.0210655
-0.0312043
0.0327695
0.0131631
0.00417553
-0.0101058
-0.00850553
-0.0393446
0.0221235
-0.0245611
-0.0213247
-0.0178801
0.0161664
0.0266532
-0.00942481
-0.00959223
0.00155645
-0.168479
-0.239752
0.00973862
0.00770229
0.029206
-0.00822978
0.0629313
0.0710476
-0.00740447
-0.0111113
0.0256117
0.147879
-0.00346371
-0.125916
-0.0175204
0.0262625
-0.129782
-0.0199828
-0.0406397
0.0269337
-0.216894
-0.00935054
-0.0952646
-0.00833189
-0.18526
0.00562648
-0.0103051
0.0399529
0.0315233
-0.0128965
0.0438139
-0.0596312
0.0658467
-0.267386
0.0425846
-0.0188402
-0.18483
0.0211777
0.0318994
-0.0595946
-0.0135885
-0.0173057
0.0287511
-0.0199083
-0.116344
-0.0262123
0.0279838
-0.306444
-0.0121636
-0.028644
-0.0135215
0.0603724
-0.107894
0.022928
-0.0220563
-0.10028
-0.0154279
0.0268471
0.0432982
0.0351084
-0.0178395
-0.148069
0.0253192
0.0442081
0.0150093
-0.167533
-0.0213771
-0.038163
-0.218656
-0.129164
0.015223
0.056733
0.0297702
-0.0239249
0.0208901
-0.00926085
-0.100905
-0.00677568
-0.0956768
-0.0463045
-0.0174734
-0.043189
0.0262503
0.0184643
-0.0134668
-0.0128291
0.0159728
-0.011628
-0.0161698
-0.125637
0.047309
-0.0699941
0.0723415
0.0384288
-0.035861
-0.128943
0.028432
0.0148601
-0.00315915
-0.00689145
-0.151183
0.0055851
0.0238837
0.0771926
0.0425273
0.101928
0.0948225
0.0448365
-0.0609431
-0.0210397
-0.0194483
0.0337441
-0.257843
0.0172803
0.0328567
0.0402036
-0.307859
-0.0828183
-0.00901684
0.0378577
-0.00776502
-0.0284512
-0.100263
0.037762
-0.291616
-0.0578946
0.166081
0.0176581
0.0545227
0.0324165
0.156081
0.041384
-0.0628134
-0.0220888
0.03108
0.0517324
0.125217
-0.284382
-0.0126534
0.0917183
0.0203513
0.0081688
0.00396279
-0.0964798
-0.015745
0.0809168
0.113514
0.0243831
0.0444046
0.0282958
-0.0453496
0.0392056
-0.12803
0.0137641
-0.0987204
-0.0141037
-0.0414285
-0.0205442
-0.100684
0.0212525
-0.027946
-0.0451185
-0.03253
0.063679
0.0365597
0.0399782
0.0254616
0.0524567
0.0185989
0.020305
-0.0710708
0.002238
0.152921
-0.0185085
0.0553328
0.12542
-0.120196
0.0296461
-0.296775
-0.0533374
-0.0248636
0.0276396
0.00482524
-0.130976
0.0242164
-0.0178647
0.00576624
0.0338433
0.0124178
-0.183021
-0.235221
-0.0137352
-0.000404045
-0.166216
-0.00856013
-0.0237471
-0.017423
0.00621207
-0.00435701
0.00638018
0.0094503
-0.0237686
-0.00975669
-0.0625045
-0.0163536
0.0870626
-0.0210866
0.0240142
-0.0194752
0.0315484
0.00169072
0.0658535
-0.0503851
-0.139903
-0.0850611
0.0437485
-0.233068
-0.0184451
-0.0161691
-0.020436
-0.256106
-0.237388
-0.0760028
-0.127612
-0.275864
-0.128428
-0.014906
-0.291898
0.0122591
-0.0211585
-0.0211457
-0.210744
0.0267155
-0.0145649
-0.287564
0.0296299
-0.0152217
-0.000348473
0.00371484
-0.0286611
0.0190738
-0.0376558
-0.232924
0.00228782
-0.0100504
0.0202858
-0.215028
0.031308
0.0324968
-0.0224235
-0.137754
-0.301089
0.0208909
-0.122355
-0.0328918
-0.0163974
-0.0120107
0.0105024
0.0116314
0.0194765
-0.00885779
-0.209044
-0.303021
-0.0368221
-0.069194
-0.0418165
0.0157478
-0.017199
-0.1163
-0.018155
0.00868423
0.0554496
0.0394228
-0.0397295
-0.111225
-0.0290122
-0.00889221
0.0341967
0.0196215
-0.0205298
0.0684573
-0.0801636
-0.0135525
-0.0299089
0.0103861
-0.0106783
-0.122248
-0.181956
-0.288406
0.0209453
-0.307072
-0.0106311
-0.00121669
-0.0222391
-0.0417104
-0.122571
-0.0364096
-0.00713577
-0.307157
-0.0143583
-0.138362
-0.0125734
-0.0453017
0.0159608
-0.0700935
0.00858821
-0.006711
-0.00900598
-0.0507189
-0.131613
-0.0155213
-0.0382132
-0.0556166
-0.0126177
0.253216
-0.145792
0.0580436
-0.222293
0.013286
0.00866706
0.0254897
-0.0983234
-0.172454
-0.0384288
-0.0243512
-0.0552497
0.0266594
-0.0184136
-0.106685
-0.0161462
-0.140006
-0.199377
0.0308543
-0.0205355
0.0105219
0.0222896
-0.0126631
-0.110292
-0.0307157
-0.0935339
-0.0138411
-0.253725
-0.212977
0.0361353
0.0117969
-0.0159773
-0.00723275
-0.2519
-0.0362451
0.209429
-0.0446808
-0.0604094
-0.00918334
-0.22555
0.04175
0.130961
0.00552886
0.12533
0.0310548
-0.0258408
0.0326034
0.0427018
0.0255975
0.0335929
-0.0108657
-0.0200339
0.056801
0.1214
0.147087
0.0277213
-0.00851549
-0.0123688
0.0272123
-0.292072
0.0318859
-0.0228717
-0.00793254
-0.293164
-0.15795
0.0356292
0.0251956
-0.0128741
-0.237863
-0.111341
-0.275135
0.0400871
-0.197434
-0.260491
-0.025557
0.0324148
-0.0237575
-0.0253729
-0.15552
0.0838425
-0.307575
0.0567662
-0.0137878
-0.0182584
-0.305519
-0.0148082
0.0807519
-0.00893875
-0.0127557
0.00101833
-0.284763
-0.0273858
0.0415873
-0.0264165
-0.0648216
-0.182718
-0.0157765
-0.0334139
-0.220099
-0.0204829
-0.0226632
-0.0130053
-0.0192107
-0.306578
-0.0159721
-0.00977449
-0.0764951
-0.122338
0.0316498
-0.0929933
-0.0357086
-0.0214896
0.0306143
0.012949
0.00847997
-0.0115764
-0.00808215
-0.163021
-0.0381836