/*--------------------------------*- C++ -*----------------------------------*\
| =========                 |                                                 |
| \\      /  F ield         | OpenFOAM: The Open Source CFD Toolbox           |
|  \\    /   O peration     | Version:  v2012                                 |
|   \\  /    A nd           | Website:  www.openfoam.com                      |
|    \\/     M anipulation  |                                                 |
\*---------------------------------------------------------------------------*/
FoamFile
{
    version     2.0;
    format      ascii;
    class       surfaceScalarField;
    location    "300";
    object      phi;
}
// * * * * * * * * * * * * * * * * * * * * * * * * * * * * * * * * * * * * * //

dimensions      [0 3 -1 0 0 0 0];
oriented        oriented;


internalField   nonuniform List<scalar> 
21991
(
0.0328611
-0.044608
0.0117469
0.235203
-0.476231
0.241028
0.124568
-0.0671359
-0.057432
0.144087
-0.15912
0.0150328
-0.0580981
0.163199
-0.105101
0.134599
-0.0606076
-0.0739918
0.215942
-0.0243867
-0.191555
-0.266054
0.0205242
0.24553
-0.100303
0.0393912
0.0609123
0.356268
-0.664485
0.308217
-0.0447965
0.102111
-0.0573148
0.106067
-0.106574
0.00050695
0.354585
-0.207503
-0.147081
0.0410711
-0.155454
0.114383
0.0518614
0.0531031
-0.104965
-0.00403856
0.000431688
0.00360687
0.0521956
-0.110294
-0.161089
0.175888
-0.0147991
0.0187059
-0.0187059
-0.133272
0.0876462
0.0456254
0.418805
0.17821
0.0214017
0.147477
-0.168879
-0.0583168
-0.0800789
0.138396
-0.314738
0.224354
0.0903834
0.00143816
-0.000893551
-0.000544613
-0.243924
-0.0708134
-0.00204504
-0.106749
0.108794
-0.166236
0.0878915
0.0783444
0.0545926
-0.0440737
-0.0105189
0.293053
-0.132809
-0.160244
0.170927
0.20081
-0.371737
-0.146393
0.155238
-0.00884532
-0.0981596
-0.035112
-0.137148
0.14492
-0.00777198
0.0515748
-0.0915959
0.0400211
0.0277697
0.188172
-0.01441
0.0726241
-0.0582141
-0.573525
0.363221
0.210304
-0.0458848
-0.0185041
0.0643889
-0.0940493
-0.0288721
0.122921
0.0484172
0.0761507
0.0920625
-0.0404877
-0.0555035
0.0301954
0.0253081
-0.154114
-0.181361
0.335475
0.0494799
0.11372
0.12242
0.108414
-0.230833
-0.0451544
0.0836089
-0.0384544
0.266582
-0.223624
-0.0429581
0.16678
-0.145378
0.099373
-0.0594619
-0.0399111
0.32623
-0.20482
-0.12141
0.516191
-0.636434
0.120244
-0.246877
-0.202365
0.449241
-0.205571
0.195589
0.00998162
-0.046
0.100333
-0.0543328
0.012843
0.04732
-0.060163
-0.0861308
0.0529305
0.0332003
-0.04068
0.0587166
-0.0180366
-0.520882
0.0629711
0.457911
-0.0661864
0.188606
0.0303117
-0.0257434
-0.00456827
0.118718
0.207512
-0.366144
0.0989384
0.267205
0.0588655
-0.0460225
-0.19367
-0.172474
0.171066
-0.405355
0.234289
-0.0231532
0.441958
0.231598
-0.0435275
-0.188071
-0.738754
0.449147
0.289607
-0.0359069
0.033915
0.00199188
-0.195228
0.301432
-0.106204
-0.128074
0.126028
-0.0444995
0.0983479
-0.0538484
-0.0106958
-0.0192608
0.0299566
-0.312134
0.0787129
0.233421
-0.00434589
-0.031561
-0.00233696
0.000658575
0.00167839
-0.239243
0.474446
-0.124646
0.0950938
0.029552
-0.176344
-0.262061
0.438405
-0.00266672
-0.00255331
0.00522003
0.427695
-0.256629
0.248689
0.170978
-0.419668
-0.225288
-0.0868465
-0.47261
-0.0830245
0.555634
0.0018711
-0.0826003
0.0807292
0.545479
-0.0731548
-0.472324
-0.175847
0.235265
-0.0594179
0.213439
0.230779
-0.444218
-0.0729575
-0.0932784
0.0387931
-0.162651
0.123858
-0.175935
-0.00336829
0.179303
-0.121584
0.0550359
0.0665478
-0.323445
0.141523
0.181922
0.0803148
0.0190582
-0.00218575
-0.000151215
0.0139126
-0.146831
0.000438595
-0.29397
0.161563
0.132407
-0.0962546
0.0514582
0.0134696
0.045247
0.0126663
-0.0479929
0.0353266
0.16321
-0.63582
0.0870261
-0.16488
0.0778536
0.0497858
-0.076737
0.0269511
0.0395802
-0.026914
0.00896143
0.0971052
-0.0991873
0.0531872
-0.371865
0.0233984
0.348467
-0.160109
0.331035
0.122335
-0.395658
0.273323
-0.0255439
0.0418065
-0.0162626
-0.0829798
-0.0386039
0.00933211
-0.00995907
-0.0377699
0.012226
0.00482017
-0.00748689
-0.066861
-0.00443013
0.0712912
-0.0828744
0.121667
-0.504235
0.564846
-0.0606104
0.00619958
-0.167289
0.00490083
-0.003922
-0.000978831
0.442715
-0.229276
-0.126054
0.236388
-0.110335
0.129354
0.00963775
-0.138991
9.88786e-05
-0.520981
-0.35336
-0.220165
-0.0347131
-0.0473233
0.0820364
0.128097
-0.0690015
-0.0584263
0.127428
-0.166514
0.0052007
0.161313
-0.154346
-0.0121679
0.0646221
-0.121438
0.0568162
-0.0408858
0.0356059
0.00527989
-0.101677
0.0758658
0.0258109
-0.0334495
-0.0334075
0.066857
0.144379
-0.0150252
0.153532
-0.307646
-0.06496
0.0748158
-0.00985588
-0.14573
-0.108184
0.253914
-0.167082
0.029934
0.267548
0.177166
-0.444715
0.00361179
0.000420009
-0.00403179
0.545416
-0.0292257
0.000113236
0.0119498
-0.00375858
-0.00819117
-0.330177
-0.408577
0.0852638
-0.035478
-0.373592
0.00172643
0.0272178
-0.0777578
0.05054
-0.0222603
0.0222603
-0.0393298
-0.0609736
-0.00569638
0.00569638
-0.127104
0.0330545
-0.0285454
-0.0831288
0.111674
0.444148
-0.195459
0.0506106
-0.037141
0.0715479
-0.123921
0.0523731
0.113959
-0.0541982
-0.0597613
-0.0148749
0.0145113
0.000363602
-0.0432318
0.0704496
-0.0648556
-0.334332
0.399187
0.613736
-0.0965473
-0.517189
-0.0320826
-0.00880328
0.00143816
-0.198401
0.19064
0.00776176
0.0424992
0.0081114
0.26078
0.00580194
0.00785654
-0.029743
0.0218864
-0.322
0.0857247
0.236276
-0.323709
0.0576549
-0.00872155
-0.0536367
0.0623583
-0.209836
0.20367
0.00616594
0.0991046
-0.0996669
0.000562316
0.107044
-0.0551825
-0.0686725
0.035223
-0.0602245
-0.0414522
-0.156182
0.0808819
0.0752999
0.140398
-0.152324
0.0119266
0.612954
-0.277801
-0.335153
-0.045646
-0.0404847
0.112228
0.0223715
0.0116778
0.0125631
-0.0242409
-0.105739
-0.102907
0.208646
-0.12424
0.146435
0.00956142
-0.185496
-0.0582069
0.0452871
0.0129198
-0.0258645
-0.0836987
0.109563
-0.11935
0.0934852
0.202111
-0.182332
-0.0197785
0.541732
-0.408183
-0.133549
-0.0600443
0.00454083
-0.0725475
0.0273931
-0.131817
-0.147942
0.279759
0.0824553
-0.0444559
-0.0379994
-0.0799421
0.065532
-0.392024
0.306597
0.0854268
-0.0297588
-0.0182341
0.310223
-0.278634
-0.0315897
0.137169
-0.114908
-0.0222615
-0.0232369
0.00149684
0.02174
-0.00636494
6.67026e-05
0.00629824
0.340663
0.201069
-0.0680637
0.214774
-0.146711
0.121465
-0.045861
-0.0756036
-0.117174
-0.097417
0.214591
-0.0162068
0.0151809
0.00102587
-0.0341799
0.105728
0.0407033
0.0388213
-0.0795246
0.0813538
-0.164228
-0.277617
0.193653
0.0839632
-0.211275
-0.110725
-0.00278516
0.0270851
-0.0242999
0.232167
-0.000568556
-0.392106
0.32725
-0.127563
-0.103209
0.230772
0.0958926
-0.241623
0.0995517
-0.165273
0.322709
-0.157436
0.391801
-0.189067
-0.202733
-0.192827
0.370309
-0.177482
0.0431292
-0.150534
0.107405
-0.108413
0.048828
0.0595845
0.0482759
0.0888934
-0.0559076
-0.153928
-0.100995
0.291589
-0.190595
0.0513178
0.0314899
-0.0828077
0.123275
-0.00341043
-0.119865
0.0536709
0.0128871
-0.0665581
-0.0200572
0.0384695
-0.0184123
0.0277044
0.158975
-0.186679
0.220133
-0.344783
0.12465
-0.224259
0.156196
0.259851
0.131949
0.0239907
0.00297387
-0.0269645
0.0275633
-0.0193475
-0.00821586
0.384711
0.195292
-0.580003
0.0645351
-0.209735
0.1452
0.0870747
-0.025519
-0.0615556
0.0484217
-0.105492
0.0570702
-0.19134
0.00803482
0.183305
0.00229395
-0.00143771
-0.000856236
0.0749274
0.00721806
-0.0821454
-0.130155
-0.163815
-0.374188
-0.210279
0.374646
-0.164366
0.0695337
-0.0676626
-0.131765
0.169351
-0.0375863
-0.0370764
-0.161325
-0.127318
-0.358472
0.198364
-0.0173133
0.0305658
-0.0132525
-0.250645
-0.141379
0.28892
-0.571844
0.282924
0.310032
-0.549276
-0.0176505
-0.0207277
0.0383783
-0.214635
0.097461
0.142624
0.307541
-0.450166
-0.241478
0.147772
0.0937067
0.155975
-0.351204
-0.0372148
-0.328804
0.366019
0.064676
-0.0542944
-0.0103815
0.0199836
0.182127
0.0521831
-0.110609
0.0471507
-0.248944
0.201793
0.0387384
-0.0861105
0.0473721
-0.287449
0.120397
0.167051
-0.150195
0.116015
-0.236401
-0.112882
0.349283
-0.0119569
0.0204827
-0.00852579
-0.0263372
0.0261963
0.000140929
0.0196026
-0.00792482
0.00347089
-0.00886665
0.00539576
-0.58726
-0.508295
0.0593318
0.448963
-0.00611823
0.00973001
-0.050852
0.103955
0.00976773
0.154976
-0.164743
0.000698121
0.0112516
0.093907
-0.0414197
-0.0524873
0.0336653
0.00591496
0.00904954
0.0780251
0.54641
0.0106691
-0.557079
0.0246186
-0.0167621
0.0227033
0.00760838
0.00476268
-0.00863414
0.00387146
-0.0251937
0.0765115
0.0328901
0.0610169
-0.011741
-0.164106
-0.143537
0.00677336
0.136764
0.0568464
-0.065568
-0.36209
0.196817
0.13294
-0.301182
0.168241
0.175181
0.288108
-0.187369
-0.100739
0.0408695
-0.101477
0.028947
0.0757176
-0.104665
-0.0340835
0.0987056
-0.124667
0.10056
0.024107
0.21127
0.111439
-0.0786922
0.121821
-0.241636
0.452989
-0.211354
-0.602071
0.201407
0.400664
-0.121188
0.142411
-0.0212229
0.109767
0.0135083
-0.0946214
-0.0300244
0.100097
-0.205836
0.0308144
-0.0766992
-0.0429055
0.0131467
0.059956
0.0470879
0.0116246
-0.011074
-0.004997
-0.0182399
0.0628206
-0.186255
0.17696
0.00929493
-0.186859
-0.00448136
0.0303177
-0.0479682
-0.20777
0.0802067
0.0158245
0.0488515
-0.11473
0.0661003
0.0486295
0.169507
-0.481472
0.311964
0.0294207
-0.0479248
-0.0592762
0.084822
-0.0255458
0.0102226
-0.0770836
-0.0119649
0.0656358
-0.0160212
0.00406425
-0.162342
0.251313
-0.0889716
0.123749
-0.036103
0.0386964
0.0554369
-0.0941333
-0.508196
0.0575723
0.0426677
-0.10024
-0.0126088
-0.00226608
-0.0943956
-0.070484
0.0843224
-0.124223
0.0399007
-0.0846574
-0.0715243
-0.171793
-0.014462
-0.324007
0.286792
-0.138375
0.339185
-0.409696
-0.192375
0.00206335
-0.217474
0.032377
0.185097
0.0850901
0.0140145
0.0616136
-0.191697
0.130083
0.242222
0.0255046
-0.267727
-0.174261
0.0424958
0.149764
-0.141428
-0.182017
-0.00626783
0.0345771
-0.0283093
0.0151931
-0.00714736
-0.00804575
-0.0239943
-0.0134238
0.0374181
0.106439
-0.0670476
-0.00590303
-0.000461911
-0.009188
0.00845422
0.00073378
-0.129818
-0.11166
0.228055
-0.474932
0.148817
-0.385218
-0.221893
0.00441865
0.0242825
-0.0835587
-0.159254
0.276856
-0.117602
-0.0188802
0.0188802
0.118779
0.242368
-0.361147
0.518711
-0.22979
-0.254752
0.070708
0.184044
0.0381156
0.0559352
-0.0940508
0.0239918
-0.0970828
0.073091
0.112675
-0.0642535
0.012213
0.0122924
-0.0245054
-0.0242871
0.0135913
-0.169201
0.178969
-0.0169095
-0.145742
-0.140316
0.0982041
0.0421123
0.39297
-0.207155
-0.185815
0.184355
-0.195149
0.0107936
-0.405988
0.0183153
0.387672
-0.142323
0.0678413
0.0744813
0.0817775
0.608821
-0.363392
-0.245429
0.015853
-0.0204095
0.00455644
-0.323161
0.262163
-0.135496
-0.126667
0.0155487
0.0484346
-0.0929341
-0.0901536
0.177964
-0.152687
-0.0252772
-0.139695
0.114563
0.0251315
-0.00523344
0.00999613
-0.149508
-0.0107476
0.160256
0.408684
-0.236743
-0.171941
0.0015767
-0.00253932
0.000962628
0.172949
-0.154354
0.498751
-0.344397
-0.000567674
-0.0300903
-0.113447
-0.386509
-0.222375
-0.163069
-0.0425016
0.00183906
-0.00223719
0.000398132
0.0583014
-0.0251642
0.0675586
-0.0423944
-0.0356669
0.119989
-0.0110395
-0.0254533
0.0364928
0.137298
-0.543286
0.109703
-0.0497475
-0.159499
-0.222785
0.382284
-0.0463692
-0.052818
0.0365398
-0.0206868
0.013543
0.125034
-0.138577
-0.0518329
-0.0914824
0.143315
-0.0805902
0.055426
0.188814
0.0116074
0.4409
-0.574668
0.133768
-0.254708
0.153713
-0.00975171
-0.0890838
0.0988355
-0.0487884
0.0314752
0.533808
-0.17754
-0.0937422
0.189849
-0.0961069
0.0871729
0.226982
0.233278
-0.46026
0.164785
-0.153336
-0.0114498
-0.213036
-0.0308882
-0.0119305
0.0447916
-0.0346635
-0.0800664
0.115547
-0.121329
0.0057826
-0.353322
-0.00710195
0.00721518
-0.180317
0.128484
-0.0453335
0.127705
-0.0823712
0.0193224
-0.00710937
-0.116593
0.0219713
0.0305372
-0.155546
0.125009
-0.348219
0.129538
0.218681
-0.228652
0.209012
0.0196402
0.534504
-0.534504
0.0986434
-0.0696964
-0.233741
-0.27467
0.50841
-0.137137
-0.140479
-0.25583
-0.0423701
0.2982
-0.386915
0.145279
0.0341614
-0.0404292
-0.196279
-0.165811
-0.258649
0.110562
0.148087
0.101086
-0.129958
7.55327e-05
0.0151176
0.337663
-0.064356
-0.273307
-0.154508
0.487926
-0.350811
-0.137115
-0.0399587
-0.135935
0.175894
0.00242231
-0.00987534
0.00745303
-0.0315113
-0.0271467
0.0586579
-0.00954896
0.0844763
0.0992256
0.137163
0.0209617
0.0108658
-0.0318275
-0.163763
-0.0313854
-0.282866
0.125119
0.157747
0.115086
0.490645
-0.60573
0.0459088
0.346939
-0.392847
-0.21448
0.343693
-0.129213
0.526428
-0.480519
-0.0197545
-0.0411106
0.060865
-0.180929
0.187581
-0.00665172
0.555986
-0.0915155
0.0878581
0.00365737
0.14783
0.340096
0.0787578
0.0352017
0.0473304
-0.0880453
0.040715
-0.0134658
-0.141988
-0.0371739
0.0947461
0.182137
-0.00417288
-0.0135161
-0.0293894
0.109136
0.0064108
-0.0832355
-0.147173
0.230409
0.547921
0.106631
-0.116383
-0.119536
0.284916
-0.165379
-0.13016
0.331623
-0.201463
0.00195731
0.00737481
0.0116715
0.132415
0.0500834
-0.257586
-0.154373
0.137463
-0.00339496
-0.0128118
-0.00991703
0.0290191
-0.0191021
-0.131507
0.145552
-0.0140449
-0.136741
0.184998
-0.0482567
-0.018082
0.194365
-0.176283
-0.0533767
0.0795871
-0.241929
0.0390943
0.118425
-0.157519
0.00724248
-0.258217
-0.000384434
0.258602
0.298924
0.0387386
0.0881234
0.0788726
-0.166996
-0.0676791
0.106773
0.0334663
-0.0648855
0.0314192
0.136441
-0.132524
-0.003917
0.0394255
0.499559
-0.538984
0.0894482
-0.132643
0.0431943
0.0232651
0.46738
0.11545
-0.37128
-0.0211485
-0.00240923
0.0235577
0.0128715
-0.306659
0.092179
-0.0624946
-0.0493254
0.11182
-0.187941
-0.154213
0.421762
0.133597
-0.0890571
-0.0445395
0.00977005
-0.0313494
0.0215793
-0.289046
-0.0260289
0.315075
0.0597519
-0.30326
0.243508
0.0421614
0.503317
-0.19414
-0.13582
0.32996
-0.0236717
-0.00266551
0.17307
-0.462116
0.175574
-0.258809
-0.077814
0.0406402
0.185168
-0.342305
0.157137
-0.257816
0.224233
0.0335836
0.00225135
0.00499548
-0.00724683
0.454153
-0.2325
-0.221653
-0.0547811
0.0974488
0.143201
-0.448285
0.305085
-0.0229047
-0.0528902
0.0757949
-0.0220967
0.000948191
0.0731471
-0.0396807
0.22855
-0.1814
0.2327
0.239379
-0.472078
-0.151847
0.11618
0.1303
-0.142041
-0.469848
0.168712
0.301135
0.0151357
-0.169238
0.154103
0.305297
-0.538439
0.233142
-0.0297381
0.119186
-0.201116
-0.147103
-0.032733
0.120856
0.12018
-0.0322883
0.135327
-0.229069
-0.00244283
-0.000110486
0.092539
-0.0685472
-0.0493381
0.0295837
-0.0807671
0.142381
-0.277237
0.420438
-0.0759128
-0.0284173
0.10433
0.22533
-0.1101
0.140637
-0.0550006
0.093697
-0.131338
0.0101498
-0.0861663
0.0632617
0.0343612
-0.0133995
0.618897
-0.0051607
-0.0259878
0.0149483
-0.0757486
0.118373
-0.042624
-0.166802
-0.0141268
0.0936956
-0.185178
-0.00199602
-0.0121271
0.0141231
-0.00597392
0.0295402
-0.0235663
-0.450198
0.273854
0.466896
0.0795133
-0.0750024
-0.334693
0.0466773
0.0480581
-0.0947353
0.0563994
0.0650652
0.00278735
-0.00376306
0.000975703
0.00271508
0.336163
-0.276411
-0.0714088
-0.0189907
0.0903995
-0.0347155
0.0649109
0.0854689
-0.0630402
-0.0224288
-0.112168
0.0668345
0.158582
-0.198541
0.0195482
0.141741
-0.161289
-0.347803
0.295299
0.0525037
-0.0606138
0.087335
-0.0267212
-0.023762
0.0180093
0.00575272
-0.16141
0.128677
0.0590676
-0.0760775
0.0170099
-0.30034
0.306505
-0.381508
0.255839
0.0699418
-0.325781
-0.147457
0.161
0.194085
0.24863
0.0498417
-0.0845548
-0.433739
0.279385
0.00145648
0.0172494
-0.0304274
-0.162918
0.133179
0.0740977
-0.0437266
-0.24496
-0.102843
0.15804
0.0103669
-0.278251
0.109049
-0.000920877
-0.017785
0.220313
0.388508
0.254238
0.00160084
0.226217
-0.377795
0.151578
0.0770961
-0.53148
0.454384
-0.0807762
0.123563
-0.0427872
0.0120985
0.00102021
-0.000587239
-0.000432969
-0.00525417
0.00133217
0.459682
0.0153096
0.226912
0.0104901
-0.147231
0.0366656
0.0588329
-0.0954985
-0.0298248
0.109439
-0.0796142
0.0325554
-0.166352
0.133796
-0.356683
0.205908
0.150775
-0.0977928
0.0650568
0.032736
0.145421
-0.205504
0.0600831
-0.0641128
0.0326015
0.130216
0.245636
-0.375853
0.0548359
0.043512
-0.0235855
0.00221244
0.021373
-0.199778
0.393863
0.176639
0.149652
-0.0627876
-0.0868643
0.236429
-0.279573
-0.132868
0.141405
-0.00853666
-0.1542
-0.0997534
0.253954
0.0278036
-0.0305888
0.0406804
-0.107874
0.0671941
-0.0389717
0.079675
-0.371395
0.175116
0.0573067
0.0448046
0.0413271
0.101375
0.0482768
0.348693
0.248322
0.00656781
0.020279
-0.0268468
0.37109
-0.169615
-0.201475
0.0380505
-0.0682099
0.0301594
-0.457178
0.171035
0.286143
0.298997
-0.49745
0.198452
-0.00121413
0.0282992
-0.090661
0.0908976
-0.000236602
0.0753838
-0.0373333
0.0485
-0.119909
-0.0160251
-0.128599
0.144624
0.302583
-0.183804
-0.0389298
0.019669
-0.140562
-0.235679
0.376241
0.0574817
-0.0796066
0.0221249
0.0460483
-0.100247
0.109922
0.0750758
-0.216354
0.488981
-0.272628
0.398011
-0.191819
-0.206192
-0.0119962
-0.116077
-0.13938
0.158928
0.586283
-0.223063
0.0760024
-0.121863
-0.0812061
0.0432906
0.0379154
-0.139019
0.125553
-0.366541
0.342232
-0.000645647
0.00107734
0.0245174
-0.0147474
0.040871
-0.19247
-0.121384
0.313854
0.0616699
0.0719267
0.182087
0.100451
0.16323
-0.263681
-0.0356931
-0.0889743
-0.0174329
0.0174707
-3.77411e-05
0.143445
-0.143273
-0.000172239
-0.00713774
0.0311284
-0.12143
0.032373
-0.0444847
0.0246501
-0.233844
0.114307
-0.0122142
-0.0115478
-0.0370542
0.0945359
-0.0629464
0.376923
-0.313977
-0.0128083
-0.146311
0.0121861
-0.0880989
0.019843
-0.00338598
-0.188053
0.169971
-0.084528
0.117083
0.05091
0.0315453
-0.294812
0.500479
-0.205667
0.136558
-0.137052
0.000493087
-0.149961
-0.371332
0.521293
-0.191249
-0.0384898
0.229739
-0.0560042
0.0127814
-0.0270376
0.0142562
-0.135621
0.0630725
0.0725489
0.317611
-0.359981
0.463978
0.148975
0.162239
0.289475
-0.451714
0.0363251
0.162492
-0.198817
-0.11652
0.0855066
0.0310132
-0.00783969
0.00584367
-0.0705222
-0.0697942
-0.0425872
0.0892644
-0.00240543
-0.0164748
-0.114793
0.124394
-0.0096016
-0.113935
0.151313
-0.037378
0.0306639
-0.0241119
-0.00655194
0.121797
-0.253613
0.00327623
0.16267
0.0309838
-0.0176181
0.384233
-0.366615
0.257959
-0.291026
0.0330672
0.176292
-0.164621
0.0919178
-0.138191
0.0462734
-0.405794
0.332639
-0.0644762
0.158172
0.0627465
0.0672835
-0.13003
-0.0507887
0.11163
-0.0608415
-0.145783
0.031848
0.0558502
-0.0814605
0.0256103
-0.291538
0.143595
0.0865514
-0.0307012
-0.0690644
-0.0261836
0.0952479
-0.123965
0.129858
-0.00589373
-0.0104187
-0.101385
0.111804
0.68429
-0.411642
-0.272648
0.229476
-0.0146987
-0.214778
-0.00989393
-0.018707
-0.0136567
0.0323637
0.291129
-0.167454
-0.123675
-0.092515
0.00185403
0.0221312
0.29548
-0.265558
0.0396175
-0.406158
-0.149627
0.185952
-0.0108127
0.0698803
-0.364459
0.2343
-0.120578
0.0404988
-0.199343
0.330285
-0.130942
0.00750585
0.140413
0.257598
-0.147953
0.147674
0.000279182
-0.174829
-0.103422
-0.430708
0.214354
-0.403023
0.243664
0.159359
0.101377
-0.0606965
0.0204239
0.124496
-0.0550041
-0.0355065
0.0905106
0.0077386
-0.381824
0.318878
0.176664
-0.472484
0.454866
-0.0332671
0.0439718
-0.0107047
-0.145812
0.115722
-0.138254
0.0612563
0.076998
0.0232346
-0.0104532
-0.168782
0.084254
-0.167746
0.178236
-0.0589787
0.021502
0.0374767
0.299592
-0.0733751
-0.406653
0.266092
0.428926
-0.525473
-0.216355
-0.140328
0.0885882
-0.0519226
0.481105
-0.175808
0.183816
0.299812
-0.483628
-0.100367
0.0401426
0.0340547
0.0621573
-0.096212
0.0167151
0.130163
-0.146878
0.297499
-0.0264662
-0.0181418
0.00471102
-0.00241707
0.105351
0.0074902
-0.112841
-0.184233
0.00631756
0.177916
-0.17617
0.0228342
-0.0471598
-0.0195747
0.0667344
-0.00476941
-0.110023
0.00701627
0.0434141
-0.0504304
-0.0430605
0.0686277
0.0378111
0.00638001
-0.00760121
0.201979
-0.056558
0.116167
-0.145614
0.0294462
0.0483572
-0.0981275
0.0497703
0.60769
-0.0169035
-0.590786
-0.0414187
0.240496
-0.174039
-0.0664572
0.45343
-0.376334
-0.0012147
-0.012764
0.0139787
-0.136292
0.124296
0.0377693
-0.00757664
0.0353803
-0.116453
0.0621661
0.0542871
-0.195737
-0.175658
0.00853939
-0.127695
0.437728
0.198379
-0.183244
0.183916
-0.195729
0.0118128
-0.0574486
-0.171203
-0.271148
-0.224803
0.495951
-0.00293211
0.0014944
0.0120354
0.00908266
-0.112219
0.103136
-0.0626169
0.0864351
-0.0238181
-0.0190635
0.166998
-0.147935
-0.00409726
-0.0194882
-0.0466684
-0.044847
0.134212
-0.0180448
-0.0216274
0.0117103
0.215967
0.0245292
0.457728
-0.290453
-0.155123
0.445576
0.435394
-0.202117
0.269506
-0.202037
-0.0674685
-0.00521165
-0.0170486
0.159134
-0.175099
0.0159647
-0.000866131
0.0439095
-0.0912328
0.523121
0.0113825
-0.0232958
0.1215
0.0649391
-0.139861
0.0749218
-0.30986
0.602282
-0.292422
-0.284558
0.0933094
0.0124552
-0.00499826
0.140716
-0.273525
-0.0513683
-0.0868859
0.0911232
-0.250377
-0.289699
-0.111272
0.400971
0.126275
0.0102833
0.0540894
0.1415
-0.0176441
-0.0107107
0.0283549
-0.0458898
0.102372
-0.0564825
-0.0605342
0.0133744
0.0530996
-0.0460834
-0.100234
-0.0455492
-0.0812138
0.00447679
0.260573
0.26923
-0.529803
0.0130656
-0.0535266
0.0404611
-0.109257
0.0603611
0.0488954
-0.28853
0.171544
-0.019698
-0.151846
0.00606136
-0.000364978
0.158815
-0.351284
0.121631
-0.0812629
-0.0403678
0.25224
-0.369359
0.117119
0.00905328
0.013207
0.0788957
0.042735
0.112631
0.149532
0.146701
0.356703
-0.13657
-0.671591
0.226077
0.445514
-0.170033
-0.0142002
0.037082
-0.0298912
-0.00719079
0.359279
-0.243665
-0.115613
0.0494476
0.206957
-0.256404
-0.134662
0.0175255
0.117137
-0.216148
0.0806521
0.00193055
-0.000921907
-0.00100864
-0.0084213
0.0915588
-0.0831375
0.29286
0.134104
-0.426964
0.503404
0.0419741
-0.300191
-0.105717
-0.0108024
-0.189815
0.323183
-0.133369
-0.610531
0.424813
0.185717
-0.0551761
0.0843531
-0.029177
0.0797534
-0.0409321
-0.13588
0.42758
-0.291699
-0.159004
0.401372
0.0419091
0.0984888
-0.0272869
0.00154347
0.223823
0.248702
-0.472525
0.287371
-0.18875
-0.0986214
0.0974496
0.0636486
-0.0942858
0.0306372
0.474839
-0.291023
8.29982e-05
0.00175606
0.00471091
-0.152664
-0.105118
0.0243423
-0.0494356
-0.0540605
-0.0265588
0.0806192
0.255356
-0.0342283
-0.0630581
0.0972864
-0.203241
-0.337073
-0.0102155
-0.0334938
0.0437093
-0.159137
0.00479135
0.00884958
0.144633
-0.153483
0.22168
-0.435035
0.213355
0.0414451
0.216514
0.00275259
-0.00364614
-0.0365994
-0.0216075
0.150496
-0.440195
0.114651
-0.0705308
-0.0441201
0.0236568
-0.017089
0.00445495
-0.000848072
-0.0748474
-0.046591
0.436295
0.0111884
0.0115149
0.37234
0.224675
0.294097
0.0651818
-0.0131463
-0.121516
-0.0377758
-0.043002
0.0807778
-0.254418
0.0674884
0.18693
0.0606727
0.0396407
-0.100313
0.101592
-0.0756579
-0.0259346
-0.12644
0.239071
0.165333
0.2625
-0.61586
-0.07956
-0.178256
0.0125112
0.256995
-0.551407
-0.427647
-0.182884
-0.0973753
0.0869835
0.0103919
-0.21139
0.450769
-0.131901
0.0662481
0.169017
0.0145997
0.0224823
0.313928
0.283087
0.0352976
-0.246887
-0.14081
0.387697
-0.0310861
-0.0144978
-0.135697
-0.0887644
-0.0167275
0.0215875
-0.0294567
-0.110238
0.156396
-0.161428
0.0050317
0.00546994
0.145321
-0.150791
0.585122
0.16308
0.0929152
0.13514
-0.319537
-0.352054
-0.175481
0.483022
0.00300125
0.0059816
-0.00898284
0.0282427
-0.100279
0.072036
-0.000610866
0.338582
-0.120483
-0.218099
-0.486057
-0.10473
0.0472089
-0.0640463
-0.031103
0.0951493
0.0362425
-0.046458
-0.017867
-0.000352751
0.0182197
-0.0575021
0.0915568
-0.135256
0.0620076
0.0732481
0.000248029
0.239259
-0.398263
-0.479717
-0.184767
-0.00107076
0.0137169
-0.0126462
-0.147266
-0.0118717
-0.0637931
-0.0343344
0.0803606
0.0342903
0.238207
0.197187
0.404955
0.140461
-0.11071
0.0816142
0.029096
0.037284
-0.327737
0.0262559
-0.0338326
0.187848
-0.0368981
-0.15095
0.0271445
0.0744479
0.378449
-0.144676
-0.233772
0.022205
-0.176996
0.514326
-0.337331
0.0623874
0.0254707
-0.0331748
-0.182583
-0.144673
0.327256
0.0223442
-0.0675978
0.0452536
-0.108419
0.0625291
-0.0175568
-0.063657
0.00381609
-0.00140822
-0.00240787
-0.0806608
0.0722395
0.00429323
0.0409939
0.0340405
-0.15828
0.061734
0.0235102
-0.0226412
-0.000868992
0.122609
-0.113526
0.0955877
-0.0401932
-0.0553945
-0.267797
0.0893552
0.178442
0.348463
-0.0962236
-0.062293
-0.00301833
-0.00616967
-0.118612
0.0915235
0.0270883
0.17191
0.0159378
0.177738
-0.361319
0.183581
-0.0864809
-0.0291233
0.115604
0.259665
-0.159214
-0.0299671
0.0472486
-0.0172816
-0.0219728
-0.000260449
0.0222333
0.156227
-0.0788425
-0.175576
0.194415
-0.363519
0.169103
0.136876
-0.152901
0.039094
-0.0940981
0.129678
-0.256118
-0.0192659
-0.00270686
0.0459781
-0.0837539
-0.0283631
-0.011974
0.0403371
0.0890571
0.0311228
-0.15371
-0.129156
-0.511237
0.27246
0.238777
-0.0780449
0.0153175
0.0627275
-0.200057
0.0473916
-0.0898889
0.0424973
0.163492
-0.0134202
-0.150072
-0.0366759
0.125733
-0.386026
0.250145
0.453528
-0.227609
-0.225918
-0.0815956
-0.0370162
0.104259
0.0010924
-0.0271349
-0.0309926
0.0828431
-0.0518505
0.0521165
0.0586092
-0.110726
-0.287958
-0.526123
0.349127
0.212731
0.0167453
-0.0115961
0.0227845
0.059089
-0.123049
0.0639599
-0.0357705
0.0831621
0.482621
-0.234655
-0.247966
0.0143007
0.0193646
0.0421449
0.0507898
-0.0929346
-0.0508888
-0.0722246
0.123113
0.182753
-0.22628
0.193365
0.0478988
-0.241264
-0.10637
0.266277
-0.250967
0.00222906
-0.000298518
0.0148054
-0.198207
0.376626
-0.178419
-0.104166
-0.0382377
0.0957707
-0.0575331
0.00505678
0.171236
0.00888129
0.141657
-0.141187
-0.000469629
0.170003
-0.377158
-0.0393592
0.0963526
-0.0569934
0.194354
-0.281631
0.0872778
0.0975162
-0.107935
0.286251
-0.159216
-0.127035
-0.104176
0.00888253
0.0996075
-0.10849
0.35323
-0.00177375
0.138283
0.00963675
-0.0113006
0.00166387
0.172096
0.211645
-0.383741
-0.301975
0.153702
0.148273
0.352303
-0.107671
-0.244632
-0.0164795
0.0202523
-0.0378964
-0.00725343
-0.159098
-0.0971699
0.046318
0.112893
-0.0564939
-0.251979
-0.0158179
0.0828481
-0.2268
0.143952
0.101315
0.0141558
-0.0111546
0.0479528
0.0606283
-0.108581
-0.00534738
0.0729059
0.468193
-0.239661
-0.228532
0.232188
-0.0772121
0.00931771
-0.00345091
0.00457416
0.2102
-0.00786761
-0.15505
-0.06319
0.00602315
0.0571668
0.150429
0.0130629
-0.167974
-0.0200787
-0.000921896
0.0019421
-0.0541595
-0.033472
0.0876315
-0.0097675
0.0120188
-0.141411
-0.048316
-0.173281
-0.0473164
0.0624396
0.0230293
-0.0053706
0.034156
-0.0287854
0.194374
0.128809
0.0984336
-0.220647
0.122213
-0.00992219
0.0345391
-0.0246169
0.119585
-0.0574389
-0.0621465
-0.080327
-0.0549287
0.494636
-0.0896803
0.0474528
-0.0259508
0.00897337
-0.0123344
0.00336099
-0.15822
-0.244803
-0.10266
-0.0122479
-0.15911
0.448585
0.341148
-0.218813
-0.0235464
-0.0382942
0.0618406
-0.285427
-0.110231
-0.0120346
-0.0998967
0.111931
-0.00731309
-0.140144
-0.024153
-0.0558874
0.0800404
-0.261662
-0.195517
0.26501
0.154096
-0.0417623
0.139345
-0.195253
0.00339806
-0.00479934
0.00103629
0.0443683
-0.085788
-0.0529365
-0.0102535
-0.240685
0.389502
0.127424
0.158025
-0.320865
0.162839
0.462279
-0.234224
-0.0822232
-0.039207
0.170236
-0.028865
-0.141371
0.00306786
-0.0118927
-0.149518
0.240259
-0.0435428
-0.196716
0.143167
-0.0902398
-0.0529276
-0.0680512
0.284939
-0.216888
0.114349
-0.313692
-0.196288
-0.133216
0.329503
-0.0399674
-0.0586667
0.0986342
-0.017661
-0.000206005
0.0433317
-0.0130141
0.193727
0.176009
-0.369736
-0.0992528
-0.0170826
0.116335
-0.0325879
0.019779
0.012809
0.301791
0.210366
-0.512156
0.181868
-0.377606
0.238641
-0.078329
-0.160311
0.00222019
0.00372777
-0.00594796
-0.0101244
-0.0399359
0.0948922
-0.249093
-0.113333
0.0738733
0.0394593
-0.0150382
0.116124
0.13888
0.00726275
-0.146142
0.0615638
-0.192779
0.131216
0.277293
-0.0829196
0.0266622
-0.108902
0.0822395
0.0650769
0.0532957
-0.120076
0.0208233
0.0469559
-0.102147
0.0551907
0.0892304
-0.0171749
-0.0720555
0.425213
-0.187006
-0.185287
0.506243
-0.320955
-0.0453331
0.110272
0.545043
-0.406763
-0.138279
-0.123557
0.0788335
0.0447239
0.145277
0.0869112
0.0280162
0.220285
-0.347441
0.127156
-0.00438142
0.0238562
-0.0194748
0.00302218
0.000793909
0.0104061
0.213948
0.190402
-0.454433
0.264031
0.197659
-0.153685
-0.153975
0.307659
-0.0103318
-0.0870435
0.183864
0.148655
-0.332519
-0.253358
-0.257879
0.113931
0.0648756
0.0547098
-0.229088
0.452911
0.0389641
0.0495955
-0.0885596
0.58155
-0.267622
0.361533
0.169678
-0.53121
0.0242898
0.0593191
0.154397
-0.0134765
-0.14092
-0.162997
0.314086
-0.151089
0.0313753
-0.00842324
0.0103242
-0.00190099
0.0549703
-0.0891985
0.157455
0.387588
-0.00689603
0.00568133
-0.202478
-0.139826
0.194169
0.261113
-0.139904
-0.0144683
0.0228555
0.163388
-0.186243
0.129458
-0.0773416
0.0611358
0.043123
0.0395529
-0.139787
0.0632329
0.295229
-0.358461
0.129739
0.0112497
-0.112442
0.0490218
0.0634198
-0.0147979
0.0144451
0.0575685
-0.0958061
0.377851
0.225428
-0.603279
-0.0146322
-0.0124054
0.0179286
0.0780745
-0.096003
-0.145397
0.176381
0.184776
0.0621045
-0.0179373
0.0155633
0.00237399
0.042752
-0.0643007
0.0215487
-0.0330301
0.0144186
0.0186114
-0.0280027
-0.0050274
-0.120479
0.0382557
0.118797
-0.0127274
-0.126292
0.156879
-0.193955
-0.143157
-0.188514
0.333864
-0.14535
-0.068699
0.0969417
0.458776
-0.0972437
-0.196383
0.380247
0.334607
0.246943
0.00390332
0.000807703
-0.00297209
0.041435
-0.0333235
0.00355934
-0.0143703
-0.137477
-0.309085
-0.218625
0.52771
0.0223419
-0.0359986
0.0428616
-0.0818332
0.0307806
-0.0849401
0.24715
0.170328
-0.417478
0.100347
-0.289097
-0.00526821
0.298128
-0.0131743
-0.139174
0.152348
-0.0466573
0.17132
-0.124662
-0.0611427
0.0834869
0.158639
-0.347421
0.188782
-0.00395667
-0.00245912
-0.00861488
0.190415
-0.0981631
-0.0922523
0.113676
0.0767393
0.112894
-0.0480187
0.124638
-0.105594
-0.0190446
0.336089
0.251688
-0.587778
-0.0041882
0.000815667
0.00337254
-0.203708
0.336184
-0.132476
-0.00212096
0.0110943
0.0329695
-0.513061
0.480091
0.0205621
-0.0249435
-0.00291348
-0.0070456
-0.0604662
0.054724
0.0688394
0.396135
-0.19629
-0.199846
-0.215275
0.344813
-0.0940157
0.543163
0.210774
-0.332158
0.224878
0.153571
-0.0341913
-0.0623323
0.0965236
0.00233842
-0.000118226
-0.101477
0.264707
0.0821375
-0.0788384
-0.0304181
0.0557688
0.128147
-0.28817
0.128955
-0.094835
0.0488299
0.0460051
0.177048
-0.0184656
0.0267543
-0.0136888
-0.0186618
0.000165214
0.0184966
0.0109973
0.0122373
0.0733958
-0.124285
-0.523781
0.249112
0.48627
0.0132893
0.0166247
-0.0312569
-0.411082
0.260571
0.150511
0.27369
-0.025963
-0.247727
0.0455863
0.125957
-0.0312997
-0.0548667
-0.158843
0.00563092
0.153212
0.309681
-0.588589
0.278909
0.0913598
-0.049215
-0.056745