/*--------------------------------*- C++ -*----------------------------------*\
| =========                 |                                                 |
| \\      /  F ield         | OpenFOAM: The Open Source CFD Toolbox           |
|  \\    /   O peration     | Version:  v2012                                 |
|   \\  /    A nd           | Website:  www.openfoam.com                      |
|    \\/     M anipulation  |                                                 |
\*---------------------------------------------------------------------------*/
FoamFile
{
    version     2.0;
    format      ascii;
    class       surfaceScalarField;
    location    "300";
    object      phi_0;
}
// * * * * * * * * * * * * * * * * * * * * * * * * * * * * * * * * * * * * * //

dimensions      [0 3 -1 0 0 0 0];
oriented        oriented;


internalField   nonuniform List<scalar> 
21991
(
0.032861
-0.0446082
0.0117472
0.235203
-0.476231
0.241028
0.124568
-0.0671359
-0.0574319
0.144087
-0.15912
0.0150328
-0.0580981
0.163199
-0.105101
0.134599
-0.0606076
-0.0739919
0.215942
-0.0243867
-0.191555
-0.266054
0.0205242
0.24553
-0.100303
0.0393912
0.0609122
0.356268
-0.664485
0.308217
-0.0447955
0.10211
-0.0573147
0.106067
-0.106573
0.000506937
0.354585
-0.207503
-0.147081
0.0410711
-0.155454
0.114383
0.0518615
0.0531031
-0.104965
-0.00403822
0.000431465
0.00360676
0.0521956
-0.110294
-0.161089
0.175888
-0.0147991
0.0187062
-0.0187062
-0.133272
0.0876462
0.0456254
0.418805
0.17821
0.0214017
0.147477
-0.168879
-0.0583168
-0.0800789
0.138396
-0.314738
0.224354
0.0903834
0.00143828
-0.000893522
-0.000544755
-0.243924
-0.0708134
-0.00204503
-0.106749
0.108794
-0.166236
0.0878915
0.0783444
0.0545929
-0.0440736
-0.0105192
0.293053
-0.132809
-0.160244
0.170927
0.20081
-0.371737
-0.146393
0.155238
-0.00884532
-0.0981596
-0.035112
-0.137148
0.14492
-0.00777198
0.0515747
-0.0915958
0.0400212
0.0277697
0.188172
-0.0144092
0.0726237
-0.0582144
-0.573525
0.363221
0.210304
-0.0458838
-0.0185053
0.0643891
-0.0940493
-0.0288721
0.122921
0.0484171
0.0761507
0.0920625
-0.0404878
-0.0555035
0.0301954
0.0253081
-0.154114
-0.181361
0.335475
0.0494799
0.11372
0.12242
0.108414
-0.230833
-0.0451544
0.0836091
-0.0384548
0.266582
-0.223624
-0.0429581
0.16678
-0.145378
0.099373
-0.0594619
-0.0399111
0.32623
-0.20482
-0.12141
0.516191
-0.636434
0.120244
-0.246877
-0.202365
0.449241
-0.205571
0.195589
0.00998162
-0.046
0.100333
-0.0543331
0.0128434
0.0473199
-0.0601633
-0.0861302
0.0529301
0.0332001
-0.04068
0.0587169
-0.0180369
-0.520882
0.0629711
0.457911
-0.0661864
0.188606
0.0303121
-0.0257438
-0.0045683
0.118718
0.207512
-0.366144
0.0989384
0.267205
0.058866
-0.0460226
-0.19367
-0.172474
0.171066
-0.405355
0.234289
-0.0231532
0.441958
0.231598
-0.0435275
-0.188071
-0.738754
0.449147
0.289607
-0.0359072
0.0339153
0.0019919
-0.195228
0.301432
-0.106204
-0.128073
0.126028
-0.044498
0.0983474
-0.0538493
-0.0106955
-0.0192611
0.0299565
-0.312134
0.0787129
0.233421
-0.00434597
-0.0315612
-0.00233735
0.000658823
0.00167853
-0.239243
0.474446
-0.124646
0.0950938
0.029552
-0.176344
-0.262061
0.438405
-0.0026668
-0.00255304
0.00521984
0.427695
-0.256629
0.248689
0.170978
-0.419668
-0.225288
-0.0868465
-0.47261
-0.0830245
0.555634
0.00187094
-0.0826002
0.0807292
0.545479
-0.0731548
-0.472324
-0.175847
0.235265
-0.0594179
0.213439
0.230779
-0.444218
-0.0729575
-0.0932784
0.0387931
-0.162651
0.123858
-0.175935
-0.00336829
0.179303
-0.121584
0.0550359
0.0665478
-0.323445
0.141523
0.181922
0.0803147
0.0190583
-0.00218584
-0.000151513
0.0139129
-0.146831
0.000438597
-0.29397
0.161563
0.132407
-0.0962527
0.0514572
0.0134698
0.0452471
0.0126666
-0.0479932
0.0353266
0.16321
-0.63582
0.0870261
-0.16488
0.0778536
0.0497855
-0.0767367
0.0269513
0.0395806
-0.026914
0.00896143
0.0971051
-0.0991873
0.0531873
-0.371865
0.0233984
0.348467
-0.160109
0.331035
0.122335
-0.395658
0.273323
-0.0255442
0.0418068
-0.0162626
-0.0829798
-0.0386039
0.00933227
-0.00995919
-0.0377702
0.0122261
0.00482002
-0.00748681
-0.0668609
-0.00443003
0.0712909
-0.0828744
0.121667
-0.504235
0.564846
-0.0606104
0.00619958
-0.167289
0.00490113
-0.00392198
-0.000979147
0.442715
-0.229276
-0.126054
0.236388
-0.110335
0.129354
0.00963775
-0.138991
9.88778e-05
-0.520981
-0.35336
-0.220165
-0.0347129
-0.0473231
0.0820361
0.128097
-0.0690015
-0.0584263
0.127428
-0.166514
0.0052007
0.161313
-0.154346
-0.0121679
0.0646223
-0.121438
0.0568161
-0.0408858
0.0356062
0.00527965
-0.101676
0.0758655
0.0258106
-0.0334491
-0.0334077
0.0668567
0.144379
-0.0150252
0.153532
-0.307646
-0.0649616
0.0748146
-0.00985299
-0.14573
-0.108184
0.253914
-0.167082
0.029934
0.267548
0.177166
-0.444715
0.00361145
0.000420257
-0.00403171
0.545416
-0.0292257
0.000113192
0.0119493
-0.00375846
-0.00819083
-0.330177
-0.408577
0.0852636
-0.0354781
-0.373592
0.00172643
0.0272174
-0.077758
0.0505406
-0.0222604
0.0222604
-0.0393298
-0.0609736
-0.00569609
0.00569609
-0.127104
0.0330545
-0.0285454
-0.0831288
0.111674
0.444148
-0.195459
0.0506109
-0.0371411
0.0715479
-0.123921
0.0523731
0.113961
-0.0541988
-0.0597618
-0.0148749
0.0145112
0.000363641
-0.0432326
0.0704501
-0.0648556
-0.334332
0.399187
0.613736
-0.0965473
-0.517189
-0.0320829
-0.00880291
0.00143828
-0.198401
0.19064
0.00776176
0.0424993
0.00811157
0.26078
0.00580194
0.00785663
-0.0297434
0.0218868
-0.322
0.0857247
0.236276
-0.323709
0.0576549
-0.00872132
-0.0536369
0.0623582
-0.209836
0.20367
0.00616594
0.0991046
-0.099667
0.000562417
0.107044
-0.0551825
-0.0686724
0.0352233
-0.0602242
-0.0414519
-0.156182
0.0808819
0.0752999
0.140398
-0.152324
0.0119266
0.612954
-0.277801
-0.335153
-0.0456459
-0.0404843
0.112228
0.0223715
0.0116775
0.0125636
-0.0242411
-0.105739
-0.102907
0.208646
-0.12424
0.146435
0.00956142
-0.185496
-0.0582068
0.0452874
0.0129194
-0.0258645
-0.0836987
0.109563
-0.11935
0.0934852
0.202111
-0.182332
-0.0197785
0.541732
-0.408183
-0.133549
-0.0600443
0.00454084
-0.0725478
0.0273934
-0.131817
-0.147942
0.279759
0.0824547
-0.0444561
-0.0379986
-0.0799416
0.0655324
-0.392024
0.306597
0.0854268
-0.0297587
-0.0182344
0.310223
-0.278634
-0.0315897
0.137169
-0.114908
-0.0222615
-0.023237
0.00149682
0.0217402
-0.00636485
6.66495e-05
0.0062982
0.340663
0.201069
-0.0680637
0.214774
-0.146711
0.121465
-0.045861
-0.0756036
-0.117174
-0.097417
0.214591
-0.0162069
0.015181
0.00102591
-0.0341799
0.105728
0.0407041
0.0388205
-0.0795246
0.0813538
-0.164228
-0.277617
0.193653
0.0839632
-0.211275
-0.110725
-0.00278512
0.0270854
-0.0243002
0.232167
-0.000568556
-0.392106
0.32725
-0.127563
-0.103209
0.230772
0.0958926
-0.241623
0.0995517
-0.165273
0.322709
-0.157436
0.391801
-0.189067
-0.202733
-0.192827
0.370309
-0.177482
0.0431292
-0.150534
0.107405
-0.108413
0.0488281
0.0595845
0.0482759
0.0888934
-0.0559076
-0.153928
-0.100995
0.291589
-0.190595
0.0513181
0.0314895
-0.0828076
0.123275
-0.00341043
-0.119865
0.0536705
0.0128876
-0.0665581
-0.0200576
0.0384696
-0.018412
0.0277044
0.158975
-0.186679
0.220133
-0.344783
0.12465
-0.224259
0.156196
0.259851
0.131949
0.0239906
0.00297405
-0.0269647
0.0275633
-0.0193471
-0.00821615
0.384711
0.195292
-0.580003
0.0645351
-0.209735
0.1452
0.0870742
-0.0255188
-0.0615554
0.0484217
-0.105492
0.0570701
-0.19134
0.00803482
0.183305
0.00229388
-0.00143757
-0.000856315
0.0749273
0.00721824
-0.0821455
-0.130155
-0.163815
-0.374188
-0.210279
0.374646
-0.164366
0.0695335
-0.0676626
-0.131765
0.169351
-0.0375863
-0.0370764
-0.161325
-0.127318
-0.358472
0.198364
-0.0173133
0.0305661
-0.0132529
-0.250645
-0.141379
0.28892
-0.571844
0.282924
0.310032
-0.549276
-0.0176504
-0.0207276
0.038378
-0.214635
0.097461
0.142624
0.307541
-0.450166
-0.241478
0.147772
0.0937067
0.155975
-0.351204
-0.0372148
-0.328804
0.366019
0.0646761
-0.054294
-0.0103821
0.0199836
0.182127
0.052183
-0.110609
0.0471507
-0.248944
0.201793
0.0387358
-0.0861106
0.0473748
-0.287449
0.120397
0.167051
-0.150195
0.116015
-0.236401
-0.112882
0.349283
-0.0119572
0.0204831
-0.00852594
-0.0263371
0.0261961
0.000140958
0.0196028
-0.00792524
0.00347038
-0.00886647
0.00539609
-0.58726
-0.508295
0.0593318
0.448963
-0.00611853
0.00972998
-0.0508521
0.103955
0.00976773
0.154976
-0.164743
0.000698104
0.0112512
0.093907
-0.0414197
-0.0524873
0.0336654
0.00591511
0.00904933
0.0780248
0.54641
0.0106691
-0.557079
0.0246189
-0.0167623
0.0227036
0.00760848
0.00476297
-0.00863457
0.00387161
-0.0251924
0.0765105
0.0328901
0.0610169
-0.011741
-0.164106
-0.143537
0.00677336
0.136764
0.0568468
-0.0655681
-0.36209
0.196817
0.13294
-0.301182
0.168241
0.175181
0.288108
-0.187369
-0.100739
0.0408695
-0.101477
0.0289465
0.0757186
-0.104665
-0.0340832
0.0987055
-0.124667
0.10056
0.024107
0.21127
0.111439
-0.0786921
0.121821
-0.241636
0.452989
-0.211354
-0.602071
0.201407
0.400664
-0.121188
0.142411
-0.0212229
0.109767
0.0135082
-0.0946214
-0.0300244
0.100097
-0.205836
0.0308154
-0.0766991
-0.0429057
0.013147
0.059956
0.0470879
0.0116244
-0.0110738
-0.00499695
-0.0182401
0.0628206
-0.186255
0.17696
0.00929492
-0.186859
-0.00448136
0.0303175
-0.047968
-0.20777
0.0802067
0.015825
0.0488511
-0.11473
0.0660999
0.0486298
0.169507
-0.481472
0.311964
0.0294204
-0.0479258
-0.0592763
0.0848218
-0.0255454
0.0102226
-0.0770835
-0.0119653
0.0656358
-0.0160215
0.00406432
-0.162342
0.251313
-0.0889716
0.123749
-0.036103
0.0386965
0.055437
-0.0941335
-0.508196
0.0575727
0.0426681
-0.100241
-0.0126087
-0.00226615
-0.0943956
-0.070484
0.0843224
-0.124223
0.0399007
-0.0846574
-0.0715243
-0.171793
-0.014462
-0.324007
0.286792
-0.138375
0.339185
-0.409696
-0.192375
0.0020633
-0.217474
0.032377
0.185097
0.0850901
0.0140145
0.0616136
-0.191697
0.130083
0.242222
0.0255046
-0.267727
-0.174261
0.0424958
0.149764
-0.141428
-0.182017
-0.00626821
0.0345773
-0.0283091
0.0151931
-0.00714707
-0.008046
-0.0239947
-0.0134238
0.0374185
0.106439
-0.0670476
-0.00590306
-0.000461795
-0.00918763
0.00845389
0.000733742
-0.129818
-0.11166
0.228055
-0.474932
0.148817
-0.385218
-0.221893
0.00441865
0.0242821
-0.0835584
-0.159254
0.276856
-0.117602
-0.0188805
0.0188805
0.118779
0.242368
-0.361147
0.518711
-0.22979
-0.254752
0.070708
0.184044
0.0381154
0.0559353
-0.0940507
0.0239917
-0.0970827
0.073091
0.112675
-0.0642535
0.0122133
0.0122925
-0.0245058
-0.0242868
0.0135914
-0.169201
0.178969
-0.0169095
-0.145742
-0.140316
0.0982041
0.0421123
0.39297
-0.207155
-0.185815
0.184355
-0.195149
0.0107936
-0.405988
0.0183153
0.387672
-0.142323
0.0678413
0.0744813
0.0817775
0.608821
-0.363392
-0.245429
0.0158551
-0.0204113
0.00455614
-0.323161
0.262163
-0.135496
-0.126667
0.0155485
0.0484365
-0.0929345
-0.090154
0.177964
-0.152687
-0.0252772
-0.139695
0.114563
0.0251315
-0.00523356
0.00999653
-0.149508
-0.0107476
0.160256
0.408684
-0.236743
-0.171941
0.00157631
-0.00253907
0.000962761
0.172949
-0.154354
0.498751
-0.344397
-0.000567844
-0.0300903
-0.113447
-0.386509
-0.222375
-0.163069
-0.0425016
0.00183943
-0.00223753
0.000398103
0.0583014
-0.0251639
0.0675583
-0.0423944
-0.0356669
0.119989
-0.0110384
-0.025454
0.0364924
0.137298
-0.543286
0.109704
-0.0497475
-0.159499
-0.222785
0.382284
-0.0463692
-0.0528181
0.0365409
-0.0206858
0.013543
0.125034
-0.138577
-0.0518329
-0.0914824
0.143315
-0.0805898
0.0554259
0.188814
0.0116074
0.4409
-0.574668
0.133768
-0.254708
0.153713
-0.0097517
-0.0890838
0.0988355
-0.0487901
0.0314768
0.533808
-0.17754
-0.0937422
0.189849
-0.0961069
0.0871723
0.226982
0.233278
-0.46026
0.164785
-0.153336
-0.0114498
-0.213036
-0.0308882
-0.0119308
0.0447919
-0.0346632
-0.0800666
0.115547
-0.121329
0.00578259
-0.353322
-0.00710207
0.00721526
-0.180317
0.128484
-0.0453335
0.127705
-0.0823712
0.0193228
-0.00710948
-0.116593
0.0219713
0.0305372
-0.155546
0.125009
-0.348219
0.129538
0.218681
-0.228652
0.209012
0.0196402
0.534504
-0.534504
0.0986433
-0.0696968
-0.233741
-0.27467
0.50841
-0.137137
-0.140479
-0.25583
-0.0423701
0.2982
-0.386915
0.145279
0.0341612
-0.0404294
-0.196279
-0.165811
-0.258649
0.110562
0.148087
0.101086
-0.129958
7.53307e-05
0.0151177
0.337663
-0.064356
-0.273307
-0.154508
0.487926
-0.350811
-0.137115
-0.0399587
-0.135935
0.175894
0.00242238
-0.00987535
0.00745297
-0.0315108
-0.0271471
0.058658
-0.00954901
0.0844763
0.0992256
0.137163
0.020962
0.0108659
-0.0318279
-0.163763
-0.0313854
-0.282866
0.125119
0.157747
0.115086
0.490645
-0.60573
0.0459088
0.346939
-0.392847
-0.21448
0.343693
-0.129213
0.526428
-0.480519
-0.0197526
-0.0411114
0.060864
-0.180929
0.187581
-0.00665172
0.555986
-0.0915165
0.087858
0.00365853
0.14783
0.340096
0.0787585
0.035202
0.04733
-0.0880454
0.0407154
-0.0134658
-0.141988
-0.0371726
0.0947452
0.182137
-0.00417288
-0.0135165
-0.0293893
0.109136
0.00641082
-0.0832355
-0.147173
0.230409
0.547921
0.106631
-0.116383
-0.119536
0.284916
-0.165379
-0.13016
0.331623
-0.201463
0.00195745
0.00737482
0.0116715
0.132415
0.0500834
-0.257586
-0.154373
0.137463
-0.00339507
-0.0128118
-0.00991717
0.0290189
-0.0191017
-0.131507
0.145552
-0.0140449
-0.136741
0.184998
-0.0482567
-0.018082
0.194365
-0.176283
-0.0533766
0.0795871
-0.241929
0.0390943
0.118425
-0.157519
0.0072424
-0.258217
-0.000384434
0.258602
0.298924
0.0387386
0.0881234
0.0788726
-0.166996
-0.0676791
0.106773
0.0334669
-0.0648856
0.0314187
0.136441
-0.132524
-0.00391701
0.0394255
0.499559
-0.538984
0.0894482
-0.132643
0.0431943
0.0232651
0.46738
0.11545
-0.37128
-0.0211485
-0.00240932
0.0235579
0.0128715
-0.306659
0.092179
-0.0624946
-0.0493255
0.11182
-0.187941
-0.154213
0.421762
0.133597
-0.0890571
-0.0445395
0.00977007
-0.031349
0.0215789
-0.289046
-0.0260289
0.315075
0.0597519
-0.30326
0.243508
0.0421614
0.503317
-0.19414
-0.13582
0.32996
-0.0236715
-0.00266558
0.17307
-0.462116
0.175574
-0.258809
-0.0778129
0.0406404
0.185168
-0.342305
0.157137
-0.257816
0.224233
0.0335836
0.00225173
0.00499549
-0.00724721
0.454153
-0.2325
-0.221653
-0.0547804
0.0974485
0.143201
-0.448285
0.305085
-0.0229045
-0.0528904
0.075795
-0.0220968
0.000948224
0.0731471
-0.0396802
0.22855
-0.1814
0.2327
0.239379
-0.472078
-0.151847
0.11618
0.1303
-0.142041
-0.469848
0.168712
0.301135
0.0151357
-0.169238
0.154103
0.305297
-0.538439
0.233142
-0.0297381
0.119186
-0.201116
-0.147103
-0.032733
0.120856
0.12018
-0.0322883
0.135327
-0.229069
-0.00244264
-0.000110408
0.0925388
-0.0685471
-0.0493368
0.0295841
-0.0807671
0.142381
-0.277237
0.420438
-0.0759129
-0.0284172
0.10433
0.22533
-0.1101
0.140637
-0.0550007
0.0936972
-0.131338
0.0101498
-0.0861664
0.0632619
0.0343615
-0.0133995
0.618897
-0.0051607
-0.0259873
0.0149489
-0.0757487
0.118373
-0.0426239
-0.166802
-0.0141268
0.0936956
-0.185178
-0.00199561
-0.0121269
0.0141225
-0.00597405
0.0295404
-0.0235664
-0.450198
0.273854
0.466896
0.0795133
-0.0750024
-0.334693
0.0466773
0.0480581
-0.0947355
0.0563994
0.0650652
0.00278756
-0.00376291
0.000975347
0.00271529
0.336163
-0.276411
-0.0714088
-0.0189907
0.0903995
-0.0347155
0.0649109
0.0854688
-0.06304
-0.0224288
-0.112168
0.0668345
0.158582
-0.198541
0.0195482
0.141741
-0.161289
-0.347803
0.295299
0.0525037
-0.0606134
0.0873347
-0.0267213
-0.0237624
0.0180096
0.00575279
-0.16141
0.128677
0.0590671
-0.0760774
0.0170102
-0.30034
0.306505
-0.381508
0.255839
0.0699418
-0.325781
-0.147457
0.161
0.194085
0.24863
0.0498416
-0.0845545
-0.433739
0.279385
0.00145651
0.0172497
-0.030428
-0.162918
0.133179
0.0740977
-0.0437266
-0.24496
-0.102843
0.15804
0.0103669
-0.278251
0.109049
-0.000920895
-0.0177853
0.220313
0.388508
0.254238
0.00160084
0.226217
-0.377795
0.151578
0.0770961
-0.53148
0.454384
-0.0807762
0.123563
-0.0427872
0.0120985
0.00102042
-0.000587382
-0.000433035
-0.00525435
0.00133237
0.459682
0.0153096
0.226912
0.0104901
-0.147231
0.0366655
0.058833
-0.0954985
-0.0298248
0.109439
-0.0796142
0.0325554
-0.166352
0.133796
-0.356683
0.205908
0.150775
-0.0977922
0.0650564
0.0327357
0.145421
-0.205504
0.0600831
-0.0641129
0.0326021
0.130216
0.245636
-0.375853
0.0548365
0.0435109
-0.0235852
0.0022124
0.0213728
-0.199778
0.393863
0.176639
0.149652
-0.0627876
-0.0868643
0.236429
-0.279573
-0.132868
0.141405
-0.00853666
-0.1542
-0.0997534
0.253954
0.027804
-0.0305891
0.0406804
-0.107874
0.067194
-0.0389708
0.0796749
-0.371395
0.175116
0.057306
0.0448041
0.0413287
0.101375
0.0482768
0.348693
0.248322
0.00656793
0.0202791
-0.0268471
0.37109
-0.169615
-0.201475
0.0380503
-0.0682101
0.0301597
-0.457178
0.171035
0.286143
0.298997
-0.49745
0.198452
-0.00121417
0.0282995
-0.090661
0.0908976
-0.000236661
0.0753838
-0.0373334
0.0485
-0.119909
-0.0160251
-0.128599
0.144624
0.302583
-0.183804
-0.0389297
0.0196686
-0.140562
-0.235679
0.376241
0.0574799
-0.0796062
0.0221263
0.0460483
-0.100247
0.109922
0.0750758
-0.216354
0.488981
-0.272628
0.398011
-0.191819
-0.206192
-0.0119962
-0.116077
-0.13938
0.158928
0.586283
-0.223063
0.0760024
-0.121863
-0.0812061
0.0432906
0.0379154
-0.139019
0.125553
-0.366541
0.342232
-0.000645877
0.00107734
0.0245171
-0.0147471
0.0408711
-0.19247
-0.121384
0.313854
0.0616699
0.0719267
0.182087
0.100451
0.16323
-0.263681
-0.0356931
-0.0889743
-0.0174332
0.0174709
-3.77218e-05
0.143445
-0.143273
-0.000172237
-0.00713801
0.0311287
-0.12143
0.032373
-0.0444848
0.0246502
-0.233844
0.114307
-0.0122144
-0.011548
-0.037056
0.0945359
-0.0629464
0.376923
-0.313977
-0.0128083
-0.146311
0.0121859
-0.0880988
0.019843
-0.00338598
-0.188053
0.169971
-0.084528
0.117083
0.0509116
0.0315431
-0.294812
0.500479
-0.205667
0.136558
-0.137052
0.000493082
-0.149961
-0.371332
0.521293
-0.191249
-0.0384898
0.229739
-0.0560045
0.012781
-0.0270375
0.0142565
-0.135621
0.0630725
0.0725489
0.317611
-0.359981
0.463978
0.148975
0.162239
0.289475
-0.451714
0.036325
0.162492
-0.198817
-0.11652
0.0855066
0.0310132
-0.00783915
0.00584354
-0.0705222
-0.0697942
-0.0425872
0.0892645
-0.00240548
-0.016475
-0.114793
0.124394
-0.00960159
-0.113935
0.151313
-0.037378
0.0306643
-0.0241122
-0.00655206
0.121797
-0.253613
0.00327641
0.16267
0.0309838
-0.0176181
0.384233
-0.366615
0.257959
-0.291026
0.0330672
0.176292
-0.164621
0.0919178
-0.138191
0.0462734
-0.405794
0.332639
-0.0644762
0.158172
0.0627465
0.0672835
-0.13003
-0.0507887
0.11163
-0.0608415
-0.145783
0.031848
0.0558503
-0.0814607
0.0256103
-0.291538
0.143595
0.0865516
-0.0307013
-0.0690644
-0.0261836
0.0952479
-0.123965
0.129858
-0.00589373
-0.0104187
-0.101385
0.111804
0.68429
-0.411642
-0.272648
0.229476
-0.0146987
-0.214778
-0.0098939
-0.0187066
-0.013657
0.0323636
0.291129
-0.167454
-0.123675
-0.092515
0.00185407
0.0221312
0.29548
-0.265558
0.0396175
-0.406158
-0.149627
0.185952
-0.010813
0.0698801
-0.364459
0.2343
-0.120578
0.0404988
-0.199343
0.330285
-0.130942
0.00750585
0.140413
0.257598
-0.147953
0.147674
0.000279175
-0.174829
-0.103422
-0.430708
0.214354
-0.403023
0.243664
0.159359
0.101377
-0.0606965
0.0204239
0.124496
-0.0550027
-0.0355085
0.0905112
0.00773805
-0.381824
0.318878
0.176664
-0.472484
0.454866
-0.0332674
0.0439721
-0.0107047
-0.145812
0.115722
-0.138254
0.0612563
0.076998
0.0232344
-0.0104534
-0.168782
0.084254
-0.167746
0.178236
-0.058979
0.0215022
0.0374768
0.299592
-0.0733751
-0.406653
0.266092
0.428926
-0.525473
-0.216355
-0.140328
0.0885882
-0.0519227
0.481105
-0.175808
0.183816
0.299812
-0.483628
-0.100367
0.0401423
0.0340548
0.0621572
-0.096212
0.0167151
0.130163
-0.146878
0.297499
-0.0264665
-0.0181417
0.00471111
-0.00241722
0.105351
0.0074902
-0.112841
-0.184233
0.00631756
0.177916
-0.17617
0.0228342
-0.0471595
-0.0195748
0.0667343
-0.00476942
-0.110023
0.00701684
0.0434138
-0.0504306
-0.0430605
0.0686276
0.0378112
0.00638016
-0.00760132
0.201979
-0.056558
0.116167
-0.145614
0.0294462
0.0483572
-0.0981272
0.0497701
0.60769
-0.0169035
-0.590786
-0.0414162
0.240496
-0.174039
-0.0664572
0.45343
-0.376334
-0.00121437
-0.0127644
0.0139788
-0.136292
0.124296
0.0377693
-0.00757661
0.0353806
-0.116453
0.0621661
0.0542872
-0.195737
-0.175658
0.00853936
-0.127695
0.437728
0.198379
-0.183244
0.183916
-0.195729
0.0118128
-0.0574486
-0.171203
-0.271148
-0.224803
0.495951
-0.00293198
0.00149441
0.0120355
0.00908269
-0.112219
0.103136
-0.0626171
0.0864349
-0.0238178
-0.0190635
0.166998
-0.147935
-0.00409717
-0.019488
-0.0466681
-0.0448484
0.134212
-0.0180448
-0.0216273
0.0117101
0.215967
0.0245292
0.457728
-0.290453
-0.155123
0.445576
0.435394
-0.202117
0.269506
-0.202037
-0.0674685
-0.0052117
-0.0170487
0.159134
-0.175098
0.0159647
-0.000866326
0.0439093
-0.0912324
0.523121
0.0113825
-0.0232958
0.1215
0.0649391
-0.139861
0.0749218
-0.30986
0.602282
-0.292422
-0.284558
0.0933094
0.0124557
-0.00499799
0.140716
-0.273525
-0.0513683
-0.086886
0.0911232
-0.250377
-0.289699
-0.111272
0.400971
0.126275
0.0102833
0.0540894
0.1415
-0.0176442
-0.0107103
0.0283545
-0.04589
0.102372
-0.0564823
-0.0605341
0.0133746
0.0531
-0.0460832
-0.100234
-0.0455492
-0.0812138
0.00447703
0.260573
0.26923
-0.529803
0.0130674
-0.0535256
0.0404582
-0.109257
0.0603612
0.0488955
-0.28853
0.171544
-0.019698
-0.151846
0.00606108
-0.000364983
0.158815
-0.351284
0.121631
-0.0812629
-0.0403678
0.25224
-0.369359
0.117119
0.00905328
0.0132071
0.0788957
0.042735
0.112631
0.149532
0.146701
0.356703
-0.13657
-0.671591
0.226077
0.445514
-0.170033
-0.0142002
0.0370825
-0.0298916
-0.00719089
0.359279
-0.243665
-0.115613
0.0494476
0.206957
-0.256404
-0.134662
0.0175255
0.117137
-0.216148
0.0806521
0.00193069
-0.000921931
-0.00100876
-0.0084213
0.0915588
-0.0831375
0.29286
0.134104
-0.426964
0.503404
0.0419741
-0.300191
-0.105717
-0.0108024
-0.189815
0.323183
-0.133369
-0.610531
0.424813
0.185717
-0.0551761
0.0843532
-0.0291771
0.0797536
-0.040933
-0.13588
0.42758
-0.291699
-0.159004
0.401372
0.0419091
0.0984888
-0.0272873
0.00154348
0.223823
0.248702
-0.472525
0.287371
-0.18875
-0.0986214
0.0974496
0.0636485
-0.0942858
0.0306373
0.474839
-0.291023
8.31482e-05
0.00175628
0.00471092
-0.152664
-0.105118
0.0243422
-0.049435
-0.0540594
-0.0265586
0.080618
0.255356
-0.0342279
-0.0630577
0.0972855
-0.203241
-0.337073
-0.0102154
-0.0334941
0.0437095
-0.159137
0.00479134
0.00884959
0.144633
-0.153483
0.22168
-0.435035
0.213355
0.0414451
0.216514
0.00275277
-0.00364629
-0.0365997
-0.0216071
0.150496
-0.440195
0.114651
-0.0705308
-0.0441201
0.0236571
-0.0170892
0.00445457
-0.000847813
-0.0748472
-0.0465911
0.436295
0.0111886
0.011515
0.37234
0.224675
0.294097
0.0651818
-0.0131463
-0.121516
-0.0377757
-0.0430004
0.0807761
-0.254418
0.0674884
0.18693
0.0606725
0.0396409
-0.100313
0.101592
-0.0756578
-0.0259346
-0.12644
0.239071
0.165333
0.2625
-0.61586
-0.07956
-0.178256
0.0125112
0.256995
-0.551407
-0.427647
-0.182884
-0.0973753
0.0869835
0.0103918
-0.21139
0.450769
-0.131901
0.0662481
0.169017
0.0146003
0.0224821
0.313928
0.283087
0.0352975
-0.246887
-0.14081
0.387697
-0.0310861
-0.0144977
-0.135697
-0.0887643
-0.0167275
0.0215875
-0.0294567
-0.110238
0.156396
-0.161428
0.0050317
0.00546995
0.145321
-0.150791
0.585122
0.16308
0.0929152
0.13514
-0.319537
-0.352054
-0.175481
0.483022
0.00300186
0.0059813
-0.00898316
0.0282427
-0.100279
0.072036
-0.000610859
0.338582
-0.120483
-0.218099
-0.486057
-0.10473
0.047209
-0.0640462
-0.031103
0.0951493
0.0362428
-0.0464582
-0.0178667
-0.000352626
0.0182193
-0.0575021
0.0915569
-0.135256
0.0620076
0.0732481
0.00024849
0.239259
-0.398263
-0.479717
-0.184767
-0.00107077
0.0137168
-0.0126461
-0.147266
-0.0118717
-0.0637932
-0.0343341
0.0803606
0.0342903
0.238207
0.197187
0.404955
0.140461
-0.11071
0.0816142
0.0290959
0.037284
-0.327737
0.0262563
-0.0338329
0.187848
-0.0368981
-0.15095
0.0271445
0.0744479
0.378449
-0.144676
-0.233772
0.0222046
-0.176996
0.514326
-0.337331
0.0623833
0.0254746
-0.0331748
-0.182583
-0.144673
0.327256
0.0223442
-0.0675978
0.0452536
-0.108419
0.062529
-0.017557
-0.0636567
0.0038164
-0.00140819
-0.00240821
-0.0806608
0.0722395
0.00429373
0.0409937
0.0340405
-0.15828
0.061734
0.0235101
-0.0226411
-0.000869043
0.122609
-0.113526
0.0955876
-0.0401932
-0.0553944
-0.267797
0.0893552
0.178442
0.348463
-0.0962236
-0.062293
-0.00301819
-0.00616944
-0.118612
0.0915234
0.0270883
0.17191
0.0159378
0.177738
-0.361319
0.183581
-0.0864809
-0.0291233
0.115604
0.259665
-0.159214
-0.0299668
0.047249
-0.0172821
-0.0219725
-0.000260436
0.022233
0.156227
-0.0788425
-0.175576
0.194415
-0.363519
0.169103
0.136876
-0.152901
0.0390954
-0.0940981
0.129678
-0.256118
-0.0192657
-0.00270684
0.0459781
-0.0837538
-0.0283635
-0.0119736
0.0403371
0.0890571
0.0311228
-0.15371
-0.129156
-0.511237
0.27246
0.238777
-0.0780446
0.0153172
0.0627275
-0.200057
0.0473919
-0.0898888
0.0424969
0.163492
-0.0134202
-0.150072
-0.0366759
0.125733
-0.386026
0.250145
0.453528
-0.227609
-0.225918
-0.0815956
-0.0370162
0.104259
0.00109241
-0.027133
-0.0309922
0.0828433
-0.051851
0.0521165
0.0586092
-0.110726
-0.287958
-0.526123
0.349127
0.212731
0.0167453
-0.0115962
0.0227848
0.059089
-0.123049
0.06396
-0.0357703
0.0831623
0.482621
-0.234655
-0.247966
0.0143007
0.0193648
0.0421449
0.0507899
-0.0929348
-0.0508888
-0.0722246
0.123113
0.182753
-0.22628
0.193365
0.0478988
-0.241264
-0.10637
0.266277
-0.250967
0.00222908
-0.00029839
0.0148054
-0.198207
0.376626
-0.178419
-0.104166
-0.0382365
0.09577
-0.0575334
0.00505678
0.171236
0.0088813
0.141657
-0.141187
-0.000469628
0.170003
-0.377158
-0.0393598
0.0963527
-0.0569929
0.194354
-0.281631
0.0872778
0.0975162
-0.107935
0.286251
-0.159216
-0.127035
-0.104176
0.0088825
0.0996075
-0.10849
0.35323
-0.00177379
0.138283
0.00963659
-0.0113005
0.00166389
0.172096
0.211645
-0.383741
-0.301975
0.153702
0.148273
0.352303
-0.107671
-0.244632
-0.0164797
0.0202518
-0.037896
-0.00725342
-0.159098
-0.09717
0.0463179
0.112893
-0.0564939
-0.251979
-0.0158179
0.0828481
-0.2268
0.143952
0.101315
0.0141561
-0.0111543
0.0479529
0.0606283
-0.108581
-0.00534758
0.0729059
0.468193
-0.239661
-0.228532
0.232188
-0.0772121
0.00931784
-0.00345099
0.00457416
0.2102
-0.00786761
-0.15505
-0.0631903
0.00602309
0.0571672
0.150429
0.0130629
-0.167974
-0.0200787
-0.00092174
0.00194216
-0.0541595
-0.033472
0.0876315
-0.00976764
0.0120194
-0.141411
-0.048316
-0.173281
-0.0473164
0.0624399
0.0230289
-0.00537048
0.0341557
-0.0287853
0.194374
0.128809
0.0984336
-0.220647
0.122213
-0.00992191
0.0345392
-0.0246173
0.119585
-0.0574389
-0.0621465
-0.080327
-0.0549287
0.494636
-0.0896803
0.0474531
-0.0259509
0.0089733
-0.0123341
0.00336084
-0.15822
-0.244803
-0.10266
-0.0122479
-0.15911
0.448585
0.341148
-0.218813
-0.0235462
-0.0382942
0.0618404
-0.285427
-0.110231
-0.0120346
-0.0998967
0.111931
-0.0073131
-0.140144
-0.0241533
-0.0558872
0.0800405
-0.261662
-0.195517
0.26501
0.154096
-0.0417623
0.139345
-0.195253
0.00339808
-0.00479959
0.00103668
0.0443683
-0.085788
-0.0529363
-0.010254
-0.240685
0.389502
0.127424
0.158025
-0.320865
0.162839
0.462279
-0.234224
-0.0822232
-0.039207
0.170236
-0.028865
-0.141371
0.00306781
-0.0118927
-0.149518
0.240259
-0.0435428
-0.196716
0.143167
-0.0902398
-0.0529276
-0.0680512
0.284939
-0.216888
0.114349
-0.313692
-0.196288
-0.133216
0.329503
-0.0399672
-0.0586669
0.0986341
-0.0176605
-0.000206144
0.0433316
-0.0130141
0.193727
0.176009
-0.369736
-0.0992528
-0.0170826
0.116335
-0.0325877
0.0197787
0.012809
0.301791
0.210366
-0.512156
0.181868
-0.377606
0.238641
-0.078329
-0.160311
0.00221996
0.00372812
-0.00594807
-0.0101241
-0.0399361
0.0948922
-0.249093
-0.113333
0.0738732
0.0394594
-0.0150381
0.116124
0.13888
0.00726275
-0.146142
0.0615638
-0.192779
0.131216
0.277293
-0.0829196
0.0266622
-0.108902
0.0822395
0.065077
0.0532956
-0.120076
0.0208233
0.0469558
-0.102147
0.055191
0.0892303
-0.0171749
-0.0720555
0.425213
-0.187006
-0.185287
0.506243
-0.320955
-0.0453331
0.110272
0.545043
-0.406763
-0.138279
-0.123557
0.0788335
0.0447239
0.145277
0.0869113
0.0280162
0.220285
-0.347441
0.127156
-0.00438145
0.023856
-0.0194746
0.00302255
0.000793849
0.0104061
0.213948
0.190402
-0.454433
0.264031
0.197659
-0.153685
-0.153975
0.307659
-0.0103318
-0.0870435
0.183864
0.148655
-0.332519
-0.253358
-0.257879
0.113931
0.0648757
0.0547098
-0.229088
0.452911
0.0389639
0.0495955
-0.0885594
0.58155
-0.267622
0.361533
0.169678
-0.53121
0.0242893
0.0593198
0.154397
-0.0134765
-0.14092
-0.162997
0.314086
-0.151089
0.0313755
-0.00842305
0.010324
-0.00190091
0.0549702
-0.0891981
0.157455
0.387588
-0.00689596
0.00568159
-0.202478
-0.139826
0.194169
0.261113
-0.139904
-0.0144683
0.0228555
0.163388
-0.186243
0.129458
-0.0773416
0.0611358
0.043123
0.0395529
-0.139787
0.0632329
0.295229
-0.358461
0.129739
0.0112499
-0.112442
0.0490217
0.0634199
-0.0147974
0.0144448
0.0575691
-0.0958056
0.377851
0.225428
-0.603279
-0.0146318
-0.0124057
0.0179285
0.0780745
-0.096003
-0.145397
0.176381
0.184776
0.0621045
-0.0179376
0.0155636
0.00237401
0.0427516
-0.0643001
0.0215484
-0.0330292
0.0144174
0.0186118
-0.0280025
-0.00502673
-0.120479
0.0382557
0.118797
-0.0127274
-0.126292
0.156879
-0.193955
-0.143157
-0.188514
0.333864
-0.14535
-0.0686989
0.0969416
0.458776
-0.0972437
-0.196383
0.380247
0.334607
0.246943
0.00390328
0.000807826
-0.00297214
0.0414353
-0.0333237
0.00355914
-0.0143702
-0.137477
-0.309085
-0.218625
0.52771
0.0223416
-0.0359986
0.0428622
-0.081833
0.0307806
-0.0849401
0.24715
0.170328
-0.417478
0.100347
-0.289097
-0.00526821
0.298128
-0.0131743
-0.139174
0.152348
-0.0466573
0.17132
-0.124662
-0.0611427
0.0834869
0.158639
-0.347421
0.188782
-0.00395668
-0.00245904
-0.00861481
0.190415
-0.0981631
-0.0922523
0.113676
0.0767393
0.112894
-0.0480187
0.124638
-0.105594
-0.0190446
0.336089
0.251688
-0.587778
-0.00418832
0.000815942
0.00337238
-0.203708
0.336184
-0.132476
-0.0021208
0.0110941
0.0329695
-0.513061
0.480091
0.0205619
-0.0249433
-0.0029134
-0.00704579
-0.0604661
0.054724
0.0688394
0.396135
-0.19629
-0.199846
-0.215275
0.344813
-0.0940157
0.543163
0.210774
-0.332158
0.224878
0.153571
-0.03419
-0.0623327
0.0965228
0.00233845
-0.000118495
-0.101477
0.264707
0.0821375
-0.0788385
-0.0304182
0.0557689
0.128147
-0.28817
0.128955
-0.0948349
0.0488311
0.0460038
0.177048
-0.0184656
0.0267541
-0.0136867
-0.0186621
0.0001652
0.0184969
0.0109969
0.0122375
0.0733958
-0.124285
-0.523781
0.249112
0.48627
0.0132893
0.016625
-0.0312568
-0.411082
0.260571
0.150511
0.27369
-0.025963
-0.247727
0.0455863
0.125957
-0.0312995
-0.0548669
-0.158843
0.00563092
0.153212
0.309681
-0.588589
0.278909
0.0913601
-0.0492151