/*--------------------------------*- C++ -*----------------------------------*\
| =========                 |                                                 |
| \\      /  F ield         | OpenFOAM: The Open Source CFD Toolbox           |
|  \\    /   O peration     | Version:  v2012                                 |
|   \\  /    A nd           | Website:  www.openfoam.com                      |
|    \\/     M anipulation  |                                                 |
\*---------------------------------------------------------------------------*/
FoamFile
{
    version     2.0;
    format      ascii;
    class       volVectorField;
    location    "300";
    object      U;
}
// * * * * * * * * * * * * * * * * * * * * * * * * * * * * * * * * * * * * * //

dimensions      [0 1 -1 0 0 0 0];


internalField   nonuniform List<vector> 
14804
(
(0.721146 0.00695017 -3.37456e-22)
(1.00746 0.00990082 0)
(1.05129 0.003466 2.14969e-22)
(1.0524 0.0123608 4.22298e-21)
(1.06047 0.0155402 4.3812e-23)
(1.0658 0.00676811 -2.38221e-22)
(1.02955 0.044888 -3.15626e-23)
(0.978796 0.00689629 2.28381e-20)
(1.04796 0.00883651 0)
(1.0003 0.000208601 -6.51791e-24)
(1.12779 -0.0138818 0)
(1.05178 0.00225642 0)
(0.96875 0.00132138 1.04876e-21)
(1.0547 0.0109981 -3.17384e-21)
(1.14654 0.0407668 8.20073e-20)
(0.0594033 -0.00235853 2.7715e-20)
(1.06121 0.0150933 9.53887e-23)
(1.0523 0.013504 9.4667e-21)
(0.307294 0.00848548 4.38164e-21)
(1.05098 0.00907131 0)
(0.999997 9.30319e-07 4.7742e-21)
(1.01073 0.070217 3.64853e-21)
(0.973638 0.133643 7.63058e-21)
(1.03264 0.0357652 1.03407e-21)
(0.0353223 -0.00468956 0)
(1.03141 0.036133 -2.55317e-22)
(1.05128 0.00940929 0)
(1.05828 0.0140814 8.78085e-21)
(0.813478 0.00686525 3.58609e-21)
(1.03903 0.0263027 4.85325e-21)
(1.0325 0.0103224 -4.31563e-22)
(0.955007 0.123476 0)
(1.05097 0.00905076 8.92618e-21)
(1.07554 0.0297128 0)
(1.04859 0.00967817 -3.51438e-21)
(1.03058 0.0443465 1.19999e-23)
(1.05787 0.0160479 0)
(1.00003 0.000944663 0)
(0.950194 0.0901892 3.44689e-20)
(1.05176 0.00883945 -8.58881e-21)
(1.05089 0.00378657 -4.96154e-21)
(1.04883 0.00968395 0)
(0.701476 0.291768 0)
(0.994797 0.0185004 7.91172e-21)
(1.05978 0.0152237 0)
(0.955758 0.0308412 0)
(1.03546 -0.0182004 -5.24251e-21)
(0.982668 0.0296625 -2.68476e-20)
(1.01072 0.0726278 7.32711e-21)
(1.12413 0.306133 -7.08704e-20)
(0.967286 0.00422292 -2.50688e-20)
(1.0185 0.000547519 -3.35382e-21)
(0.999145 0.00583219 1.03144e-20)
(1.04789 0.0128818 0)
(1.11271 0.3324 0)
(1.01035 0.011464 -5.02979e-21)
(1.04905 -0.00211731 -2.6663e-21)
(0.83232 0.00707265 2.44363e-21)
(0.996235 -0.00348498 -1.5512e-20)
(0.953286 0.0312252 0)
(0.559114 0.0151685 -5.54218e-21)
(0.96565 0.00483886 -2.50162e-22)
(0.996356 0.0206113 -4.26636e-21)
(0.979539 0.0101134 -5.22292e-21)
(0.995972 0.0198125 -3.80421e-21)
(0.99884 0.00504422 -7.72268e-21)
(0.999971 -4.26183e-05 -1.16658e-20)
(1.02264 0.0465974 0)
(1.00153 0.000460951 0)
(0.596537 -0.0118242 8.48443e-22)
(1.03505 0.00805049 1.51517e-21)
(1.05121 0.0094907 0)
(1.13715 -0.00805281 1.24122e-20)
(0.502714 -0.019985 6.78104e-21)
(1.04197 0.0091891 4.82451e-21)
(0.613656 -0.0115993 -8.78646e-22)
(-0.0376433 -0.00740926 1.53946e-22)
(1.00763 0.00956896 3.83329e-21)
(0.832571 0.139017 0)
(1.02237 0.00626874 -1.04603e-21)
(-0.0916535 -0.0203999 7.33292e-20)
(0.999024 0.00517522 7.00133e-21)
(1.02235 0.00716484 1.13703e-21)
(1.04187 0.00953414 -2.2071e-21)
(1.00006 0.00060622 2.13127e-21)
(1.08565 -0.0082608 1.97836e-20)
(1.01073 0.00162772 -4.39721e-21)
(1.04492 0.0114026 -1.98705e-21)
(1.00911 0.00721442 3.46721e-21)
(1.05882 0.0143901 9.71818e-21)
(1.07029 0.0354018 -2.76849e-22)
(0.984932 0.0657125 -4.97801e-21)
(1.04907 0.00822298 -4.87363e-21)
(1.03368 0.00796433 1.14265e-21)
(1.13261 0.30101 5.26819e-20)
(-0.0222201 -0.00881476 4.56895e-20)
(0.800796 0.00673531 -2.47236e-21)
(0.954052 0.117738 0)
(1.01772 0.0427591 -3.16654e-21)
(1.13589 -0.0159201 0)
(0.821135 0.00721944 -2.47957e-21)
(0.687361 -0.015503 -1.49502e-21)
(1.00005 0.000491476 4.63197e-21)
(1.05517 0.0104098 9.98911e-22)
(1.04337 0.0118329 -2.04777e-21)
(0.629878 -0.0156232 3.22944e-21)
(1.05167 0.00261914 0)
(1.1052 0.330138 -2.64834e-20)
(0.993195 -0.00123998 1.33519e-20)
(1.03307 0.0102891 7.15261e-22)
(0.994288 0.00746139 0)
(0.731734 0.00831502 3.13847e-21)
(1.04906 0.00802539 -3.97177e-21)
(-0.19624 -0.0135985 5.24036e-20)
(0.708887 0.00954004 -4.26601e-21)
(-0.12844 -0.0187051 4.70977e-20)
(1.04336 -0.00332144 -1.62084e-21)
(1.07177 0.0345224 1.06289e-20)
(1.00005 0.000591737 -1.49056e-20)
(1.0527 0.0136424 -9.4872e-21)
(-0.0599056 -0.0101865 -8.97221e-20)
(1.00917 0.0069004 -1.02166e-20)
(1.03866 0.0452009 4.36639e-21)
(1.06603 0.015511 -1.60934e-21)
(0.996612 -0.0035571 1.41303e-20)
(1.00002 0.000675468 0)
(1.04241 -0.0012647 3.48574e-21)
(1.05482 0.0106064 -3.94822e-21)
(0.969212 0.144575 -1.69721e-20)
(1.06428 0.0215498 0)
(1.0643 0.0226118 0)
(1.11679 0.00499836 0)
(0.607993 -0.00349716 0)
(1.11901 -0.0191497 0)
(1.03888 0.0021458 -3.22081e-21)
(1.06515 0.0155248 0)
(0.994043 0.0183561 1.02289e-20)
(1.10938 -0.0360465 0)
(1.03926 0.0216273 0)
(1.07719 0.0305152 0)
(1.0032 0.00977659 6.72502e-21)
(0.0737572 0.0232523 0)
(1.01795 0.000457624 3.36613e-21)
(-0.23788 -0.0112318 0)
(0.20535 -0.00642121 0)
(1.00132 0.000407925 0)
(1.04422 0.0117423 0)
(0.993767 -0.00112467 -1.29941e-20)
(1.06578 -0.0206479 0)
(0.311722 0.0108053 6.21016e-21)
(1.04796 0.00860234 0)
(0.0975352 0.00056411 0)
(1.05169 0.00897972 9.57894e-21)
(1.05442 0.00996856 -9.36795e-21)
(1.02217 0.00682862 -2.57301e-22)
(0.780953 0.00736111 0)
(1.05094 0.00856837 -4.94731e-21)
(1.17147 0.0166428 -2.72187e-20)
(0.269875 -0.000262677 -2.77972e-21)
(1.06959 -0.0216853 -9.8167e-21)
(1.00462 0.00593074 0)
(1.00309 0.000647596 -1.17337e-20)
(0.619771 -0.00456267 0)
(0.0129011 -0.00344288 1.48122e-20)
(1.05105 0.0198179 1.14685e-20)
(0.767985 0.00777557 0)
(0.982123 0.0310141 1.91313e-20)
(0.547148 0.0139698 0)
(1.0396 0.0242804 -1.96619e-21)
(0.978877 0.00568397 -2.96186e-20)
(1.05313 0.00546339 0)
(0.992702 0.0757727 -8.47459e-21)
(1.05851 -0.0037091 4.76542e-21)
(1.14214 0.0402563 -3.96565e-20)
(1.05377 0.00337041 3.98859e-21)
(1.11994 -0.0179903 -2.16343e-20)
(0.843969 0.0671284 0)
(1.07722 0.0250732 0)
(1.01433 0.00135996 -1.71846e-21)
(1.04973 -0.00256447 -9.89235e-22)
(1.06498 0.00643155 -9.52849e-21)
(0.393874 -0.0407706 3.28402e-23)
(1.03121 0.0406169 8.64996e-23)
(0.881599 0.00728777 6.6625e-20)
(0.984648 0.0632505 0)
(0.855361 -0.00580716 2.14814e-21)
(1.08915 0.0231769 2.03284e-20)
(1.08762 0.0242865 -1.85197e-20)
(1.05525 0.0259916 0)
(1.01913 0.00764475 1.81541e-21)
(0.690761 0.270702 3.48685e-20)
(1.00642 -0.018515 2.99861e-21)
(1.01306 0.0346663 3.35962e-21)
(1.08878 -0.0338308 0)
(1.05961 0.0159554 -2.4737e-21)
(1.00003 0.0186166 0)
(0.702728 -0.016714 1.64235e-21)
(0.970507 0.00493492 -4.3451e-21)
(1.10649 0.0894029 0)
(0.386572 0.00711906 -3.53633e-21)
(0.110017 -0.00964567 -5.3016e-21)
(1.01939 0.00747805 0)
(1.04633 0.0277278 -8.25259e-21)
(1.12725 0.0522608 0)
(0.949104 -0.00354962 0)
(0.291771 0.00260661 2.97174e-22)
(1.05089 0.00845596 -8.10688e-21)
(1.10715 -0.0308167 1.47452e-20)
(1.0732 0.0353597 0)
(1.02794 0.0472966 0)
(1.03916 0.0248156 -1.53428e-21)
(0.569894 0.0156753 -4.3628e-21)
(1.02406 0.047094 0)
(1.00464 0.00575598 0)
(1.00189 0.049798 0)
(1.03974 0.0222388 0)
(1.05445 0.0103875 0)
(1.00332 0.0222843 3.49635e-21)
(0.988606 0.00362802 -8.94586e-21)
(0.99629 0.0180762 -5.57136e-21)
(0.889264 0.0294326 4.57064e-22)
(1.04876 0.00852089 -6.94559e-23)
(1.10879 0.0872321 9.89862e-22)
(0.990946 0.0733371 1.11956e-20)
(1.02893 0.0189544 -2.94115e-22)
(1.112 -0.0293097 3.5629e-20)
(1.05103 0.00898904 -3.86825e-21)
(1.03799 0.0123154 5.07076e-21)
(0.653688 -0.00473408 3.20376e-21)
(1.01314 0.0665142 -2.73046e-21)
(1.03319 0.00912954 1.00928e-21)
(1.04529 0.0277301 3.61666e-21)
(0.988022 0.00421098 0)
(0.470436 -0.0111181 0)
(0.456486 -0.018891 9.85662e-22)
(1.00003 0.000513639 0)
(0.959745 0.0339071 0)
(1.0458 0.0133929 4.22347e-21)
(1.1005 0.000671679 -1.24427e-20)
(1.04547 0.0565725 -9.46381e-21)
(0.0116329 0.0184771 6.84241e-20)
(1.01049 0.404614 -5.06321e-21)
(1.01626 0.0427111 6.41005e-22)
(0.995453 0.017822 -7.36557e-21)
(1.02221 0.01521 -1.28318e-21)
(1.08607 -0.00985371 1.19097e-20)
(1.05974 0.0336305 -1.0054e-20)
(1.05089 0.0204811 -6.85847e-21)
(0.967887 0.136731 9.0772e-21)
(1.03349 0.0106806 0)
(0.504099 0.109942 -7.12656e-20)
(0.999846 0.0180713 -6.32924e-21)
(1.00402 0.00435297 -7.54391e-21)
(1.0074 0.00905739 -3.9798e-21)
(0.664828 0.000384667 2.07392e-21)
(0.949513 -0.00558487 1.99371e-20)
(1.01821 0.00728857 0)
(1.04897 0.0244277 -7.87153e-22)
(1.03457 0.00820407 -9.10081e-23)
(0.998891 0.00382015 0)
(0.977382 -0.00135102 0)
(1.05554 0.0251176 1.32838e-21)
(0.964053 0.147291 1.13838e-20)
(0.973785 0.00452918 -1.75039e-20)
(1.17136 -0.0160163 -3.14696e-20)
(1.03673 0.0250144 2.85059e-22)
(1.05078 0.00850399 1.1302e-20)
(1.02162 0.0143362 -1.33351e-21)
(0.362572 0.00424072 -1.70763e-21)
(0.474733 0.0125329 1.39723e-22)
(0.340186 -0.0372609 1.07069e-20)
(0.142931 0.00496129 0)
(1.00004 0.000456836 1.32824e-20)
(0.996209 -0.00459176 1.18459e-20)
(0.167496 0.0353367 6.41816e-20)
(1.14895 0.0365982 -7.07938e-20)
(1.04539 0.0130056 0)
(0.19493 -0.00375279 0)
(0.762543 0.207153 -5.1249e-20)
(0.616092 -0.0148892 -2.2205e-21)
(1.04623 0.0136467 -5.21772e-21)
(1.00589 0.00117607 -2.97811e-21)
(0.569337 0.0120512 -2.11693e-21)
(0.552702 0.01298 5.22939e-21)
(0.15215 -0.0325158 -1.25065e-21)
(1.1158 -0.0312723 -1.92304e-20)
(0.767798 0.225973 5.69694e-20)
(1.04524 0.0116702 5.40821e-21)
(0.890013 0.0483538 0)
(1.04697 0.00524658 0)
(1.00353 0.0215031 -5.70632e-21)
(1.03519 0.0254619 8.5169e-22)
(1.01322 0.0690341 -2.46005e-21)
(1.0421 0.0102257 2.20748e-21)
(1.066 0.00751133 -9.19181e-21)
(1.24702 0.194803 4.45363e-20)
(1.11724 0.00129824 0)
(0.953216 0.149164 -2.57413e-20)
(1.00382 0.0225939 6.18991e-21)
(0.884359 0.0278734 -6.82589e-20)
(1.01721 0.0124989 0)
(1.00613 0.00902586 -4.65433e-21)
(0.899479 0.0785589 5.5977e-20)
(1.05097 0.00900713 2.44593e-21)
(0.829203 0.128458 0)
(1.03019 0.0400962 0)
(1.08073 0.11761 -3.35898e-20)
(0.653116 -0.0167806 -2.54907e-21)
(1.14029 0.0357532 3.67806e-20)
(-0.226913 -0.0137284 0)
(0.398846 0.00557895 3.1453e-21)
(1.04225 0.00988297 -2.43936e-21)
(0.953563 0.0782998 1.88512e-20)
(1.04353 0.0570947 4.80006e-21)
(0.699649 0.000278021 6.46572e-23)
(1.00034 0.0503573 0)
(0.986415 -0.000768173 -2.16541e-22)
(1.12391 -0.00360892 -1.72141e-20)
(1.02051 0.00446597 0)
(0.783348 0.0715418 -4.00984e-20)
(1.04784 0.0136055 -5.2485e-22)
(1.04355 -0.00362082 -1.2417e-21)
(1.04745 0.0128096 -7.27567e-21)
(0.33469 0.00793687 0)
(1.0412 0.00788998 0)
(1.05104 0.00905233 1.97105e-21)
(1.14389 0.0153774 2.41647e-20)
(0.996587 -0.0041984 -1.42646e-20)
(1.22008 0.0227437 1.96084e-20)
(0.280502 -0.00155492 4.13436e-21)
(1.05557 0.0105419 3.53036e-21)
(1.05262 0.0102478 7.05232e-21)
(0.847465 0.0608149 4.73814e-20)
(0.954227 0.0743413 -5.92762e-21)
(0.99901 0.00386835 0)
(1.03213 0.00991105 -6.12591e-22)
(1.00576 0.00892423 -4.80437e-21)
(-0.228472 -0.0103413 -3.78856e-20)
(0.971655 0.0369805 -1.26335e-20)
(1.05799 -0.00324646 -2.58866e-21)
(0.997944 0.0720121 5.00739e-21)
(1.0404 0.0159422 -1.98676e-21)
(1.06073 0.0344803 1.74252e-20)
(0.967164 0.00204822 1.65596e-20)
(1.03355 0.00835307 -9.69579e-23)
(0.739841 0.00541246 2.88144e-21)
(0.285884 -0.0325773 0)
(0.6303 -0.0100069 1.31665e-21)
(1.04779 0.00896666 0)
(0.124853 -0.011766 -7.94928e-22)
(0.160744 -0.00526904 -7.78351e-21)
(1.04896 0.0250309 -8.79116e-21)
(0.999332 0.00556605 -7.17254e-21)
(1.0211 0.0140675 1.37118e-21)
(0.970512 0.0354014 -1.28748e-20)
(1.04704 0.0138045 2.2983e-21)
(1.01411 0.0408985 0)
(0.306576 0.00961513 -4.39415e-21)
(1.02617 0.00780867 0)
(1.00412 0.00469278 1.51663e-20)
(0.975199 0.0378705 1.50626e-20)
(1.08801 -0.00555689 0)
(1.05022 0.0104934 -3.19659e-21)
(1.09854 0.00200847 0)
(0.382205 -0.0474423 0)
(0.459733 -0.0172927 -5.85661e-21)
(1.04492 0.013013 3.66849e-21)
(1.06981 0.0372125 1.60328e-20)
(1.07519 0.0124847 0)
(0.99792 0.0162467 5.01535e-21)
(1.03804 0.0476128 2.72625e-21)
(0.998997 0.000904862 3.11506e-21)
(0.961392 0.159767 8.98459e-21)
(1.03956 0.0257833 1.53392e-22)
(1.00769 0.00800208 0)
(0.259773 0.110064 -1.99914e-22)
(1.02168 0.0148878 1.30985e-21)
(0.990491 0.0407565 1.43348e-20)
(0.618985 -0.00276122 -3.59875e-21)
(1.14576 -0.00954196 -5.35612e-20)
(1.12093 -0.0335822 0)
(1.05498 0.0167578 0)
(1.10108 0.0955347 -2.43849e-20)
(0.191527 -0.0353406 4.80331e-21)
(1.05951 0.0313426 1.31371e-20)
(0.998884 0.017155 -1.2805e-20)
(0.015623 -0.023237 -3.18403e-20)
(0.957386 0.0339277 0)
(1.0002 0.00382863 5.35267e-21)
(0.068368 0.000211993 0)
(0.894894 0.0455862 0)
(1.03003 0.00641465 -3.96595e-22)
(0.974151 0.036576 -9.93965e-21)
(1.0478 0.0132784 0)
(0.0310149 -0.0117825 -7.42495e-22)
(1.03886 0.0463183 -3.03532e-21)
(1.05117 -0.00835127 0)
(1.05244 0.0103199 0)
(0.563588 0.00295184 8.43291e-20)
(0.999084 0.00074168 0)
(1.13615 0.0353689 3.36903e-20)
(0.999095 0.00966691 0)
(1.09153 0.340634 2.38124e-20)
(0.558576 0.201956 0)
(1.06582 0.074273 -1.13737e-20)
(0.93212 0.0444264 2.85036e-23)
(1.0472 -0.00836032 0)
(0.968812 0.0056243 0)
(1.051 0.00903005 -1.16427e-20)
(0.999953 0.000517485 0)
(1.02926 0.0194508 2.44157e-22)
(0.899942 0.0904986 -1.83805e-20)
(0.704856 0.163557 -4.59815e-20)
(1.00036 0.000166892 -8.95851e-21)
(1.04233 0.0109793 -2.03129e-21)
(1.15708 -0.0136371 6.06296e-20)
(0.99716 0.00110688 0)
(1.05567 0.0176749 0)
(1.03107 0.0372414 0)
(0.746824 0.00620208 2.46814e-21)
(1.12672 -0.0018179 -5.75574e-20)
(1.0606 0.00654038 -1.47322e-20)
(1.03088 0.00662151 -4.01921e-24)
(-0.19869 -0.0111655 0)
(0.935565 0.0447697 4.27478e-23)
(1.05117 0.00856476 -3.32125e-21)
(0.313343 -0.0459354 1.78364e-20)
(0.838636 0.119675 -6.47828e-20)
(1.04973 0.0104793 0)
(1.03207 0.00811112 -1.88072e-22)
(1.0408 0.0378719 3.5393e-21)
(1.00425 0.000153103 5.44705e-21)
(1.21275 0.18546 0)
(1.00038 0.00425713 -1.5882e-20)
(1.02659 0.0477848 0)
(0.985801 0.0019103 0)
(1.01682 0.0121066 -1.81356e-21)
(0.770488 0.00560243 -7.82624e-21)
(1.00288 0.0207906 -6.03122e-21)
(0.97806 0.0388591 1.47855e-20)
(1.05169 0.00873585 4.1866e-21)
(0.270816 -0.0298876 -1.53271e-21)
(1.02137 0.0198309 0)
(1.0362 0.0256434 7.38987e-22)
(1.01376 0.00974075 2.86243e-23)
(1.05036 0.0128052 9.54796e-21)
(-0.198643 -0.0144661 -4.12946e-23)
(0.884506 -0.0480775 2.48492e-22)
(1.018 0.390404 0)
(1.03985 0.0445624 -1.8671e-21)
(0.570663 -0.00899888 8.3468e-22)
(1.03676 0.0477823 -2.33777e-21)
(1.04103 0.0108817 0)
(0.999965 0.000476595 4.78071e-21)
(1.01712 0.000284171 2.77602e-21)
(1.00301 0.0246938 -7.22925e-21)
(1.01485 0.000188422 -1.11491e-22)
(0.913986 -0.0328822 0)
(1.04965 0.0226002 7.27973e-21)
(0.999932 0.000627648 -5.0342e-21)
(1.19026 0.0284706 5.66653e-20)
(1.01415 0.0096818 -3.48743e-21)
(1.16674 0.0139133 -2.84535e-20)
(1.06706 -0.0201093 0)
(1.05501 0.0113296 -1.61972e-21)
(1.20251 0.0166119 0)
(1.0549 0.0161201 0)
(0.668016 -0.0176659 4.90797e-21)
(1.06009 0.00623931 1.09458e-20)
(0.965888 0.0132489 0)
(1.00004 0.00064512 -4.42178e-21)
(0.906292 0.0898732 -4.38646e-20)
(1.0222 0.0323733 0)
(1.01912 0.0202557 -2.49707e-21)
(-0.181622 -0.0141796 -6.00339e-20)
(1.05207 0.0122214 -6.07923e-21)
(0.970456 0.00228407 0)
(1.0681 0.03756 0)
(0.302751 0.000449311 0)
(0.487205 -0.0363068 3.58265e-22)
(1.06383 0.0144356 1.09601e-20)
(1.05391 0.016216 0)
(1.04062 0.0595364 -5.05691e-21)
(1.04877 0.00831899 0)
(1.04156 0.00806812 0)
(0.921619 0.0601069 -2.1229e-20)
(-0.162086 -0.0164618 -9.45683e-20)
(0.984752 0.0148841 -8.0183e-23)
(1.02201 0.0198823 0)
(1.07431 0.0556334 2.29531e-20)
(0.917495 0.0610491 0)
(1.05872 0.0162969 3.51746e-21)
(1.07981 0.0416144 -2.67421e-20)
(1.01498 0.000753305 -3.15866e-21)
(1.04928 0.0938568 -1.33563e-20)
(0.999919 0.000591998 2.99414e-21)
(0.985836 0.00109222 0)
(0.511455 0.0138745 -1.37709e-21)
(1.06476 0.0144607 -1.33637e-20)
(1.00306 0.0238641 0)
(1.13075 0.0310567 3.23236e-20)
(0.977375 0.0377236 -6.82743e-21)
(1.00351 0.00974662 -6.78826e-21)
(0.898015 0.168795 4.97045e-20)
(0.499085 -0.026928 -1.87162e-21)
(0.994671 -1.81935e-05 1.80534e-21)
(0.998355 0.00898204 -9.19512e-21)
(1.01106 0.00154338 5.21442e-21)
(1.02928 0.0179308 -1.76313e-22)
(0.49079 0.0115214 0)
(0.995105 0.000146934 -1.30541e-21)
(0.967573 0.0141429 0)
(1.17738 0.0151363 0)
(1.01099 0.0321225 0)
(1.00901 0.0452121 -2.29113e-21)
(0.138667 -0.0233053 4.30807e-20)
(0.996447 0.00281663 9.79577e-21)
(1.20863 0.0250222 -1.82627e-20)
(1.02188 0.00454716 -1.70061e-21)
(1.04102 0.00390454 3.40495e-21)
(0.488615 0.0137348 0)
(1.0601 0.0163665 0)
(0.972818 0.0037101 9.4139e-21)
(0.996873 0.000439782 8.96595e-21)
(1.05244 0.0105964 0)
(1.04566 0.0115959 0)
(1.02119 0.00453965 2.00849e-21)
(0.98243 0.055672 -2.18998e-22)
(1.01146 0.000792948 2.43988e-21)
(1.04981 0.0906887 3.84124e-21)
(1.03188 0.00846407 -4.88702e-22)
(1.07291 0.053675 -2.29817e-20)
(1.05836 0.0133247 -9.70787e-21)
(1.04193 0.011072 0)
(-0.0456677 -0.0214564 -4.55188e-20)
(1.05007 0.0106456 0)
(0.810711 -0.0347897 -2.38273e-20)
(0.997911 0.0743495 -8.16756e-21)
(1.02226 0.00469585 8.22725e-22)
(1.08308 -0.00477585 -8.94301e-21)
(0.99897 0.00569299 0)
(1.04992 0.010352 5.08281e-21)
(1.14153 0.0166067 0)
(0.89641 0.0742659 -6.01272e-20)
(1.04228 0.00385683 0)
(0.60303 -0.0100592 0)
(1.0033 0.000519447 5.41514e-21)
(0.417265 -0.00265349 -4.44674e-20)
(1.08221 -0.00157547 -9.45659e-21)
(1.04928 0.0230493 -6.31102e-21)
(0.930309 0.0398673 -1.58088e-20)
(0.235293 -0.0406368 5.64865e-20)
(0.462698 -0.0507931 -1.23502e-20)
(1.02191 0.00611291 0)
(1.00615 0.00133628 1.81192e-21)
(1.00539 0.00839328 4.91789e-21)
(1.15284 0.0292639 -2.70415e-20)
(1.12633 0.0479525 0)
(0.0488166 -0.0237752 -5.52793e-21)
(-0.0764944 -0.00975454 0)
(0.998667 0.00898728 -7.78909e-21)
(1.05386 0.00670794 0)
(0.724508 0.292937 4.47911e-20)
(1.06129 -0.00880724 0)
(1.05108 0.00856346 3.81064e-21)
(1.05007 0.0131025 0)
(1.05705 0.0458257 -3.42537e-21)
(1.0306 0.0148999 -5.37511e-22)
(1.04513 0.0119605 -3.80905e-21)
(0.351576 -0.0451922 -1.67358e-20)
(1.07054 0.0540552 2.79871e-22)
(1.05371 0.0123693 -2.24812e-21)
(1.02087 0.00467208 -2.33189e-21)
(1.00538 0.00818663 5.2506e-21)
(1.03409 0.0114943 0)
(1.06321 0.072439 0)
(1.00966 0.00694788 7.41646e-21)
(1.04346 -0.00116131 -3.58264e-21)
(1.00012 0.00381249 -6.85381e-21)
(0.466109 0.013621 -4.85312e-21)
(1.06792 -0.0211845 -1.03759e-20)
(1.04719 0.0889561 2.62447e-21)
(0.705974 0.176176 0)
(1.03015 0.0151108 2.43169e-22)
(0.999103 0.0178189 0)
(0.596613 -0.00952136 -3.09651e-21)
(1.04454 0.0136078 6.71806e-21)
(0.469046 0.0141051 5.31041e-22)
(1.00812 0.00817085 -7.50081e-21)
(1.03449 0.0113251 -6.22623e-23)
(1.00936 0.0221393 8.76235e-21)
(1.00004 0.000170965 9.68658e-21)
(1.05459 0.00753658 -1.45077e-21)
(1.05563 0.0169768 0)
(0.000724693 -0.0247281 3.33063e-23)
(-0.0976332 -0.0110735 9.54893e-20)
(0.996807 0.000864421 0)
(1.04013 0.0155232 5.85727e-21)
(1.05384 0.016674 6.64177e-22)
(1.07136 -0.00449801 -1.54735e-20)
(0.999251 0.209204 7.47354e-23)
(1.02206 0.0985252 0)
(1.03251 0.0120559 -1.79524e-21)
(1.10265 0.412809 0)
(0.991943 0.0662113 6.33462e-21)
(0.960093 -0.0458998 3.17724e-20)
(1.02463 0.0106126 1.1659e-21)
(1.1326 -0.0100656 1.18566e-20)
(0.428305 0.0106721 -1.03075e-21)
(1.00976 0.00670801 -4.04375e-21)
(0.996545 0.0188979 6.01632e-21)
(1.06027 0.132396 -8.44435e-21)
(1.00001 -0.000263245 8.50614e-21)
(1.02154 0.00472662 -6.29065e-23)
(1.08024 0.045522 0)
(1.04039 0.0196059 1.19607e-22)
(0.593221 0.0143445 4.03823e-21)
(1.07889 0.0153843 0)
(1.09842 -0.0286765 0)
(1.00307 0.0200069 0)
(1.12344 -0.0152322 2.26485e-20)
(0.75571 0.552662 0)
(1.06426 0.130904 4.77982e-22)
(1.00001 -0.000226983 0)
(0.544233 0.0133344 -5.05617e-21)
(1.01344 0.0219386 1.86853e-21)
(1.05026 0.00408678 0)
(0.995351 0.00337931 -1.21712e-20)
(0.998992 0.000363312 0)
(0.551888 0.0155305 5.19212e-21)
(1.0484 0.0050177 3.86231e-21)
(1.0543 0.00468174 3.42612e-21)
(1.05415 0.00685074 0)
(0.994306 0.106444 -1.47505e-20)
(1.02663 0.00787114 0)
(0.545176 -0.021382 -2.95548e-21)
(1.00378 0.0121506 8.10154e-21)
(1.11303 0.0813977 -4.59992e-20)
(1.18644 0.0156643 -2.39782e-20)
(1.05362 0.015857 1.22746e-20)
(1.01044 0.00575321 -3.23311e-21)
(0.992286 0.0139858 -8.48184e-21)
(1.05128 0.00963788 -6.43868e-21)
(1.05874 0.0461799 -3.71126e-21)
(1.00004 0.0010629 0)
(1.12392 0.0545447 0)
(0.798421 0.244755 0)
(1.05484 0.0118172 1.81238e-21)
(0.99202 -0.00817488 -8.22029e-21)
(-0.00601066 -0.00381118 3.8323e-20)
(0.448102 -0.0254412 7.85222e-21)
(1.1216 0.323094 0)
(0.994459 0.0155301 0)
(0.904084 0.173136 1.44628e-20)
(1.02251 0.006628 1.47689e-21)
(1.03845 0.0203458 -3.0815e-21)
(0.946515 0.147239 1.84143e-20)
(0.317341 0.00362142 2.24149e-21)
(0.947336 0.109945 -1.9109e-20)
(0.498098 -0.01255 1.94244e-21)
(0.901429 0.158524 -3.99913e-20)
(1.08786 -0.00700816 0)
(1.04418 0.0120349 2.04903e-21)
(1.02194 0.0331743 0)
(0.368186 -0.0460051 2.88831e-20)
(1.18088 0.0858673 5.4527e-20)
(1.00496 0.00710601 -2.88963e-21)
(1.05251 0.0127198 -4.26807e-21)
(1.08427 -0.00571211 -2.78909e-21)
(1.06028 0.0322341 -1.44481e-20)
(0.947531 0.115558 5.0528e-21)
(1.03932 0.0576134 9.07672e-22)
(1.0234 0.10122 8.07469e-23)
(1.08767 -0.0340921 0)
(1.01099 0.00546299 -6.44738e-21)
(1.07922 0.0380692 -1.72174e-20)
(1.00741 0.00124637 7.89932e-21)
(1.03198 0.03033 -6.93031e-23)
(0.784965 0.006187 -2.14719e-21)
(0.440591 -0.0368213 7.02626e-21)
(1.08801 0.114814 2.26655e-20)
(0.986807 0.00262269 0)
(1.01477 0.00142923 -4.59868e-21)
(1.0211 0.00607426 3.21974e-21)
(0.999683 0.0641418 8.9299e-21)
(0.846992 0.102659 2.79043e-20)
(0.159126 -0.0366532 3.24675e-20)
(1.07632 0.0135161 0)
(1.15309 0.0256899 3.00529e-20)
(0.453831 0.015104 0)
(1.10354 0.0805936 0)
(0.985345 0.10422 -2.23559e-20)
(0.544014 0.0146693 6.17541e-21)
(1.01233 0.0355466 9.65822e-22)
(0.444076 -0.0174119 -2.88055e-21)
(1.02905 0.0478146 1.82087e-22)
(1.0042 0.000851787 0)
(0.987146 0.0102091 -3.46727e-21)
(1.0518 0.0125203 -1.44246e-20)
(1.10642 0.041953 4.55796e-21)
(1.01076 0.00189238 2.99473e-21)
(0.926535 0.0401744 -9.451e-21)
(1.07606 0.0330933 -8.74147e-21)
(1.13025 0.038424 3.15947e-20)
(0.983797 0.101888 1.88199e-20)
(1.04251 0.00802291 -5.2744e-21)
(1.0126 0.0335788 -1.24348e-20)
(1.0436 0.00814627 2.91493e-21)
(1.05086 0.00906451 0)
(1.06257 0.0136438 0)
(1.05183 0.00954187 1.29535e-20)
(1.00051 0.000247561 0)
(0.9796 0.0257578 -2.24289e-20)
(-0.211921 -0.0137643 7.38273e-21)
(0.542772 -0.0197166 4.9535e-21)
(1.00335 0.0350766 -1.00436e-20)
(1.04869 0.00490979 0)
(0.986614 0.00319008 4.17862e-21)
(1.01861 0.00751662 -2.03329e-21)
(0.992503 -0.00768854 1.48272e-20)
(0.999045 0.0667709 -1.52611e-20)
(1.05104 0.0123412 0)
(1.01862 0.0196497 2.05213e-21)
(0.972476 0.128428 4.50469e-21)
(1.03226 0.0132741 0)
(1.04276 0.0593865 5.06888e-21)
(0.992175 0.0147678 0)
(1.08049 0.0497285 6.85984e-21)
(1.04464 0.0139377 9.28059e-23)
(1.01037 0.00607618 -7.21253e-23)
(0.992047 -0.00327211 -1.35407e-20)
(1.07765 0.0157839 0)
(1.07555 0.0276325 0)
(1.24805 0.129464 -7.9142e-22)
(1.05474 0.0157532 -3.49149e-21)
(1.00502 0.00693624 2.77256e-21)
(0.998775 0.00957402 6.57225e-21)
(1.00418 0.000628597 6.70282e-21)
(0.746045 0.00861068 0)
(0.900242 0.0481631 -2.68913e-20)
(1.09571 0.0382341 -3.42601e-20)
(0.387733 -0.0336987 3.45098e-21)
(1.02164 0.104962 1.38744e-21)
(1.05324 0.0169855 -5.49802e-22)
(0.788285 0.00775661 -2.6001e-21)
(1.0096 0.0228921 -1.07086e-20)
(1.00384 0.0117193 8.34597e-21)
(1.00305 0.000908864 0)
(1.03226 0.0123878 1.46381e-21)
(1.07089 -0.00569865 4.34191e-21)
(1.01122 0.000691799 0)
(1.017 0.00631554 0)
(1.12816 -0.0197419 1.35116e-20)
(1.06014 -0.00467742 0)
(0.929004 0.0640693 -3.21261e-20)
(1.03416 0.00785677 -1.4155e-21)
(0.723969 0.00632472 4.14291e-22)
(0.0707974 0.0235818 -1.47264e-19)
(1.05646 0.00751326 5.41562e-21)
(1.02088 0.0775803 -2.31522e-22)
(1.05636 0.0179773 0)
(1.04995 0.0137699 0)
(1.10074 0.08312 0)
(0.991844 -0.00293771 1.00314e-21)
(1.13105 -0.018483 -2.50303e-20)
(1.04782 0.00920964 -6.38886e-21)
(-0.148825 0.00839947 1.36731e-19)
(0.994438 0.0654954 -1.03589e-20)
(1.01706 0.110661 -1.47037e-21)
(1.06075 0.411821 3.24226e-20)
(1.00687 0.000708271 0)
(1.14054 -0.0141047 2.45511e-20)
(1.04273 0.019529 0)
(1.00003 0.0001884 -6.97713e-21)
(0.22757 -0.0446303 -3.92954e-20)
(1.05122 0.00975958 0)
(0.702507 0.19774 0)
(0.608784 0.013424 -3.80672e-21)
(1.13842 0.051969 3.67112e-20)
(1.00249 0.0193778 5.89836e-21)
(0.724832 0.00865642 4.30973e-22)
(1.00761 0.0088253 0)
(0.984529 0.0544336 1.87489e-22)
(1.04918 0.0166558 1.27677e-20)
(1.03963 0.0384625 -3.37229e-21)
(0.999649 -0.000563191 0)
(-0.0455116 0.0127787 0)
(0.37971 -0.0465604 1.66822e-20)
(1.05125 0.00829744 -8.31424e-22)
(1.04874 0.0136965 0)
(1.01314 0.0766366 -1.51229e-21)
(0.440648 0.00918961 0)
(1.20982 0.031478 -5.47397e-20)
(1.02069 0.113106 1.98621e-21)
(0.430726 -0.0337318 8.11971e-21)
(1.04304 0.0191698 0)
(1.00737 0.00087789 -2.30624e-21)
(1.02042 0.0125004 0)
(0.997136 0.0014884 0)
(0.985921 0.0164534 -2.57995e-20)
(0.452855 0.0166434 8.31001e-22)
(1.05343 0.0133782 -1.05807e-20)
(-0.036359 -0.0210314 4.39661e-20)
(1.04242 -0.00172441 -8.53372e-22)
(1.00688 0.000293876 -1.68765e-22)
(1.07383 0.0125866 0)
(0.909497 0.107526 6.83201e-20)
(1.01936 0.000300721 1.78499e-21)
(1.03112 0.0301649 -1.68507e-24)
(0.335027 -0.0360619 -1.9636e-20)
(0.148702 0.000832169 0)
(1.03805 0.0260418 -4.62666e-21)
(1.09661 0.0399774 9.51872e-21)
(1.01312 0.0418317 1.21198e-22)
(1.00256 0.00866256 1.47255e-20)
(1.07979 0.0360079 9.35237e-21)
(1.04766 0.01263 -3.59002e-21)
(0.495613 -0.0266562 0)
(1.12476 0.00927963 3.52815e-20)
(1.04127 0.0134162 -1.68963e-21)
(1.02108 -0.00205701 -1.01288e-21)
(0.979724 0.0999278 2.20096e-20)
(1.04343 0.0115724 -2.13673e-21)
(1.00036 0.00347351 1.05055e-20)
(0.773489 0.377834 0)
(1.06643 -0.00529234 -6.33396e-21)
(1.0335 0.011117 1.01381e-21)
(1.05094 0.0126309 0)
(0.157701 0.00105462 0)
(0.995046 0.0151242 -7.7634e-21)
(0.985655 0.18744 0)
(1.02632 0.0112565 -1.02482e-21)
(0.439858 0.0152311 -4.11584e-21)
(0.99483 0.186799 -1.81195e-21)
(0.991535 0.0422477 -1.5664e-20)
(1.01557 0.0410393 0)
(1.03281 0.00878734 -1.78133e-21)
(1.01296 0.000834823 2.6179e-21)
(1.01851 0.0764162 0)
(0.506658 0.206119 0)
(1.01459 0.021554 3.68558e-21)
(1.0335 0.012055 0)
(1.04978 0.00859113 0)
(0.988716 0.0407867 -1.87663e-20)
(-0.0130812 -0.0258859 0)
(0.984141 0.22021 -2.79293e-21)
(0.996454 0.00625511 0)
(1.01508 0.00120019 3.33029e-21)
(0.984403 0.0138113 -3.43961e-21)
(0.845168 0.0938771 -1.63198e-20)
(1.00557 0.0353295 -8.34718e-21)
(1.00447 0.00305901 -7.78057e-21)
(1.04452 0.00866854 -9.10445e-22)
(1.10423 -0.0325478 -8.02763e-21)
(1.00156 0.0066486 0)
(1.02599 0.00747231 2.38903e-22)
(1.07585 0.0243321 0)
(0.537738 0.0159689 4.05022e-21)
(0.999886 0.0061671 1.80485e-21)
(1.03646 0.00768657 1.20627e-21)
(1.02948 0.0184922 0)
(1.04777 0.00961492 1.84345e-21)
(1.01739 0.00665508 0)
(0.0481517 -0.0140778 -1.02582e-20)
(1.08193 0.0515746 0)
(1.05485 0.00777953 -3.06924e-21)
(1.08757 0.424648 -1.53437e-20)
(0.957084 0.728212 -3.06608e-20)
(1.03305 0.0118733 4.79796e-22)
(1.19202 0.247211 0)
(1.02039 0.00169228 8.14922e-22)
(0.759173 0.00912491 0)
(1.06546 0.0233126 -1.00273e-20)
(1.05087 0.0135592 0)
(0.995552 0.00101283 -9.78288e-21)
(0.987237 0.0108036 0)
(0.0719972 -0.00898245 0)
(0.971154 0.00350855 1.04153e-20)
(0.868222 -0.00650059 2.13924e-23)
(1.00252 0.00825125 -1.22643e-20)
(1.05522 0.00449263 2.43617e-20)
(0.519371 0.0147607 -1.65242e-21)
(0.112248 -0.00623717 0)
(1.11902 0.00696325 0)
(0.998924 0.000569403 0)
(0.563001 0.012712 0)
(0.999999 1.91121e-05 1.12135e-20)
(1.01521 0.0217625 0)
(1.04972 0.00879592 5.76042e-21)
(1.22593 0.30306 3.56294e-20)
(0.969761 0.0169143 0)
(1.15983 0.0418902 -2.46197e-20)
(1.05039 0.00901487 9.29407e-21)
(0.993276 0.041894 -1.38238e-20)
(1.05301 0.013264 5.28359e-21)
(1.00002 0.000535358 8.83746e-21)
(1.00781 0.0442881 -5.07907e-21)
(0.985346 0.017187 2.53915e-20)
(1.00633 0.000295709 1.08797e-22)
(1.00419 0.00304631 1.15989e-20)
(1.14663 0.0934189 3.3943e-20)
(0.996519 0.000112077 -9.16354e-21)
(1.0773 0.0267475 0)
(1.04507 0.0109404 3.33299e-21)
(0.509518 0.202614 -2.99071e-20)
(0.999996 -0.000136912 0)
(1.10469 -0.0320397 -7.55583e-21)
(1.02307 0.00908262 6.48268e-22)
(0.836866 0.111001 1.60813e-20)
(1.05072 0.00866006 -2.8052e-21)
(1.10289 0.00164384 1.48652e-20)
(1.06338 0.0136145 -3.02721e-21)
(1.09812 0.0980735 1.98031e-20)
(1.05994 0.037067 6.49144e-21)
(1.04859 0.00816078 1.12546e-20)
(0.999977 -0.000506486 0)
(1.05222 0.0130779 3.67756e-21)
(1.0838 -0.0077237 -1.38873e-20)
(0.924353 0.0643494 1.17569e-20)
(1.01231 0.000759503 -8.18358e-22)
(1.01828 0.00691108 2.20902e-21)
(0.175652 -0.0262455 -4.51481e-20)
(1.04991 0.010054 6.71305e-21)
(1.08063 0.0395767 9.27048e-21)
(1.02985 0.0160224 -1.64466e-22)
(1.00658 0.000875889 2.73794e-21)
(1.13446 0.0313094 -3.52312e-20)
(1.04912 0.00988375 5.92762e-21)
(0.790086 0.00886807 0)
(0.328378 -0.0141603 8.23154e-21)
(1.05966 -0.00546153 -5.36364e-21)
(1.0615 0.00734202 -1.19471e-20)
(0.059952 -0.0244879 -3.98731e-20)
(1.02548 0.00737759 -2.72707e-22)
(1.00022 0.000180323 -6.86862e-21)
(0.40147 0.0129312 1.40367e-21)
(1.06535 0.0244392 1.2194e-20)
(1.04638 0.422969 0)
(1.05469 0.00455736 -3.51324e-21)
(0.996748 0.00176209 -9.1781e-21)
(1.01875 0.000468739 0)
(1.04997 0.00379599 -3.65588e-21)
(1.01987 0.0122318 0)
(0.631672 0.0124034 4.08656e-21)
(1.04652 0.00781841 0)
(1.05038 0.00912329 -3.24194e-21)
(1.02343 0.0128829 1.09084e-21)
(1.04778 0.0138243 5.94854e-22)
(1.00026 0.00160507 0)
(1.21073 0.0266006 4.62295e-20)
(1.03303 0.0112796 -8.39899e-22)
(1.0249 0.0191702 1.16158e-21)
(0.870756 0.271248 1.05745e-20)
(1.12321 0.0124775 -7.97344e-21)
(1.04312 0.0113521 4.16012e-21)
(0.0712781 -0.0223472 9.4318e-21)
(0.982302 0.227473 -4.32441e-21)
(0.8793 -0.00559236 -5.25209e-21)