/*--------------------------------*- C++ -*----------------------------------*\
| =========                 |                                                 |
| \\      /  F ield         | OpenFOAM: The Open Source CFD Toolbox           |
|  \\    /   O peration     | Version:  v2012                                 |
|   \\  /    A nd           | Website:  www.openfoam.com                      |
|    \\/     M anipulation  |                                                 |
\*---------------------------------------------------------------------------*/
FoamFile
{
    version     2.0;
    format      ascii;
    class       volVectorField;
    location    "300";
    object      U_0;
}
// * * * * * * * * * * * * * * * * * * * * * * * * * * * * * * * * * * * * * //

dimensions      [0 1 -1 0 0 0 0];


internalField   nonuniform List<vector> 
14804
(
(0.721148 0.006946 -3.37382e-22)
(1.00746 0.00990082 0)
(1.05129 0.0034662 2.14947e-22)
(1.0524 0.0123608 4.22254e-21)
(1.06047 0.0155402 4.3814e-23)
(1.0658 0.00676807 -2.38213e-22)
(1.02955 0.044888 -3.16829e-23)
(0.978796 0.00689628 2.28392e-20)
(1.04796 0.00883576 0)
(1.0003 0.000208601 -6.51789e-24)
(1.12778 -0.0138844 0)
(1.05178 0.0022565 0)
(0.96875 0.00132138 1.0488e-21)
(1.0547 0.0109981 -3.17354e-21)
(1.14654 0.0407679 8.20042e-20)
(0.0593982 -0.00235506 2.77154e-20)
(1.06121 0.0150933 9.53884e-23)
(1.0523 0.013504 9.46569e-21)
(0.307299 0.00848564 4.38066e-21)
(1.05098 0.00907142 0)
(0.999997 9.29789e-07 4.77445e-21)
(1.01073 0.070217 3.64926e-21)
(0.973638 0.133643 7.63141e-21)
(1.03264 0.0357651 1.03229e-21)
(0.0353248 -0.00468896 0)
(1.03141 0.036133 -2.54776e-22)
(1.05128 0.00940935 0)
(1.05828 0.0140813 8.78003e-21)
(0.813481 0.00686076 3.58524e-21)
(1.03903 0.0263027 4.8516e-21)
(1.0325 0.0103224 -4.31338e-22)
(0.955007 0.123476 0)
(1.05097 0.00905085 8.92542e-21)
(1.07554 0.0297128 0)
(1.04859 0.00967748 -3.51406e-21)
(1.03058 0.0443465 1.2118e-23)
(1.05787 0.0160577 0)
(1.00003 0.000944663 0)
(0.95019 0.0902038 3.44673e-20)
(1.05176 0.0088398 -8.58819e-21)
(1.05089 0.00378684 -4.96104e-21)
(1.04883 0.00968337 0)
(0.701476 0.291768 0)
(0.994797 0.0185004 7.91229e-21)
(1.05978 0.0152236 0)
(0.955758 0.0308412 0)
(1.03546 -0.0182 -5.24227e-21)
(0.982668 0.0296625 -2.68494e-20)
(1.01072 0.0726278 7.32866e-21)
(1.12413 0.306133 -7.08661e-20)
(0.967286 0.00422292 -2.50698e-20)
(1.0185 0.000547519 -3.35483e-21)
(0.999145 0.00583219 1.03151e-20)
(1.04789 0.0128819 0)
(1.11272 0.332403 0)
(1.01035 0.0114587 -5.02887e-21)
(1.04904 -0.0021177 -2.66559e-21)
(0.832323 0.00706897 2.44304e-21)
(0.996235 -0.00348498 -1.55127e-20)
(0.953286 0.0312252 0)
(0.559123 0.0151694 -5.54108e-21)
(0.96565 0.00483886 -2.50164e-22)
(0.996356 0.0206113 -4.26669e-21)
(0.979545 0.0101084 -5.22188e-21)
(0.995972 0.0198125 -3.80449e-21)
(0.99884 0.00504422 -7.7232e-21)
(0.999971 -4.26193e-05 -1.16664e-20)
(1.02264 0.0465974 0)
(1.00153 0.000460951 0)
(0.596543 -0.0118245 8.47923e-22)
(1.03505 0.00805049 1.51465e-21)
(1.05121 0.00949077 0)
(1.13715 -0.0080692 1.24116e-20)
(0.502712 -0.0199906 6.78006e-21)
(1.04197 0.00918911 4.8237e-21)
(0.613661 -0.0116002 -8.78121e-22)
(-0.0376484 -0.00741117 1.54048e-22)
(1.00763 0.00956896 3.83374e-21)
(0.832571 0.139017 0)
(1.02237 0.00626874 -1.04653e-21)
(-0.091651 -0.0203967 7.33279e-20)
(0.999024 0.00517522 7.0018e-21)
(1.02235 0.00716485 1.13758e-21)
(1.04187 0.00953415 -2.20673e-21)
(1.00006 0.000606219 2.13144e-21)
(1.08565 -0.00825935 1.97824e-20)
(1.01073 0.00162772 -4.39787e-21)
(1.04492 0.0114026 -1.98678e-21)
(1.00911 0.00721442 3.46767e-21)
(1.05882 0.0143901 9.71728e-21)
(1.07029 0.0354018 -2.76837e-22)
(0.984932 0.0657125 -4.97849e-21)
(1.04907 0.00822272 -4.8732e-21)
(1.03368 0.00796433 1.14215e-21)
(1.13261 0.301009 5.26795e-20)
(-0.0222244 -0.00881697 4.56899e-20)
(0.800798 0.00673133 -2.47177e-21)
(0.954052 0.117738 0)
(1.01772 0.0427591 -3.16734e-21)
(1.13587 -0.0159246 0)
(0.821138 0.00721635 -2.47898e-21)
(0.687364 -0.0155069 -1.49421e-21)
(1.00005 0.000491476 4.63233e-21)
(1.05517 0.0104098 9.98818e-22)
(1.04337 0.0118299 -2.04753e-21)
(0.629881 -0.0156267 3.22766e-21)
(1.05167 0.00261927 0)
(1.1052 0.33014 -2.64811e-20)
(0.993195 -0.00123998 1.33525e-20)
(1.03307 0.0102891 7.14851e-22)
(0.994288 0.00746139 0)
(0.731739 0.00831633 3.13791e-21)
(1.04906 0.00802517 -3.97141e-21)
(-0.196242 -0.013597 5.24035e-20)
(0.708893 0.00954113 -4.26519e-21)
(-0.128438 -0.0187023 4.70971e-20)
(1.04335 -0.00332237 -1.62054e-21)
(1.07177 0.0345224 1.0628e-20)
(1.00005 0.000591736 -1.49068e-20)
(1.0527 0.0136424 -9.48619e-21)
(-0.0599087 -0.0101902 -8.97224e-20)
(1.00917 0.0069004 -1.0218e-20)
(1.03866 0.0452009 4.36447e-21)
(1.06603 0.015511 -1.60921e-21)
(0.996612 -0.0035571 1.41309e-20)
(1.00002 0.000675467 0)
(1.04241 -0.00126432 3.48512e-21)
(1.05482 0.0106064 -3.94784e-21)
(0.969212 0.144575 -1.69739e-20)
(1.06428 0.0215498 0)
(1.0643 0.0226119 0)
(1.11679 0.00499665 0)
(0.607995 -0.00349179 0)
(1.11901 -0.019146 0)
(1.03888 0.00215053 -3.22023e-21)
(1.06515 0.0155248 0)
(0.994043 0.0183561 1.02296e-20)
(1.10937 -0.0360756 0)
(1.03926 0.0216273 0)
(1.07719 0.0305152 0)
(1.0032 0.00977659 6.72563e-21)
(0.0737575 0.0232473 0)
(1.01795 0.000457624 3.36714e-21)
(-0.237882 -0.0112323 0)
(0.205342 -0.00642122 0)
(1.00132 0.000407925 0)
(1.04421 0.0117397 0)
(0.993767 -0.00112467 -1.29948e-20)
(1.06579 -0.0206434 0)
(0.311723 0.0108051 6.20932e-21)
(1.04796 0.0086017 0)
(0.0975299 0.000563927 0)
(1.05169 0.00898009 9.57825e-21)
(1.05442 0.00996855 -9.36709e-21)
(1.02217 0.00682862 -2.57422e-22)
(0.780957 0.00735834 0)
(1.05094 0.00856849 -4.9469e-21)
(1.17148 0.0166423 -2.72187e-20)
(0.269874 -0.000263899 -2.77934e-21)
(1.0696 -0.0216798 -9.81658e-21)
(1.00462 0.00593074 0)
(1.00309 0.000647596 -1.17348e-20)
(0.619774 -0.00455696 0)
(0.0129036 -0.00344257 1.48112e-20)
(1.05105 0.0198179 1.1467e-20)
(0.767989 0.00777349 0)
(0.982123 0.0310141 1.91325e-20)
(0.547156 0.0139698 0)
(1.0396 0.0242804 -1.96563e-21)
(0.978877 0.00568397 -2.962e-20)
(1.05313 0.00546598 0)
(0.992702 0.0757727 -8.47555e-21)
(1.05851 -0.00371013 4.76505e-21)
(1.14214 0.0402569 -3.96549e-20)
(1.05376 0.00337747 3.988e-21)
(1.11993 -0.0179851 -2.1631e-20)
(0.843968 0.0671284 0)
(1.07722 0.0250732 0)
(1.01433 0.00135996 -1.71878e-21)
(1.04972 -0.00256626 -9.8901e-22)
(1.06498 0.00643148 -9.52776e-21)
(0.393878 -0.0407641 3.28412e-23)
(1.03121 0.0406169 8.56719e-23)
(0.881599 0.00728777 6.66269e-20)
(0.984648 0.0632505 0)
(0.855361 -0.00580009 2.14779e-21)
(1.08914 0.0231768 2.0327e-20)
(1.08762 0.0242865 -1.85185e-20)
(1.05525 0.0259916 0)
(1.01913 0.00764475 1.81591e-21)
(0.690761 0.270702 3.48696e-20)
(1.00642 -0.0185226 2.99871e-21)
(1.01306 0.0346663 3.36019e-21)
(1.08877 -0.0338552 0)
(1.05961 0.0159648 -2.47343e-21)
(1.00003 0.0186166 0)
(0.702731 -0.0167182 1.64155e-21)
(0.970507 0.00493492 -4.34529e-21)
(1.10649 0.0894029 0)
(0.386575 0.00712006 -3.53442e-21)
(0.110016 -0.00964426 -5.30142e-21)
(1.01939 0.00747806 0)
(1.04633 0.0277278 -8.25105e-21)
(1.12725 0.0522608 0)
(0.949104 -0.00354963 0)
(0.291772 0.00260572 2.97075e-22)
(1.05089 0.00845608 -8.1062e-21)
(1.10715 -0.0308111 1.47465e-20)
(1.0732 0.0353597 0)
(1.02794 0.0472966 0)
(1.03916 0.0248156 -1.53376e-21)
(0.569901 0.0156766 -4.36213e-21)
(1.02406 0.047094 0)
(1.00464 0.00575598 0)
(1.00189 0.049798 0)
(1.03974 0.0222388 0)
(1.05445 0.0103875 0)
(1.00332 0.0222843 3.49669e-21)
(0.988606 0.00362802 -8.94631e-21)
(0.99629 0.0180762 -5.57177e-21)
(0.889264 0.0294326 4.57085e-22)
(1.04876 0.0085205 -6.94524e-23)
(1.10879 0.0872321 9.89851e-22)
(0.990946 0.0733371 1.11968e-20)
(1.02893 0.0189544 -2.94767e-22)
(1.112 -0.0293064 3.56249e-20)
(1.05103 0.0089891 -3.86791e-21)
(1.03799 0.0123085 5.07e-21)
(0.65369 -0.00472827 3.20339e-21)
(1.01314 0.0665142 -2.73107e-21)
(1.03319 0.00912954 1.00878e-21)
(1.04529 0.0277301 3.61596e-21)
(0.988022 0.00421098 0)
(0.470439 -0.0111215 0)
(0.456482 -0.018896 9.85533e-22)
(1.00003 0.000513639 0)
(0.959745 0.0339071 0)
(1.04579 0.0133948 4.22295e-21)
(1.1005 0.000671492 -1.24418e-20)
(1.04547 0.0565725 -9.46147e-21)
(0.0116348 0.0184751 6.84233e-20)
(1.01049 0.404613 -5.06262e-21)
(1.01626 0.0427111 6.41159e-22)
(0.995453 0.017822 -7.3661e-21)
(1.02221 0.01521 -1.28365e-21)
(1.08607 -0.00985223 1.1909e-20)
(1.05974 0.0336305 -1.00529e-20)
(1.05089 0.0204811 -6.85757e-21)
(0.967887 0.136731 9.07817e-21)
(1.03349 0.0106806 0)
(0.504103 0.109944 -7.12688e-20)
(0.999846 0.0180713 -6.32977e-21)
(1.00402 0.00435297 -7.54466e-21)
(1.0074 0.00905739 -3.98027e-21)
(0.664824 0.00038434 2.07406e-21)
(0.949513 -0.00558487 1.99377e-20)
(1.01821 0.00728857 0)
(1.04897 0.0244277 -7.87032e-22)
(1.03457 0.00820407 -9.10074e-23)
(0.998891 0.00382016 0)
(0.977379 -0.00134174 0)
(1.05554 0.0251176 1.32823e-21)
(0.964053 0.147291 1.13849e-20)
(0.973785 0.00452918 -1.75047e-20)
(1.17137 -0.0160453 -3.14688e-20)
(1.03673 0.0250144 2.84927e-22)
(1.05078 0.00850411 1.13011e-20)
(1.02162 0.0143362 -1.33396e-21)
(0.362579 0.00424098 -1.70663e-21)
(0.47473 0.0125319 1.39711e-22)
(0.340191 -0.0372548 1.0706e-20)
(0.142926 0.00496807 0)
(1.00004 0.000456835 1.32835e-20)
(0.996209 -0.00459176 1.18465e-20)
(0.167497 0.0353315 6.41801e-20)
(1.14895 0.0365993 -7.07912e-20)
(1.04539 0.0130056 0)
(0.194922 -0.00375303 0)
(0.762543 0.207153 -5.12507e-20)
(0.616096 -0.0148919 -2.21937e-21)
(1.04622 0.0136492 -5.21713e-21)
(1.00589 0.00117607 -2.97844e-21)
(0.569345 0.012051 -2.11646e-21)
(0.55271 0.0129808 5.22834e-21)
(0.152158 -0.0325158 -1.25053e-21)
(1.11579 -0.0312921 -1.92269e-20)
(0.767798 0.225973 5.69713e-20)
(1.04524 0.0116702 5.40744e-21)
(0.890013 0.0483538 0)
(1.04697 0.00524929 0)
(1.00353 0.0215031 -5.70689e-21)
(1.03519 0.0254619 8.51096e-22)
(1.01322 0.0690341 -2.46072e-21)
(1.0421 0.0102257 2.20709e-21)
(1.066 0.00751129 -9.1911e-21)
(1.24702 0.194798 4.45362e-20)
(1.11724 0.00129621 0)
(0.953216 0.149164 -2.57435e-20)
(1.00382 0.0225939 6.19053e-21)
(0.884359 0.0278734 -6.8261e-20)
(1.01721 0.0124989 0)
(1.00613 0.00902586 -4.65484e-21)
(0.899479 0.0785589 5.59792e-20)
(1.05097 0.00900719 2.44572e-21)
(0.829203 0.128458 0)
(1.03019 0.0400962 0)
(1.08073 0.117623 -3.35879e-20)
(0.653119 -0.0167851 -2.54774e-21)
(1.14029 0.0357534 3.67792e-20)
(-0.22691 -0.0137279 0)
(0.39885 0.0055803 3.14353e-21)
(1.04225 0.00988298 -2.43895e-21)
(0.953563 0.0782998 1.88523e-20)
(1.04353 0.0570947 4.79884e-21)
(0.699646 0.00027827 6.46672e-23)
(1.00034 0.0503573 0)
(0.986412 -0.000759632 -2.16479e-22)
(1.12391 -0.00361367 -1.72133e-20)
(1.02051 0.00446597 0)
(0.783358 0.0715563 -4.00964e-20)
(1.04784 0.0136095 -5.24798e-22)
(1.04354 -0.00362106 -1.24144e-21)
(1.04745 0.0128032 -7.27456e-21)
(0.334696 0.00793712 0)
(1.0412 0.00788998 0)
(1.05104 0.00905246 1.97088e-21)
(1.1439 0.0153789 2.4164e-20)
(0.996587 -0.0041984 -1.42652e-20)
(1.22009 0.0227497 1.96086e-20)
(0.2805 -0.00155664 4.13382e-21)
(1.05557 0.0105418 3.53004e-21)
(1.05262 0.0102478 7.05166e-21)
(0.847465 0.0608149 4.73829e-20)
(0.954227 0.0743413 -5.92799e-21)
(0.99901 0.00386836 0)
(1.03213 0.00991105 -6.12206e-22)
(1.00576 0.00892423 -4.80488e-21)
(-0.228474 -0.0103425 -3.78856e-20)
(0.971655 0.0369806 -1.26342e-20)
(1.05799 -0.00324744 -2.58844e-21)
(0.997944 0.0720121 5.00808e-21)
(1.0404 0.0159422 -1.9863e-21)
(1.06073 0.0344802 1.74233e-20)
(0.967164 0.00204822 1.65603e-20)
(1.03355 0.00835307 -9.69561e-23)
(0.739842 0.00540704 2.8809e-21)
(0.285887 -0.0325717 0)
(0.630305 -0.0100042 1.31588e-21)
(1.04779 0.00896573 0)
(0.124853 -0.011764 -7.94894e-22)
(0.160737 -0.00526866 -7.78388e-21)
(1.04896 0.0250309 -8.78978e-21)
(0.999332 0.00556605 -7.17303e-21)
(1.0211 0.0140675 1.37162e-21)
(0.970512 0.0354014 -1.28755e-20)
(1.04704 0.0138086 2.29805e-21)
(1.01411 0.0408985 0)
(0.30658 0.00961506 -4.39333e-21)
(1.02617 0.00780867 0)
(1.00412 0.00469278 1.51678e-20)
(0.975199 0.0378705 1.50635e-20)
(1.08801 -0.00555567 0)
(1.05022 0.0104938 -3.19633e-21)
(1.09854 0.00200845 0)
(0.38221 -0.0474442 0)
(0.459731 -0.0172977 -5.85584e-21)
(1.04492 0.0130131 3.66793e-21)
(1.06981 0.0372124 1.60313e-20)
(1.07519 0.0124849 0)
(0.99792 0.0162467 5.01573e-21)
(1.03804 0.0476128 2.72492e-21)
(0.998997 0.000904863 3.11523e-21)
(0.961392 0.159767 8.98558e-21)
(1.03956 0.0257833 1.53392e-22)
(1.00769 0.00800208 0)
(0.2598 0.110089 -2.001e-22)
(1.02168 0.0148878 1.3103e-21)
(0.990491 0.0407565 1.43359e-20)
(0.618987 -0.0027558 -3.59834e-21)
(1.14576 -0.00956154 -5.35594e-20)
(1.12093 -0.0335888 0)
(1.05498 0.0167578 0)
(1.10108 0.0955346 -2.43833e-20)
(0.191535 -0.0353404 4.80285e-21)
(1.05951 0.0313426 1.31356e-20)
(0.998884 0.017155 -1.28061e-20)
(0.0156255 -0.0232307 -3.18399e-20)
(0.957386 0.0339277 0)
(1.0002 0.00382863 5.35306e-21)
(0.0683638 0.000216942 0)
(0.894894 0.0455862 0)
(1.03003 0.00641465 -3.96236e-22)
(0.974151 0.036576 -9.94025e-21)
(1.0478 0.0132784 0)
(0.0310213 -0.0117818 -7.4243e-22)
(1.03886 0.0463183 -3.03405e-21)
(1.05116 -0.00834721 0)
(1.05244 0.0103199 0)
(0.563585 0.00293399 8.43281e-20)
(0.999084 0.00074168 0)
(1.13615 0.035369 3.36889e-20)
(0.999095 0.00966691 0)
(1.09153 0.340635 2.38098e-20)
(0.558576 0.201973 0)
(1.06582 0.074273 -1.13724e-20)
(0.93212 0.0444264 2.84868e-23)
(1.04719 -0.0083597 0)
(0.968812 0.0056243 0)
(1.051 0.00903014 -1.16418e-20)
(0.999953 0.000517484 0)
(1.02926 0.0194508 2.44997e-22)
(0.899942 0.0904986 -1.83812e-20)
(0.704886 0.163583 -4.59832e-20)
(1.00036 0.000166892 -8.95928e-21)
(1.04233 0.0109793 -2.03094e-21)
(1.15709 -0.0136739 6.06246e-20)
(0.99716 0.00110688 0)
(1.05567 0.0176749 0)
(1.03107 0.0372413 0)
(0.746827 0.00619785 2.46756e-21)
(1.12672 -0.00182086 -5.75554e-20)
(1.0606 0.00654024 -1.47309e-20)
(1.03088 0.00662151 -4.07023e-24)
(-0.198692 -0.0111665 0)
(0.935565 0.0447697 4.27214e-23)
(1.05117 0.00856491 -3.32098e-21)
(0.313348 -0.0459371 1.78348e-20)
(0.838636 0.119675 -6.47851e-20)
(1.04973 0.0104793 0)
(1.03207 0.00811112 -1.87956e-22)
(1.0408 0.0378719 3.5382e-21)
(1.00425 0.000153103 5.44771e-21)
(1.21276 0.185454 0)
(1.00038 0.00425713 -1.58832e-20)
(1.02659 0.0477848 0)
(0.985801 0.0019103 0)
(1.01682 0.0121066 -1.81395e-21)
(0.770489 0.0055967 -7.8247e-21)
(1.00288 0.0207906 -6.03179e-21)
(0.97806 0.0388591 1.47865e-20)
(1.05169 0.00873616 4.1863e-21)
(0.270819 -0.0298822 -1.53262e-21)
(1.02137 0.0198309 0)
(1.0362 0.0256434 7.38577e-22)
(1.01376 0.00974075 2.8623e-23)
(1.05036 0.0128053 9.5469e-21)
(-0.198642 -0.0144647 -4.13081e-23)
(0.884507 -0.0480765 2.47597e-22)
(1.018 0.390403 0)
(1.03985 0.0445623 -1.86653e-21)
(0.57067 -0.00899742 8.3422e-22)
(1.03676 0.0477823 -2.33663e-21)
(1.04103 0.0108818 0)
(0.999965 0.000476594 4.78101e-21)
(1.01712 0.000284171 2.77677e-21)
(1.00301 0.0246938 -7.22997e-21)
(1.01485 0.000188422 -1.11497e-22)
(0.913971 -0.0329089 0)
(1.04965 0.0226002 7.27866e-21)
(0.999932 0.000627648 -5.03452e-21)
(1.19027 0.0284322 5.66688e-20)
(1.01415 0.0096818 -3.48806e-21)
(1.16675 0.013915 -2.84531e-20)
(1.06706 -0.0201037 0)
(1.05501 0.0113296 -1.61956e-21)
(1.20251 0.0165987 0)
(1.0549 0.0161201 0)
(0.668019 -0.017671 4.90597e-21)
(1.06009 0.00623916 1.09449e-20)
(0.965888 0.0132489 0)
(1.00004 0.00064512 -4.42212e-21)
(0.906292 0.0898732 -4.38666e-20)
(1.0222 0.0323733 0)
(1.01912 0.0202557 -2.49764e-21)
(-0.181623 -0.0141778 -6.00338e-20)
(1.05207 0.0122214 -6.07861e-21)
(0.970456 0.00228407 0)
(1.0681 0.03756 0)
(0.302752 0.000447981 0)
(0.487202 -0.0363023 3.58286e-22)
(1.06383 0.0144356 1.09592e-20)
(1.05391 0.016216 0)
(1.04062 0.0595364 -5.05526e-21)
(1.04877 0.00831864 0)
(1.04156 0.00806812 0)
(0.921619 0.0601069 -2.12299e-20)
(-0.162085 -0.0164597 -9.45671e-20)
(0.984752 0.0148841 -8.01935e-23)
(1.02201 0.0198823 0)
(1.07431 0.0556333 2.2951e-20)
(0.917495 0.0610491 0)
(1.05872 0.0163058 3.51709e-21)
(1.07981 0.0416143 -2.674e-20)
(1.01498 0.000753305 -3.1593e-21)
(1.04928 0.0938568 -1.33536e-20)
(0.999919 0.000591997 2.99433e-21)
(0.985836 0.00109222 0)
(0.511458 0.0138735 -1.37679e-21)
(1.06476 0.0144607 -1.33626e-20)
(1.00306 0.0238641 0)
(1.13075 0.0310566 3.23222e-20)
(0.977375 0.0377236 -6.82786e-21)
(1.00351 0.00974662 -6.78888e-21)
(0.898015 0.168795 4.97072e-20)
(0.499079 -0.0269299 -1.8718e-21)
(0.994671 -1.81933e-05 1.80543e-21)
(0.998355 0.00898204 -9.19576e-21)
(1.01106 0.00154338 5.21521e-21)
(1.02928 0.0179308 -1.7683e-22)
(0.490787 0.0115201 0)
(0.995105 0.000146935 -1.30547e-21)
(0.967573 0.0141429 0)
(1.17737 0.0151131 0)
(1.01099 0.0321225 0)
(1.00901 0.0452121 -2.29151e-21)
(0.138673 -0.0233021 4.30794e-20)
(0.996447 0.00281663 9.79632e-21)
(1.20863 0.0250289 -1.82609e-20)
(1.02188 0.00454716 -1.70139e-21)
(1.04102 0.00390671 3.40458e-21)
(0.488617 0.0137342 0)
(1.0601 0.0163751 0)
(0.972818 0.0037101 9.4143e-21)
(0.996873 0.000439783 8.96642e-21)
(1.05244 0.0105965 0)
(1.04566 0.0115959 0)
(1.02119 0.00453965 2.00931e-21)
(0.98243 0.055672 -2.19016e-22)
(1.01146 0.000792948 2.44027e-21)
(1.04981 0.0906887 3.84048e-21)
(1.03188 0.00846407 -4.88353e-22)
(1.07291 0.053675 -2.29796e-20)
(1.05836 0.0133247 -9.70697e-21)
(1.04193 0.011072 0)
(-0.0456646 -0.0214521 -4.55181e-20)
(1.05007 0.010646 0)
(0.810696 -0.0348076 -2.38286e-20)
(0.997911 0.0743495 -8.16867e-21)
(1.02226 0.00469585 8.23146e-22)
(1.08308 -0.00477469 -8.94243e-21)
(0.99897 0.00569299 0)
(1.04992 0.010352 5.0823e-21)
(1.14153 0.0166068 0)
(0.89641 0.0742659 -6.01296e-20)
(1.04228 0.00385899 0)
(0.603036 -0.0100576 0)
(1.0033 0.000519447 5.41567e-21)
(0.417263 -0.00266889 -4.44669e-20)
(1.08221 -0.00157459 -9.45597e-21)
(1.04928 0.0230493 -6.3101e-21)
(0.930309 0.0398673 -1.58095e-20)
(0.235283 -0.0406405 5.64893e-20)
(0.462701 -0.0507925 -1.23488e-20)
(1.02191 0.00611291 0)
(1.00615 0.00133628 1.81213e-21)
(1.00539 0.00839328 4.9184e-21)
(1.15284 0.0292643 -2.70407e-20)
(1.12633 0.0479525 0)
(0.0488205 -0.0237698 -5.52781e-21)
(-0.0764982 -0.00975745 0)
(0.998667 0.00898728 -7.78964e-21)
(1.05386 0.00670794 0)
(0.724508 0.292937 4.47927e-20)
(1.06129 -0.00880865 0)
(1.05108 0.0085636 3.81033e-21)
(1.05007 0.0131025 0)
(1.05705 0.0458257 -3.42494e-21)
(1.0306 0.0148999 -5.36364e-22)
(1.04512 0.0119584 -3.8086e-21)
(0.351581 -0.0451926 -1.6734e-20)
(1.07054 0.0540552 2.79869e-22)
(1.05371 0.0123636 -2.24783e-21)
(1.02087 0.00467208 -2.33281e-21)
(1.00538 0.00818663 5.25115e-21)
(1.03409 0.0114943 0)
(1.06321 0.072439 0)
(1.00966 0.00694788 7.41745e-21)
(1.04346 -0.0011611 -3.582e-21)
(1.00012 0.00381249 -6.85431e-21)
(0.466116 0.0136213 -4.85203e-21)
(1.06792 -0.0211779 -1.0375e-20)
(1.04719 0.0889561 2.62392e-21)
(0.705974 0.176176 0)
(1.03015 0.0151108 2.42623e-22)
(0.999103 0.0178189 0)
(0.596619 -0.00951899 -3.09474e-21)
(1.04454 0.0136079 6.71698e-21)
(0.469053 0.0141053 5.3092e-22)
(1.00812 0.00817085 -7.50173e-21)
(1.03449 0.0113251 -6.22372e-23)
(1.00936 0.0221393 8.76349e-21)
(1.00004 0.000170965 9.6874e-21)
(1.05459 0.00753655 -1.45064e-21)
(1.05563 0.0169768 0)
(0.000726827 -0.0247309 3.33251e-23)
(-0.0976352 -0.011077 9.54896e-20)
(0.996807 0.000864422 0)
(1.04013 0.0155233 5.8559e-21)
(1.05384 0.016674 6.64103e-22)
(1.07136 -0.00449752 -1.54725e-20)
(0.999251 0.209204 7.47808e-23)
(1.02206 0.0985252 0)
(1.03251 0.0120559 -1.79406e-21)
(1.10264 0.412802 0)
(0.991943 0.0662113 6.33533e-21)
(0.960096 -0.0458821 3.17727e-20)
(1.02463 0.0106126 1.16666e-21)
(1.13259 -0.0100785 1.18563e-20)
(0.4283 0.0106723 -1.0307e-21)
(1.00976 0.00670801 -4.0443e-21)
(0.996545 0.0188979 6.01677e-21)
(1.06027 0.132396 -8.44321e-21)
(1.00001 -0.000263245 8.50652e-21)
(1.02154 0.00472662 -6.29096e-23)
(1.08024 0.0455219 0)
(1.04039 0.0196059 1.19603e-22)
(0.593229 0.0143462 4.03763e-21)
(1.07889 0.0153845 0)
(1.09842 -0.0286635 0)
(1.00307 0.0200069 0)
(1.12343 -0.0152332 2.26457e-20)
(0.755681 0.552687 0)
(1.06427 0.130904 4.77967e-22)
(1.00001 -0.000226983 0)
(0.544239 0.0133335 -5.05494e-21)
(1.01344 0.0219386 1.86884e-21)
(1.05027 0.00409024 0)
(0.995351 0.00337931 -1.21719e-20)
(0.998992 0.000363313 0)
(0.551894 0.0155316 5.19145e-21)
(1.0484 0.0050184 3.86193e-21)
(1.0543 0.00468417 3.42556e-21)
(1.05415 0.00685073 0)
(0.994306 0.106444 -1.47527e-20)
(1.02663 0.00787114 0)
(0.545174 -0.0213881 -2.95498e-21)
(1.00378 0.0121506 8.10229e-21)
(1.11303 0.0813784 -4.59995e-20)
(1.18645 0.0156672 -2.3978e-20)
(1.05362 0.015857 1.22732e-20)
(1.01044 0.00575321 -3.23357e-21)
(0.992286 0.0139858 -8.48238e-21)
(1.05128 0.00963793 -6.43809e-21)
(1.05874 0.0461799 -3.7108e-21)
(1.00004 0.0010629 0)
(1.12392 0.0545447 0)
(0.798421 0.244754 0)
(1.05484 0.0118172 1.8122e-21)
(0.99202 -0.00817488 -8.22062e-21)
(-0.00601543 -0.00380876 3.83232e-20)
(0.448095 -0.0254434 7.85295e-21)
(1.12161 0.323095 0)
(0.994459 0.0155301 0)
(0.904084 0.173136 1.44637e-20)
(1.02251 0.00662801 1.47759e-21)
(1.03845 0.0203458 -3.08051e-21)
(0.946515 0.147239 1.84159e-20)
(0.317345 0.00362087 2.24049e-21)
(0.947336 0.109945 -1.91103e-20)
(0.498101 -0.0125538 1.94168e-21)
(0.901429 0.158524 -3.99935e-20)
(1.08786 -0.00700686 0)
(1.04418 0.0120325 2.04876e-21)
(1.02194 0.0331743 0)
(0.368191 -0.0460059 2.88801e-20)
(1.18088 0.0858352 5.45312e-20)
(1.00496 0.00710601 -2.88992e-21)
(1.05251 0.0127198 -4.26764e-21)
(1.08427 -0.00571092 -2.78891e-21)
(1.06028 0.0322341 -1.44465e-20)
(0.947531 0.115558 5.05315e-21)
(1.03932 0.0576134 9.07334e-22)
(1.0234 0.10122 8.11328e-23)
(1.08767 -0.0340739 0)
(1.01099 0.00546299 -6.44833e-21)
(1.07922 0.0380691 -1.7216e-20)
(1.00741 0.00124637 7.9003e-21)
(1.03198 0.03033 -6.9171e-23)
(0.784967 0.00618232 -2.14668e-21)
(0.440589 -0.0368153 7.0264e-21)
(1.08801 0.114814 2.26638e-20)
(0.986807 0.00262269 0)
(1.01477 0.00142923 -4.59959e-21)
(1.0211 0.00607426 3.221e-21)
(0.999683 0.0641418 8.93112e-21)
(0.846992 0.102659 2.79053e-20)
(0.159118 -0.036656 3.24688e-20)
(1.07632 0.0135162 0)
(1.15309 0.0256896 3.00519e-20)
(0.453836 0.0151038 0)
(1.10354 0.0805935 0)
(0.985345 0.10422 -2.23586e-20)
(0.544022 0.0146691 6.17397e-21)
(1.01233 0.0355466 9.65978e-22)
(0.444073 -0.0174167 -2.88027e-21)
(1.02905 0.0478146 1.82674e-22)
(1.0042 0.000851787 0)
(0.987146 0.0102091 -3.46746e-21)
(1.0518 0.0125203 -1.44231e-20)
(1.10642 0.0419528 4.5577e-21)
(1.01076 0.00189238 2.99518e-21)
(0.926535 0.0401744 -9.45136e-21)
(1.07606 0.0330933 -8.74075e-21)
(1.13025 0.038424 3.15934e-20)
(0.983797 0.101888 1.88222e-20)
(1.04251 0.00802239 -5.274e-21)
(1.0126 0.0335788 -1.24369e-20)
(1.0436 0.00814563 2.91472e-21)
(1.05086 0.00906458 0)
(1.06257 0.0136438 0)
(1.05183 0.00954191 1.29523e-20)
(1.00051 0.000247561 0)
(0.9796 0.0257578 -2.24302e-20)
(-0.211921 -0.0137627 7.38267e-21)
(0.542771 -0.0197221 4.95265e-21)
(1.00335 0.0350766 -1.00447e-20)
(1.04869 0.00491044 0)
(0.986614 0.00319008 4.17882e-21)
(1.01861 0.00751662 -2.03385e-21)
(0.992503 -0.00768854 1.48278e-20)
(0.999045 0.0667709 -1.52631e-20)
(1.05103 0.0123362 0)
(1.01862 0.0196497 2.05263e-21)
(0.972476 0.128428 4.50514e-21)
(1.03226 0.0132741 0)
(1.04276 0.0593865 5.06729e-21)
(0.992175 0.0147678 0)
(1.08049 0.0497284 6.85931e-21)
(1.04464 0.0139377 9.28013e-23)
(1.01037 0.00607618 -7.21274e-23)
(0.992047 -0.00327211 -1.35413e-20)
(1.07765 0.015784 0)
(1.07555 0.0276325 0)
(1.24805 0.129491 -7.90498e-22)
(1.05474 0.0157627 -3.49111e-21)
(1.00502 0.00693624 2.77285e-21)
(0.998775 0.00957402 6.57272e-21)
(1.00418 0.000628597 6.70352e-21)
(0.74605 0.00861286 0)
(0.900242 0.0481631 -2.68923e-20)
(1.09571 0.038234 -3.42579e-20)
(0.387731 -0.0336935 3.45104e-21)
(1.02164 0.104962 1.38821e-21)
(1.05324 0.0169855 -5.49741e-22)
(0.788289 0.0077556 -2.59951e-21)
(1.0096 0.0228921 -1.071e-20)
(1.00384 0.0117193 8.34676e-21)
(1.00305 0.000908864 0)
(1.03226 0.0123878 1.46277e-21)
(1.07089 -0.00569807 4.34164e-21)
(1.01122 0.000691799 0)
(1.017 0.00631554 0)
(1.12815 -0.0197319 1.35093e-20)
(1.06014 -0.00467848 0)
(0.929004 0.0640693 -3.21276e-20)
(1.03416 0.00785677 -1.41497e-21)
(0.723971 0.00632021 4.14201e-22)
(0.0707989 0.0235798 -1.47262e-19)
(1.05646 0.00751319 5.41514e-21)
(1.02088 0.0775803 -2.31723e-22)
(1.05636 0.0179773 0)
(1.04995 0.0137669 0)
(1.10074 0.08312 0)
(0.991844 -0.00293097 1.00282e-21)
(1.13104 -0.0184784 -2.50294e-20)
(1.04782 0.00920857 -6.38827e-21)
(-0.148827 0.00840024 1.36731e-19)
(0.994438 0.0654954 -1.03601e-20)
(1.01706 0.110661 -1.47162e-21)
(1.06075 0.411817 3.24224e-20)
(1.00687 0.000708271 0)
(1.14053 -0.0141243 2.45547e-20)
(1.04273 0.019529 0)
(1.00003 0.0001884 -6.97772e-21)
(0.227571 -0.0446368 -3.92943e-20)
(1.05122 0.00975963 0)
(0.702507 0.19774 0)
(0.608791 0.013426 -3.80615e-21)
(1.13843 0.0519693 3.67096e-20)
(1.00249 0.0193778 5.89891e-21)
(0.724837 0.00865823 4.30887e-22)
(1.00761 0.0088253 0)
(0.984529 0.0544336 1.87504e-22)
(1.04918 0.0166558 1.2766e-20)
(1.03963 0.0384625 -3.37103e-21)
(0.999649 -0.000563192 0)
(-0.0455095 0.0127771 0)
(0.379715 -0.0465601 1.66804e-20)
(1.05125 0.0082976 -8.31358e-22)
(1.04873 0.0137005 0)
(1.01314 0.0766366 -1.51269e-21)
(0.440644 0.00919014 0)
(1.20982 0.0314509 -5.47191e-20)
(1.02069 0.113106 1.98781e-21)
(0.430722 -0.0337276 8.12002e-21)
(1.04304 0.0191698 0)
(1.00737 0.00087789 -2.30652e-21)
(1.02042 0.0125004 0)
(0.997136 0.0014884 0)
(0.985921 0.0164534 -2.5801e-20)
(0.452856 0.016643 8.30836e-22)
(1.05343 0.0133782 -1.05796e-20)
(-0.0363569 -0.0210263 4.39655e-20)
(1.04242 -0.00172478 -8.53208e-22)
(1.00688 0.000293876 -1.68786e-22)
(1.07383 0.0125867 0)
(0.909497 0.107526 6.83234e-20)
(1.01936 0.000300721 1.78559e-21)
(1.03112 0.0301649 -1.64914e-24)
(0.33503 -0.0360557 -1.96348e-20)
(0.148694 0.000831931 0)
(1.03805 0.0260418 -4.62499e-21)
(1.09661 0.0399772 9.51813e-21)
(1.01312 0.0418317 1.2122e-22)
(1.00256 0.00866256 1.47268e-20)
(1.07979 0.0360079 9.35165e-21)
(1.04766 0.0126301 -3.58957e-21)
(0.495606 -0.0266602 0)
(1.12476 0.0092777 3.52799e-20)
(1.04127 0.0134131 -1.68929e-21)
(1.02108 -0.00204951 -1.01255e-21)
(0.979724 0.0999279 2.20118e-20)
(1.04342 0.011569 -2.13647e-21)
(1.00036 0.00347351 1.05063e-20)
(0.773493 0.377801 0)
(1.06643 -0.00529243 -6.33355e-21)
(1.0335 0.011117 1.01328e-21)
(1.05094 0.0126309 0)
(0.157694 0.00105431 0)
(0.995046 0.0151242 -7.76395e-21)
(0.985655 0.18744 0)
(1.02632 0.0112565 -1.02591e-21)
(0.43986 0.0152307 -4.1153e-21)
(0.99483 0.186799 -1.81262e-21)
(0.991535 0.0422477 -1.56653e-20)
(1.01557 0.0410393 0)
(1.03281 0.00878734 -1.78038e-21)
(1.01296 0.000834823 2.61835e-21)
(1.01851 0.0764162 0)
(0.506666 0.206115 0)
(1.01459 0.021554 3.68622e-21)
(1.0335 0.012055 0)
(1.04978 0.00859119 0)
(0.988716 0.0407868 -1.87678e-20)
(-0.0130802 -0.0258889 0)
(0.984141 0.220211 -2.79375e-21)
(0.996454 0.00625511 0)
(1.01508 0.00120019 3.33096e-21)
(0.984403 0.0138113 -3.43981e-21)
(0.845168 0.0938771 -1.63204e-20)
(1.00557 0.0353295 -8.3482e-21)
(1.00447 0.00305901 -7.78137e-21)
(1.04452 0.00866738 -9.10371e-22)
(1.10423 -0.0325292 -8.02756e-21)
(1.00156 0.0066486 0)
(1.02599 0.00747231 2.39177e-22)
(1.07585 0.0243321 0)
(0.537747 0.0159695 4.04937e-21)
(0.999886 0.0061671 1.80498e-21)
(1.03646 0.00768657 1.20596e-21)
(1.02948 0.0184922 0)
(1.04777 0.00961347 1.84327e-21)
(1.01739 0.00665508 0)
(0.0481582 -0.0140765 -1.02572e-20)
(1.08193 0.0515745 0)
(1.05485 0.0077795 -3.06896e-21)
(1.08757 0.424642 -1.53424e-20)
(0.957052 0.728216 -3.06543e-20)
(1.03305 0.0118733 4.79473e-22)
(1.19201 0.247215 0)
(1.02039 0.00169228 8.15245e-22)
(0.759177 0.0091279 0)
(1.06546 0.0233126 -1.00264e-20)
(1.05087 0.0135593 0)
(0.995552 0.00101283 -9.78339e-21)
(0.987237 0.0108036 0)
(0.0720002 -0.00898105 0)
(0.971154 0.00350855 1.04157e-20)
(0.868222 -0.00649456 2.14901e-23)
(1.00252 0.00825125 -1.22654e-20)
(1.05522 0.0044925 2.43595e-20)
(0.519378 0.0147603 -1.65195e-21)
(0.11224 -0.00623375 0)
(1.11902 0.00696159 0)
(0.998924 0.000569404 0)
(0.563009 0.0127129 0)
(0.999999 1.91121e-05 1.12145e-20)
(1.01521 0.0217625 0)
(1.04972 0.00879598 5.75988e-21)
(1.22591 0.303049 3.563e-20)
(0.969761 0.0169143 0)
(1.15983 0.0418931 -2.46188e-20)
(1.05039 0.00901482 9.29328e-21)
(0.993276 0.041894 -1.38251e-20)
(1.05301 0.013264 5.28304e-21)
(1.00002 0.000535357 8.83809e-21)
(1.00781 0.0442881 -5.07979e-21)
(0.985346 0.017187 2.53929e-20)
(1.00633 0.000295709 1.08798e-22)
(1.00419 0.00304631 1.16001e-20)
(1.14663 0.0934185 3.39417e-20)
(0.996519 0.000112078 -9.16403e-21)
(1.0773 0.0267475 0)
(1.04507 0.0109404 3.33252e-21)
(0.509523 0.202611 -2.99048e-20)
(0.999996 -0.000136912 0)
(1.10469 -0.0320299 -7.55337e-21)
(1.02307 0.00908262 6.48607e-22)
(0.836866 0.111001 1.60819e-20)
(1.05072 0.00866016 -2.80496e-21)
(1.10289 0.00164348 1.48642e-20)
(1.06338 0.0136145 -3.02695e-21)
(1.09812 0.0980735 1.98018e-20)
(1.05994 0.037067 6.49072e-21)
(1.04859 0.00816082 1.12535e-20)
(0.999977 -0.000506487 0)
(1.05222 0.0130779 3.67717e-21)
(1.0838 -0.00772228 -1.38864e-20)
(0.924353 0.0643494 1.17574e-20)
(1.01231 0.000759503 -8.18497e-22)
(1.01828 0.00691109 2.2096e-21)
(0.175657 -0.0262373 -4.5147e-20)
(1.04991 0.010054 6.71248e-21)
(1.08063 0.0395766 9.26977e-21)
(1.02985 0.0160224 -1.63647e-22)
(1.00658 0.000875889 2.73826e-21)
(1.13446 0.0313093 -3.52297e-20)
(1.04912 0.00988334 5.92709e-21)
(0.790089 0.00887115 0)
(0.328371 -0.0141628 8.23208e-21)
(1.05966 -0.00546268 -5.36325e-21)
(1.0615 0.00734191 -1.19461e-20)
(0.0599551 -0.0244812 -3.98723e-20)
(1.02548 0.00737759 -2.73029e-22)
(1.00022 0.000180323 -6.86921e-21)
(0.401467 0.0129308 1.40363e-21)
(1.06535 0.0244392 1.21929e-20)
(1.04638 0.422964 0)
(1.05469 0.00455726 -3.51293e-21)
(0.996748 0.00176209 -9.17861e-21)
(1.01875 0.000468739 0)
(1.04997 0.00379643 -3.65549e-21)
(1.01987 0.0122318 0)
(0.63168 0.0124058 4.08594e-21)
(1.04652 0.00781843 0)
(1.05038 0.00912325 -3.24167e-21)
(1.02343 0.0128829 1.09133e-21)
(1.04778 0.0138286 5.94794e-22)
(1.00026 0.00160507 0)
(1.21071 0.0266715 4.62412e-20)
(1.03303 0.0112796 -8.39457e-22)
(1.0249 0.0191702 1.16216e-21)
(0.870756 0.271248 1.05752e-20)
(1.12322 0.0124759 -7.97305e-21)
(1.04312 0.0113487 4.15963e-21)
(0.0712859 -0.0223465 9.43096e-21)
(0.982302 0.227473 -4.32537e-21)
(0.879299 -0.00558444 -5.25078e-21)
(0.886931 0.00944939 -4.89885e-20)