/*--------------------------------*- C++ -*----------------------------------*\
| =========                 |                                                 |
| \\      /  F ield         | OpenFOAM: The Open Source CFD Toolbox           |
|  \\    /   O peration     | Version:  v2012                                 |
|   \\  /    A nd           | Website:  www.openfoam.com                      |
|    \\/     M anipulation  |                                                 |
\*---------------------------------------------------------------------------*/
FoamFile
{
    version     2.0;
    format      ascii;
    class       volVectorField;
    location    "200";
    object      ddt0(U);
}
// * * * * * * * * * * * * * * * * * * * * * * * * * * * * * * * * * * * * * //

dimensions      [0 1 -2 0 0 0 0];


internalField   nonuniform List<vector> 
15335
(
(0.000101664 0.00020701 -7.81077e-23)
(-0.000130905 0.000107905 4.19715e-22)
(-0.000158685 0.000209768 0)
(-9.91517e-07 -5.68561e-08 2.17574e-22)
(-1.42283e-06 2.79865e-07 -1.43747e-22)
(-6.43914e-07 -1.98656e-07 -4.44586e-22)
(-1.92486e-05 4.8873e-06 0)
(-1.08865e-06 4.48357e-08 2.06181e-23)
(1.11933e-06 3.17534e-06 5.70195e-23)
(-2.03657e-06 -8.45474e-07 0)
(-1.57625e-06 -4.64761e-07 -1.50492e-22)
(-7.72473e-07 -6.11776e-08 0)
(-1.11258e-05 4.02071e-05 -1.6366e-23)
(-7.09066e-06 -1.34884e-06 0)
(-4.48954e-06 1.67335e-06 0)
(1.57693e-05 9.66203e-06 1.21597e-24)
(-9.53767e-05 0.00012131 -1.94041e-22)
(0.000108105 0.000101663 0)
(-1.2595e-06 -3.57572e-07 -1.69805e-22)
(-3.91717e-06 2.71597e-07 2.38134e-22)
(9.4985e-07 3.19878e-06 -3.85411e-23)
(6.51043e-05 -6.40899e-06 3.03878e-23)
(-1.3773e-06 2.02686e-06 -2.24227e-22)
(8.34652e-07 3.37775e-06 0)
(-0.000126089 0.000242491 2.56482e-23)
(0.000457527 7.27779e-05 0)
(1.91703e-06 -1.76118e-05 0)
(-2.78346e-06 6.79996e-07 2.94472e-23)
(-4.94965e-06 2.01069e-06 1.31255e-22)
(-4.38926e-05 0.000320965 0)
(-1.37619e-06 1.74796e-06 -2.10911e-23)
(6.80414e-06 -6.72541e-06 0)
(4.01733e-06 3.16265e-07 0)
(1.18781e-06 -3.34119e-06 0)
(4.71501e-06 -4.41584e-06 0)
(1.26991e-05 3.9611e-05 2.36546e-22)
(-2.04931e-06 -8.43744e-07 0)
(-1.80852e-06 -9.77474e-06 6.78881e-23)
(-6.11322e-06 -3.36489e-06 5.94492e-23)
(0.000118718 7.91636e-05 0)
(-1.99882e-06 4.66383e-07 1.23789e-22)
(-1.8081e-05 0.000453541 6.44354e-23)
(1.9131e-06 2.87346e-06 -1.01528e-23)
(-1.4182e-05 8.16067e-06 -2.10377e-23)
(7.67609e-05 -0.000648351 -2.57233e-23)
(-2.3672e-06 8.02068e-07 2.88216e-23)
(-4.37922e-07 7.13156e-07 2.42577e-22)
(1.01372e-05 7.83872e-07 -1.23618e-25)
(-5.03569e-06 2.68336e-06 -2.66259e-22)
(-1.24023e-06 -1.68189e-08 0)
(6.24039e-07 3.37075e-06 -1.90149e-23)
(-1.54195e-06 1.9623e-06 3.51914e-23)
(-1.94495e-06 -1.05283e-06 6.50831e-24)
(-1.7467e-05 8.69018e-06 3.72322e-23)
(-8.55013e-05 0.000178976 -1.20212e-23)
(8.24099e-05 -0.000657578 -1.27325e-23)
(-0.000126451 0.000115601 0)
(8.73698e-05 7.30893e-05 0)
(-9.23309e-07 -1.07766e-05 5.44973e-23)
(-7.45743e-05 -5.41657e-06 -1.70762e-22)
(-0.000120875 0.00010095 -4.05731e-22)
(1.338e-05 1.63207e-05 0)
(-1.99906e-06 -1.07865e-06 1.03104e-22)
(-2.13863e-06 -2.54835e-06 -1.28973e-23)
(-1.41759e-06 2.18495e-07 -1.22557e-22)
(-8.29658e-05 3.51855e-05 -6.06397e-23)
(8.7311e-05 -0.0006065 -9.06302e-24)
(-1.2689e-06 -5.33895e-07 -4.45917e-22)
(-9.62664e-07 -7.93781e-07 -6.69222e-23)
(3.46841e-06 3.57694e-06 0)
(1.76392e-05 4.52107e-05 6.69389e-23)
(-1.54146e-06 1.87199e-06 1.78537e-22)
(-1.83895e-06 -8.86087e-07 -2.55479e-23)
(0.000124114 -0.000586058 1.3483e-24)
(-2.57887e-06 -6.02408e-07 1.82192e-22)
(0.000224072 -5.13248e-05 0)
(-0.000101814 0.000123756 -1.07198e-22)
(3.66173e-06 2.39307e-07 -2.16064e-24)
(-3.31557e-07 2.24725e-07 -5.69629e-24)
(7.35509e-06 3.67677e-05 -2.22846e-22)
(0.000363164 0.000181443 4.0351e-22)
(-6.93942e-06 -3.57108e-06 3.19896e-22)
(-7.48488e-06 -3.76526e-06 0)
(-5.29669e-05 -2.02408e-06 3.84662e-24)
(2.07293e-07 -3.29929e-06 -1.75854e-22)
(-0.000247778 0.000211291 1.94846e-24)
(-1.91915e-06 -2.4914e-06 -2.84343e-23)
(3.43804e-06 -1.49663e-05 0)
(-6.59619e-07 -2.03193e-07 2.84844e-22)
(-1.48275e-05 6.55115e-06 -4.69363e-23)
(0.000394871 5.20637e-05 -1.30531e-24)
(-2.77862e-05 4.65475e-05 -2.07238e-23)
(0.00014288 -0.000479277 4.7615e-24)
(-4.9157e-05 0.000281342 -1.74077e-22)
(-3.76968e-06 1.80847e-07 -2.37972e-22)
(-5.32536e-05 3.42436e-06 3.26125e-22)
(2.35005e-06 3.30207e-06 0)
(-7.35869e-05 4.25368e-05 -1.59697e-22)
(-1.37857e-06 1.82163e-06 0)
(-6.73362e-05 5.40048e-05 -2.26022e-22)
(2.14574e-06 3.3755e-06 9.80602e-24)
(-7.00204e-07 -2.82326e-06 1.07605e-22)
(-0.000120795 8.58313e-05 0)
(1.59073e-05 1.02476e-05 3.1447e-25)
(1.95672e-06 3.72539e-07 0)
(2.50516e-06 3.47913e-06 9.63394e-24)
(2.89628e-05 -9.18492e-05 7.5297e-24)
(-4.6461e-06 -2.06227e-06 0)
(-2.77423e-05 -2.73592e-05 -1.83231e-23)
(-1.00701e-05 -7.6934e-06 0)
(1.07993e-06 4.98709e-08 0)
(-1.1958e-05 5.87556e-06 -2.51358e-23)
(-3.74058e-05 0.000224758 0)
(-8.95028e-07 5.37602e-08 0)
(-9.80805e-07 7.44576e-08 -4.04035e-23)
(-2.40613e-06 1.11263e-06 -5.72078e-23)
(-8.65283e-06 6.0968e-06 -2.4592e-23)
(-2.66375e-07 1.83044e-07 -2.18509e-23)
(-0.000102795 0.000289868 -4.15068e-22)
(0.000159283 4.41663e-05 5.76536e-23)
(-9.79066e-07 -2.5689e-06 -6.68479e-23)
(-1.83419e-05 -2.02829e-06 -2.20854e-22)
(2.44078e-07 -5.21225e-05 -3.00646e-24)
(-1.28881e-06 -3.72116e-07 0)
(5.84395e-06 -1.59664e-06 -8.06879e-23)
(-2.97111e-06 1.43934e-06 -2.77127e-23)
(-1.06153e-06 -3.53083e-07 0)
(3.16568e-05 -4.11578e-06 0)
(8.27866e-06 -9.78418e-07 8.48111e-23)
(-3.46079e-05 -2.22064e-05 1.43255e-23)
(-2.97306e-06 2.01236e-06 4.66372e-23)
(-2.05303e-05 -9.54851e-07 2.97435e-22)
(5.69803e-07 2.14116e-07 -6.90983e-23)
(8.78906e-05 0.000189011 0)
(-1.8588e-06 3.15059e-06 3.22462e-23)
(0.00020408 -0.000442162 -1.76677e-23)
(-3.1176e-06 -1.68877e-06 -2.87469e-23)
(3.25721e-06 3.67548e-06 -9.09023e-24)
(-6.96814e-06 -6.70457e-06 0)
(5.49981e-07 -3.08547e-06 1.55507e-23)
(-1.52397e-06 -5.78061e-07 0)
(0.000204027 0.000117449 -3.39867e-23)
(-1.03185e-06 -8.25443e-08 0)
(0.000446912 8.83594e-05 1.11856e-24)
(-3.0693e-05 -6.8562e-05 4.42184e-24)
(-1.47478e-06 -6.77317e-07 -3.35892e-22)
(0.00022398 -0.000117373 7.82282e-24)
(1.49528e-05 9.1824e-05 4.39782e-23)
(-1.38111e-06 -5.31086e-07 1.58491e-22)
(-2.02662e-05 1.3377e-05 -3.81197e-23)
(2.09483e-06 4.45413e-07 6.39653e-24)
(-2.34599e-05 -7.99069e-05 -4.96971e-24)
(1.51752e-05 4.069e-06 3.1381e-24)
(-3.66513e-06 -8.26715e-07 0)
(0.000197383 0.000129733 -4.33607e-23)
(-3.12816e-06 -1.33303e-06 -8.97994e-23)
(-5.71869e-05 -1.35563e-05 1.311e-22)
(-4.6039e-06 -1.80972e-06 0)
(-1.68965e-06 1.55081e-06 0)
(-1.47867e-07 -3.61489e-06 1.51574e-22)
(-1.94257e-06 -3.9967e-07 1.37498e-22)
(2.87949e-05 -1.18398e-05 -2.79949e-23)
(-1.79842e-06 -9.59192e-07 3.07662e-23)
(-1.26981e-05 2.45986e-06 0)
(1.84507e-05 7.70067e-05 -2.34038e-23)
(-1.00792e-06 -5.97512e-08 2.24379e-22)
(-1.66956e-06 1.68231e-06 -2.17913e-23)
(-5.79773e-05 -4.90167e-05 1.42747e-23)
(-3.1442e-07 3.52113e-06 0)
(-7.72716e-07 -7.58982e-08 0)
(-1.95184e-06 -5.26226e-08 2.8319e-22)
(-2.3294e-06 -9.09354e-07 6.95413e-23)
(-1.55277e-06 -5.03052e-07 2.36973e-22)
(-3.08292e-06 -1.4309e-06 1.06467e-22)
(-4.81671e-06 1.83842e-06 1.36057e-24)
(-1.35154e-06 -2.49484e-06 6.6658e-23)
(0.000371953 0.000174097 0)
(-4.2224e-07 3.60989e-06 0)
(-4.73912e-05 1.17558e-05 1.58497e-22)
(-7.57942e-05 2.68314e-05 -2.06135e-22)
(-1.53004e-06 -5.57498e-07 0)
(-0.000190083 0.000112142 -3.88164e-23)
(-1.25696e-06 2.20161e-08 0)
(-1.29981e-06 3.69408e-07 1.35131e-22)
(-1.23025e-06 3.15896e-07 -1.1279e-22)
(-6.63316e-05 -2.06044e-05 0)
(-5.9033e-05 -6.82807e-06 -5.68753e-22)
(-0.000154725 0.000150003 -7.59004e-23)
(-6.5518e-07 -2.66485e-08 0)
(-1.20096e-05 -8.78891e-05 -4.22878e-23)
(7.4567e-06 7.57257e-07 -1.05714e-23)
(-8.60051e-05 2.81154e-05 2.14174e-22)
(-5.24969e-06 2.91034e-06 3.84493e-22)
(-2.01905e-06 5.05085e-07 -6.45526e-23)
(-1.44346e-06 -5.39032e-07 -1.3538e-24)
(-3.03669e-05 0.000353324 3.42881e-22)
(-1.53998e-06 -5.21465e-07 -1.81251e-22)
(1.28463e-05 1.75028e-05 0)
(-1.49271e-05 -1.23232e-05 -7.59981e-23)
(-6.2263e-06 -0.000115365 5.07272e-23)
(-3.50731e-05 5.02171e-05 -5.76415e-24)
(-5.51929e-06 1.92348e-06 -3.5171e-23)
(-2.3413e-06 1.68454e-06 4.60206e-23)
(-3.25234e-05 1.52082e-05 0)
(-7.71866e-05 4.58743e-05 2.97048e-22)
(-5.24551e-05 -1.97075e-05 -2.96627e-23)
(6.57588e-05 0.000351781 1.49462e-23)
(-1.08189e-06 -3.23641e-07 -1.81553e-22)
(5.2091e-06 -9.15673e-06 -5.18223e-23)
(6.64196e-05 0.000180465 3.48579e-22)
(-7.93368e-05 0.00013826 0)
(-2.48572e-05 1.46622e-05 9.60616e-23)
(-2.1917e-06 5.07283e-07 5.51384e-23)
(4.04254e-05 -1.26194e-05 2.92185e-23)
(-6.03902e-05 0.000166771 2.06528e-22)
(-5.63545e-06 3.1486e-07 1.51952e-22)
(-1.14232e-06 4.55378e-08 0)
(-1.03865e-05 3.99261e-06 -1.78704e-22)
(-1.15958e-06 6.28276e-08 7.50464e-23)
(-0.000167424 0.000211433 -5.27391e-24)
(-1.20872e-06 -2.59092e-06 -5.7302e-23)
(-1.3502e-05 5.93874e-06 7.4077e-23)
(5.19979e-05 -0.000167564 -2.11728e-23)
(-4.76744e-05 6.94982e-06 0)
(-1.19351e-06 1.86295e-08 0)
(0.000239528 -3.89114e-05 3.3747e-23)
(2.05872e-05 -1.48615e-05 0)
(-2.49734e-06 -8.08572e-07 -1.11425e-22)
(-1.64224e-05 4.44743e-06 0)
(-0.000130995 8.82473e-05 0)
(1.20214e-05 1.40165e-05 -6.60878e-23)
(-6.99961e-05 -1.37067e-05 0)
(0.000251862 -4.83146e-05 0)
(-3.87726e-06 1.36647e-06 -2.15378e-22)
(-1.67175e-06 -9.23173e-07 0)
(-1.3934e-06 -1.08784e-06 1.5754e-22)
(-2.24282e-06 -1.2838e-06 7.78388e-23)
(-2.67952e-06 7.2562e-05 0)
(-5.65058e-06 2.37836e-05 1.05368e-22)
(-2.89957e-06 -7.15958e-07 -1.78727e-24)
(-1.9256e-05 8.37318e-06 2.12834e-23)
(-1.00621e-06 -4.21077e-07 3.22779e-23)
(-2.32611e-05 1.34724e-06 -3.9314e-23)
(-2.09318e-06 -1.28185e-07 -2.38829e-22)
(4.20054e-05 0.000189171 -2.84006e-22)
(-7.7964e-07 3.18325e-07 -6.57374e-23)
(0.000117 -0.000523329 8.33853e-24)
(-5.38444e-06 7.47984e-07 0)
(4.07539e-05 0.000320921 0)
(-6.60941e-05 0.000262375 7.19691e-23)
(-3.54434e-06 -6.87181e-07 -2.0669e-22)
(2.52904e-08 3.55231e-06 -2.25281e-25)
(6.43205e-05 -3.74368e-05 -8.55779e-23)
(-1.4915e-05 5.62095e-05 0)
(9.35257e-08 2.81727e-06 0)
(5.29559e-05 -3.4398e-05 -2.76243e-23)
(-2.53337e-06 -7.4043e-07 9.81851e-23)
(5.65333e-07 1.54212e-07 -2.26104e-24)
(5.41233e-05 -0.000157879 1.44175e-22)
(2.04769e-07 2.76402e-06 0)
(0.000169131 0.000188708 0)
(-3.38434e-05 8.91734e-06 -1.29847e-23)
(1.60567e-05 3.60526e-05 5.06196e-23)
(4.2068e-06 -0.000120134 5.82575e-23)
(-1.84186e-05 -8.45548e-05 0)
(7.40816e-05 -1.60373e-05 7.86538e-23)
(0.000230804 0.00013448 -4.76808e-23)
(-4.99193e-07 2.0805e-06 -2.83585e-23)
(-3.53774e-05 0.000186529 -2.11775e-22)
(-1.5783e-06 -4.58975e-07 -1.94634e-22)
(6.59601e-05 3.54637e-05 -1.43758e-22)
(1.51034e-05 6.94174e-06 2.62354e-24)
(0.000302949 0.000226374 -4.25164e-22)
(-2.18063e-06 3.36395e-06 -3.19172e-23)
(-1.98715e-06 -1.60249e-06 1.00948e-22)
(0.00027956 -3.37827e-05 6.86723e-23)
(0.000147411 -1.32984e-06 0)
(2.38492e-05 1.11872e-05 0)
(-1.42585e-06 -5.43329e-07 3.42223e-22)
(-5.84136e-05 6.71459e-05 -1.85259e-22)
(-2.54705e-06 5.98389e-07 1.48477e-23)
(-1.11873e-06 -4.08552e-07 2.36685e-22)
(-2.32883e-06 -1.52884e-06 -6.50545e-24)
(-1.39376e-06 -5.02632e-07 1.88132e-22)
(5.69555e-05 4.4306e-05 -3.9109e-23)
(-1.39094e-06 -5.25134e-07 -3.23191e-22)
(7.80504e-07 -3.3209e-06 0)
(-9.59535e-07 -5.62526e-08 -1.22398e-22)
(5.58361e-06 -9.64226e-05 0)
(-3.83938e-06 -8.01399e-07 -2.41127e-22)
(5.22171e-05 -3.41207e-05 0)
(-1.38844e-06 -1.77191e-07 0)
(-1.57997e-06 1.65376e-06 6.38681e-23)
(-2.34539e-06 -9.54687e-07 -1.61659e-22)
(-0.000147012 -2.66594e-06 -1.56093e-22)
(-3.38539e-06 4.47559e-07 5.38042e-23)
(-2.0526e-06 -1.80379e-07 -4.93298e-22)
(-1.70208e-06 1.66846e-06 -2.27304e-23)
(-1.57092e-06 -4.72905e-07 1.87938e-22)
(-2.42695e-06 -1.56154e-06 -9.4147e-23)
(-0.00030757 0.000306164 2.20563e-23)
(9.53957e-06 -9.15783e-06 0)
(0.000194077 -6.33874e-05 9.32991e-25)
(-0.000144897 0.000240558 4.57805e-23)
(-0.000322158 -0.000133852 3.25759e-24)
(-2.51429e-06 5.35865e-07 -1.96854e-23)
(-2.70662e-06 5.8414e-07 0)
(-0.000283333 0.000299215 -7.50324e-24)
(8.10664e-05 -2.59707e-05 0)
(1.8165e-05 -2.09456e-05 0)
(0.000159902 -2.63284e-05 1.82737e-23)
(-2.44676e-06 -8.39509e-07 3.13309e-24)
(-4.64933e-05 2.86883e-05 -6.39163e-23)
(0.000328284 0.000205726 4.35191e-22)
(-2.39355e-06 9.00814e-07 5.63523e-23)
(-3.29883e-06 5.86679e-05 0)
(-1.04918e-06 3.20849e-06 -2.39041e-23)
(-2.72478e-07 3.21466e-06 -3.02776e-23)
(-1.56315e-06 -4.74789e-07 -4.40452e-23)
(-1.19665e-06 -1.96509e-08 -6.28263e-23)
(-9.8585e-07 -4.05344e-07 1.77111e-22)
(-1.2634e-06 4.19447e-08 0)
(2.56859e-05 7.75043e-05 0)
(9.84079e-05 -4.94943e-05 -2.66827e-23)
(-3.33604e-06 5.80796e-07 0)
(1.51365e-06 -5.13962e-05 1.06016e-23)
(0.000109507 6.3093e-05 0)
(-1.70001e-07 3.27741e-06 -3.22255e-23)
(-1.94427e-06 4.82228e-06 -4.72887e-23)
(-2.44158e-06 7.06366e-06 -1.16227e-23)
(-2.05192e-06 6.02038e-07 0)
(4.22875e-06 6.54462e-05 2.60555e-24)
(3.40545e-05 9.24885e-06 2.06824e-22)
(-2.59025e-05 9.6404e-06 9.17927e-23)
(-1.50062e-05 -5.2707e-06 -1.89401e-22)
(2.70645e-06 3.40506e-06 -9.78247e-24)
(-5.68482e-07 -2.21928e-08 -3.29731e-22)
(-3.37931e-06 -7.04856e-07 0)
(-1.019e-05 -1.34092e-06 0)
(-9.68308e-05 0.000241375 0)
(-3.48505e-07 -1.27592e-06 -1.46336e-24)
(-5.50247e-06 8.19016e-06 0)
(4.0837e-05 3.5333e-05 1.26167e-22)
(-5.05844e-07 -1.17347e-06 1.50977e-22)
(1.88853e-06 8.59196e-08 2.42741e-24)
(-1.08023e-05 0.000448432 0)
(-1.09981e-05 -1.17551e-05 7.39011e-23)
(4.52312e-05 0.000299033 0)
(-1.93544e-06 -4.36413e-09 -1.51372e-22)
(-2.54976e-06 -9.84354e-07 7.01413e-22)
(2.38985e-05 2.12292e-05 2.00935e-23)
(-8.1136e-07 2.97789e-06 0)
(-1.05339e-06 9.50859e-08 2.48554e-23)
(0.000142352 0.00010447 3.16465e-23)
(3.14806e-05 -5.60007e-05 2.99686e-23)
(-2.24214e-06 -7.13504e-08 3.36843e-23)
(-1.86934e-05 3.72708e-05 0)
(-1.76042e-06 5.54936e-06 0)
(-8.30096e-07 -4.44201e-08 -2.77472e-22)
(-5.79551e-05 1.19295e-05 -4.1298e-24)
(-7.07647e-07 -2.15053e-07 -1.47472e-22)
(-1.95349e-06 5.73894e-07 0)
(-1.93267e-06 1.07928e-06 0)
(-6.90561e-07 -2.10465e-07 0)
(5.44953e-05 -0.000488343 2.50625e-23)
(2.36078e-05 3.46629e-05 -2.36843e-23)
(-1.45606e-06 -6.94325e-07 1.75088e-22)
(-1.56348e-06 -4.71537e-07 2.6638e-22)
(-4.83326e-06 2.64454e-06 -1.88274e-22)
(-8.5621e-07 -2.67634e-07 -2.59235e-22)
(-1.22483e-05 3.27391e-05 0)
(1.01689e-06 3.62895e-07 0)
(-3.73983e-06 1.25016e-06 0)
(-9.53546e-07 -4.92439e-08 -8.10731e-24)
(-1.11222e-06 1.96387e-06 0)
(-2.57728e-06 1.07656e-06 2.61887e-23)
(1.58673e-05 2.57693e-06 -9.20828e-25)
(1.56523e-05 4.36066e-06 -1.08593e-24)
(-8.84382e-07 -3.5004e-07 -2.13594e-22)
(2.8106e-05 1.34422e-05 -7.9355e-23)
(0.000101529 0.000314328 -5.57628e-24)
(8.85567e-06 1.6943e-06 -2.23735e-22)
(-0.000111142 -3.41742e-05 2.90742e-23)
(-2.87747e-05 7.3499e-07 -1.45025e-23)
(0.000240403 -4.18222e-05 4.01987e-23)
(-6.06453e-07 -7.88246e-07 -7.65069e-23)
(-2.27976e-06 5.12099e-07 -1.14597e-22)
(-1.50726e-05 -0.000115857 -1.67147e-22)
(-2.37557e-06 -7.89256e-07 1.43723e-22)
(-2.29173e-06 -9.54325e-07 -9.73742e-23)
(-1.73418e-06 -6.37957e-07 1.10155e-22)
(-1.22511e-05 1.7633e-06 0)
(-1.51441e-06 1.86201e-06 0)
(-2.4717e-06 -1.02198e-06 -6.63577e-22)
(-3.19726e-06 7.50128e-05 0)
(-2.8966e-06 9.78833e-08 1.85008e-22)
(-1.23787e-06 -4.93963e-07 0)
(1.51619e-05 3.64789e-06 0)
(-8.59582e-07 -6.4709e-08 -1.91911e-24)
(1.16762e-05 -0.000123723 2.02248e-22)
(-4.40743e-06 1.80279e-06 -2.45934e-22)
(-5.03797e-05 -0.000375058 -1.96409e-24)
(4.32683e-05 -6.18022e-07 0)
(8.05162e-08 2.96386e-06 0)
(-1.04219e-06 -3.68437e-07 2.64622e-22)
(-5.95259e-06 5.58771e-07 2.50328e-22)
(1.30821e-07 1.8863e-06 2.89965e-23)
(-1.56284e-06 -4.79548e-07 3.96344e-22)
(-9.12975e-05 0.00014974 0)
(-1.21621e-06 -4.89832e-07 2.56889e-22)
(1.56177e-07 3.06386e-06 1.02287e-25)
(-1.40228e-06 -6.24007e-07 3.38437e-22)
(-8.07403e-07 -3.32616e-08 8.30095e-24)
(-2.09111e-06 -2.22964e-07 2.69748e-22)
(1.06602e-05 -6.04206e-06 -6.73192e-23)
(-2.38221e-06 1.22119e-06 2.8771e-23)
(-8.46321e-07 -2.64387e-07 5.31652e-22)
(-8.94298e-07 4.30426e-07 0)
(-2.98643e-06 -1.2021e-06 9.56552e-23)
(1.19272e-05 8.98383e-06 9.24144e-23)
(-1.60293e-05 9.65123e-06 0)
(-1.69369e-06 -2.85476e-07 1.87852e-22)
(6.7986e-05 0.000138371 0)
(-8.6792e-07 -3.43089e-07 -8.73389e-23)
(-5.78169e-07 -3.4349e-06 -7.83448e-23)
(5.37096e-06 6.56474e-05 -2.31113e-23)
(-1.3192e-06 -3.8134e-07 -5.33829e-23)
(-3.00751e-06 -1.11595e-06 -1.59328e-22)
(-2.89827e-06 1.61026e-06 -2.6867e-23)
(5.98925e-05 0.000151809 0)
(0.000166896 0.000205948 0)
(8.35418e-05 0.000104732 -1.67115e-23)
(9.2052e-06 4.59021e-07 2.56077e-24)
(-0.00012066 -0.000334056 3.08978e-23)
(1.46361e-05 3.00193e-06 0)
(1.88584e-07 1.96999e-06 0)
(0.00013809 0.000289818 1.63695e-22)
(-1.75779e-05 8.17889e-06 -2.31976e-22)
(-1.7207e-06 -2.83114e-07 -9.44866e-23)
(-4.40368e-06 2.09293e-06 -3.5324e-24)
(2.04887e-06 3.01172e-06 -1.03116e-23)
(-2.11959e-06 -8.5466e-07 1.51244e-24)
(-7.77236e-07 1.8013e-07 -2.8823e-23)
(0.000271566 -2.98384e-05 -8.72064e-23)
(-2.34095e-06 -8.66603e-08 -3.93062e-23)
(0.000107149 -6.82678e-05 0)
(1.7831e-06 2.38858e-06 -6.23237e-23)
(-9.33742e-07 -3.83308e-07 4.20506e-22)
(-3.63134e-06 -5.00209e-08 0)
(0.000167638 -0.000559525 0)
(-4.42196e-05 -2.93749e-05 3.1972e-23)
(0.000154732 0.000300705 -5.0127e-22)
(-1.27534e-06 -3.32749e-07 0)
(9.09183e-05 1.28753e-05 2.82289e-22)
(-8.11463e-07 1.63901e-07 3.46996e-23)
(-5.27933e-06 -9.55089e-07 0)
(-8.10483e-06 -9.27656e-07 0)
(-8.34435e-05 0.000275247 6.67449e-23)
(3.67998e-05 1.37973e-05 0)
(-1.39313e-06 -5.49701e-07 3.56285e-22)
(-4.97415e-06 -1.53806e-06 1.23044e-22)
(-2.75129e-07 5.87267e-07 -2.77256e-22)
(5.85209e-05 5.77869e-05 0)
(-1.4318e-06 -2.29677e-07 0)
(2.38908e-05 -4.97059e-06 0)
(-0.000105297 0.000630276 -6.05641e-24)
(-9.4797e-07 1.02372e-11 7.82966e-23)
(-0.000111004 0.000107633 1.01643e-22)
(-2.36775e-06 -1.4753e-07 1.44176e-22)
(-2.0322e-06 -2.75543e-07 2.64871e-22)
(-1.96987e-06 -4.13818e-07 -3.15775e-22)
(0.000155627 0.000260739 1.7595e-22)
(-2.54336e-06 -8.40116e-07 3.31281e-22)
(3.91567e-05 -0.000161527 4.43567e-23)
(-1.83025e-06 -7.58571e-07 -2.95089e-23)
(-2.29994e-06 -3.34346e-07 0)
(-1.15069e-06 -4.2061e-07 2.47452e-22)
(-1.40819e-06 -1.34644e-06 0)
(0.000150944 4.88243e-05 -5.68227e-22)
(-1.21124e-06 -4.81785e-07 0)
(-1.6517e-06 -1.21051e-06 1.43124e-22)
(-2.28924e-06 -1.04627e-06 -2.24273e-22)
(-2.48918e-06 -8.42978e-07 7.13086e-23)
(-1.01693e-06 -7.89824e-08 -2.22543e-22)
(-8.59616e-07 -5.52186e-08 4.65718e-24)
(9.95631e-05 0.000313874 0)
(-3.08161e-06 -4.07744e-07 -1.44177e-22)
(-2.11238e-06 -8.46674e-07 0)
(-2.24261e-06 1.77154e-06 -2.3191e-23)
(-5.01444e-06 -6.5971e-07 -4.11616e-23)
(-0.000113757 0.000176634 -1.11798e-23)
(-6.9284e-05 0.000203167 -1.06027e-23)
(-1.1124e-06 -3.46849e-07 0)
(1.57024e-05 2.13279e-06 -8.32273e-25)
(0.000138503 0.000245272 -3.49509e-22)
(-9.16558e-05 3.35092e-05 -1.90821e-23)
(0.000373154 4.35911e-05 -3.28926e-22)
(-6.28394e-06 1.52169e-07 5.27087e-23)
(-4.76469e-06 1.92875e-06 0)
(2.51861e-05 3.04609e-05 0)
(3.27485e-05 6.60189e-05 0)
(1.08991e-05 -5.0089e-05 -1.2174e-23)
(-1.28974e-06 -5.45464e-07 0)
(-7.12173e-06 1.38547e-06 0)
(3.0781e-06 3.48948e-06 -1.8358e-25)
(-2.75837e-06 4.26937e-07 0)
(-5.96637e-06 1.92254e-07 0)
(2.81998e-05 -7.20126e-06 0)
(-1.21541e-06 -1.07765e-07 1.89102e-22)
(-2.41205e-06 -7.85517e-07 2.02668e-22)
(-2.94609e-06 -2.8843e-07 9.68709e-23)
(-1.40556e-05 -7.62949e-06 2.98641e-23)
(7.54085e-05 -0.000164978 -2.15075e-23)
(4.61654e-05 4.1624e-05 7.69351e-23)
(-0.000107118 0.000191148 2.49705e-24)
(1.72626e-06 2.92103e-06 2.22174e-23)
(-1.30722e-06 -5.02866e-07 1.32884e-22)
(5.68296e-06 8.16983e-07 -1.84419e-25)
(1.20663e-05 2.44732e-05 -1.31806e-22)
(1.61526e-05 -0.000187026 -1.03319e-22)
(-0.000113619 -6.89423e-06 1.30007e-22)
(8.74842e-05 -6.66748e-05 1.01491e-23)
(-2.3968e-06 -2.81645e-07 4.28376e-23)
(-1.09626e-06 2.07897e-06 0)
(3.18787e-05 0.000355252 1.80523e-23)
(9.45973e-07 3.8362e-06 -3.08857e-23)
(0.000109867 -0.000171912 4.74726e-23)
(-2.95969e-06 -5.22035e-07 4.82427e-23)
(-1.57214e-06 1.6832e-06 -4.22248e-23)
(-3.21269e-06 1.00169e-06 7.38872e-23)
(-1.48026e-06 -6.23453e-07 -8.92313e-23)
(-9.97417e-06 6.2322e-06 1.4303e-22)
(0.000405475 0.00011118 -5.08495e-22)
(8.99065e-07 2.42483e-06 0)
(8.20535e-06 3.42046e-05 7.91144e-23)
(2.37389e-07 -7.14832e-07 9.64791e-23)
(-2.58305e-05 0.00022073 0)
(-3.55994e-05 0.000145865 0)
(4.02048e-07 3.86232e-06 -1.17668e-23)
(-1.44745e-06 -1.33513e-06 9.7625e-23)
(-4.62183e-05 1.56806e-05 0)
(1.75716e-05 3.01487e-07 -1.18903e-22)
(-8.42406e-07 -2.43576e-07 0)
(-9.40425e-05 -2.08294e-05 5.15015e-23)
(-8.72703e-07 -3.35773e-07 -1.1555e-23)
(7.3539e-05 -6.38787e-05 -3.01403e-23)
(-1.76909e-05 0.000149626 7.02961e-23)
(-1.57987e-06 -4.67964e-07 0)
(-3.27477e-06 1.09423e-05 2.48298e-22)
(1.8941e-06 3.05237e-06 6.69079e-23)
(-1.3375e-05 -4.6174e-07 -2.21697e-22)
(-2.13745e-06 -7.70018e-07 0)
(2.94765e-06 3.08455e-06 0)
(-1.40359e-06 2.00612e-06 -6.25379e-23)
(-0.000136174 4.7036e-07 8.87847e-23)
(-0.000104775 -3.56998e-05 4.62502e-23)
(-1.19531e-06 -1.00312e-07 -1.91693e-22)
(-3.04858e-06 -1.02341e-07 -9.34369e-23)
(-9.66797e-07 -4.02339e-07 2.25304e-22)
(8.9258e-05 -4.53151e-05 0)
(2.14745e-06 1.21982e-06 0)
(-1.86569e-06 -7.74909e-07 1.94064e-22)
(-4.69751e-06 1.70508e-06 0)
(-1.19064e-06 -4.83102e-07 -4.99329e-22)
(7.4241e-05 -0.000203055 1.17553e-23)
(-1.43287e-06 -1.05965e-06 -1.46346e-22)
(-6.49346e-06 -4.06051e-06 3.09504e-24)
(-6.13028e-07 5.96772e-07 0)
(0.000196088 0.000280697 3.50383e-22)
(-0.00013013 -4.25199e-05 -1.31117e-22)
(0.000250273 -4.70747e-05 0)
(-1.0556e-06 -3.07186e-07 -9.33232e-23)
(-8.10873e-07 6.35571e-07 -6.04875e-23)
(-5.72471e-06 -8.98004e-08 -2.9078e-22)
(-1.7378e-06 -9.22793e-07 -2.424e-22)
(-7.74543e-07 6.74647e-07 5.92365e-23)
(-2.14097e-06 -7.97939e-07 0)
(-8.67686e-07 -3.06044e-08 -4.09929e-24)
(-1.26959e-06 -5.28311e-07 -2.70457e-22)
(-7.36478e-07 -9.48642e-05 0)
(6.55521e-05 -3.12275e-05 -4.51648e-23)
(0.000215428 -7.00081e-06 0)
(-1.11427e-05 3.40167e-06 2.27318e-22)
(-1.5178e-05 -6.29994e-06 -3.26827e-23)
(-5.09166e-06 1.8978e-06 -1.4815e-22)
(1.58985e-05 -8.38427e-05 -1.45135e-24)
(0.000196895 6.03888e-05 3.02692e-22)
(-7.53216e-05 1.44882e-05 -5.20691e-23)
(-3.82712e-06 1.04771e-06 -7.17186e-24)
(-1.64848e-06 1.59053e-06 0)
(-3.1136e-06 1.80848e-06 -4.99785e-23)
(-3.03506e-06 2.39614e-07 -1.42502e-24)
(-0.000431879 0.000179365 4.07644e-22)
(-1.06269e-06 -6.94689e-09 -2.09321e-22)
(-1.23067e-06 -1.32576e-07 0)
(-2.91574e-05 -0.000100053 -5.6806e-23)
(-5.88477e-06 1.31848e-06 3.89814e-23)
(-6.72072e-05 -0.000182948 -7.17794e-24)
(-2.27348e-06 -2.95827e-07 -5.74207e-23)
(7.5954e-05 -4.19313e-05 0)
(-1.02066e-06 3.39358e-07 1.15729e-22)
(-6.44464e-06 -4.61919e-07 4.74255e-24)
(-9.21806e-05 7.19564e-06 -2.91033e-23)
(-5.9151e-06 -0.000186848 5.49357e-23)
(-4.34568e-06 2.2449e-06 1.10669e-22)
(-2.13012e-06 5.78587e-07 0)
(-6.11874e-06 -5.02579e-06 -7.82509e-23)
(-3.19667e-06 -1.87461e-06 3.11142e-23)
(8.79627e-05 -6.34986e-05 1.2147e-23)
(-1.32885e-05 8.72825e-07 -2.88671e-22)
(8.36075e-05 -8.20138e-05 0)
(-9.86333e-05 0.000438462 8.41446e-24)
(8.63386e-05 -8.4254e-05 4.09744e-23)
(-2.66242e-06 7.65234e-07 -2.85235e-23)
(-1.50908e-06 -6.56177e-07 1.70873e-24)
(2.68767e-05 -2.41272e-05 2.69571e-23)
(-7.80638e-06 6.95004e-06 6.68198e-24)
(-1.60849e-05 -0.000103922 1.65598e-23)
(-1.96714e-06 -9.1944e-07 -3.25296e-22)
(-4.49486e-07 2.18443e-06 1.82729e-23)
(9.12244e-07 3.21247e-07 3.42508e-23)
(-2.17076e-06 -8.74828e-07 -2.94895e-22)
(-1.23785e-06 -5.15052e-07 1.38362e-22)
(-1.23131e-06 -8.49124e-07 -1.11587e-22)
(-2.12564e-05 2.66981e-06 0)
(-2.6999e-06 1.9521e-06 -3.66248e-23)
(3.93175e-07 2.42118e-06 2.82687e-25)
(1.49877e-05 6.4598e-06 6.65916e-25)
(2.03386e-05 7.61792e-06 -2.4732e-25)
(-3.29092e-08 -1.81711e-06 -1.54391e-22)
(-5.33372e-07 -1.201e-08 0)
(4.13948e-06 -2.12856e-05 0)
(-2.48161e-06 7.48957e-07 -5.43945e-23)
(-1.12061e-06 4.24711e-07 1.29565e-22)
(-5.43851e-06 2.07796e-06 0)
(-8.601e-05 1.71557e-05 3.486e-24)
(-2.1275e-06 -9.16232e-05 0)
(-1.26072e-06 -5.24931e-07 -2.19542e-22)
(-2.56276e-06 2.08872e-06 -2.07953e-23)
(-5.56907e-06 6.02851e-07 2.17839e-22)
(-3.12552e-06 9.4957e-06 -2.42837e-22)
(-1.19566e-06 -4.29863e-07 0)
(-7.81552e-07 -5.36358e-08 0)
(-0.00026093 0.000134952 -1.05307e-22)
(-9.45548e-07 -3.90574e-07 -6.42897e-22)
(3.57984e-05 -8.51087e-06 0)
(-1.55866e-05 -6.69426e-06 2.6621e-22)
(1.25476e-06 3.30607e-06 2.19738e-23)
(-1.17652e-06 2.36574e-08 -3.92091e-23)
(0.000384957 3.87163e-05 1.52702e-22)
(-4.72247e-05 -7.52575e-05 -5.13855e-24)
(-9.74069e-07 -3.97324e-07 0)
(-1.80362e-06 1.58931e-06 3.56346e-23)
(-2.30811e-06 -2.46298e-07 5.76708e-23)
(-9.47156e-05 3.52093e-05 -3.43643e-23)
(1.0303e-05 9.7066e-07 -4.1354e-25)
(0.000239396 -0.00011278 5.67046e-23)
(-1.41917e-06 -6.42263e-07 -1.49673e-22)
(-1.24717e-06 -7.70959e-07 1.14568e-22)
(-1.7888e-06 -9.67286e-07 3.50581e-22)
(-2.65239e-06 -9.35041e-07 -9.09065e-23)
(-7.57165e-06 -1.0201e-06 0)
(3.0165e-05 3.69489e-05 0)
(0.000145756 -0.000109402 1.85004e-24)
(-2.36537e-06 2.18794e-06 1.99833e-23)
(-8.92853e-05 0.000266583 -4.07772e-24)
(-1.719e-06 -5.77797e-07 3.90471e-22)
(-1.3183e-06 -5.27278e-07 0)
(0.000227619 -0.000157493 0)
(-2.51817e-06 -1.23327e-07 0)
(1.97741e-05 1.89893e-05 6.21975e-23)
(-2.21973e-06 -3.75028e-09 0)
(-3.78565e-06 1.50983e-08 0)
(-1.23509e-06 -1.2942e-07 0)
(-6.45172e-06 8.92907e-06 0)
(1.52802e-07 2.76011e-07 1.85881e-23)
(-6.68144e-07 -4.38055e-08 0)
(-1.09073e-06 -3.37406e-07 0)
(-5.25045e-07 1.80073e-08 7.43447e-23)
(-3.58622e-06 0.000139253 -1.60019e-23)
(-2.24284e-06 -3.34461e-07 -1.22177e-22)
(-7.07784e-05 0.000310832 1.70552e-24)
(4.10366e-06 2.70011e-07 2.22521e-24)
(2.74735e-07 3.32184e-06 -1.28084e-23)
(-3.52896e-05 0.000254732 0)
(0.000466912 3.95723e-05 0)
(-1.61661e-05 -1.57344e-05 0)
(-2.34283e-06 -2.90606e-07 -1.17592e-22)
(-1.49319e-06 -1.73452e-06 7.18905e-23)
(-1.06299e-06 -3.3905e-07 0)
(1.2228e-05 7.53766e-06 6.11662e-23)
(-1.06899e-05 2.28567e-06 1.11749e-22)
(-1.24162e-06 -3.12779e-07 1.53717e-22)
(-8.50933e-07 -2.89443e-06 -8.66943e-23)
(6.08551e-07 2.73379e-07 5.42736e-23)
(-8.35897e-05 1.40911e-05 0)
(-0.000146796 -9.38002e-05 1.83513e-23)
(-1.22222e-06 -4.88469e-07 -1.31809e-22)
(-1.21006e-06 1.41841e-09 -1.48266e-23)
(0.000163936 -6.46362e-05 -2.57095e-23)
(-2.16329e-06 -8.62907e-07 2.14091e-22)
(4.24668e-05 0.00028995 7.8383e-23)
(0.000315273 -6.62832e-05 -6.14869e-23)
(-1.27711e-06 2.36363e-08 0)
(1.9953e-06 3.21201e-06 -2.11335e-23)
(-9.77488e-05 -7.95812e-06 0)
(2.66406e-05 -2.16737e-06 -3.48158e-23)
(9.39847e-07 -7.26971e-07 -6.39667e-23)
(-5.93161e-06 -3.76042e-06 -3.11504e-22)
(-0.000322488 -1.28301e-05 1.46981e-23)
(-1.15536e-06 -2.14452e-07 1.53858e-22)
(-6.15225e-07 -2.07611e-08 2.83492e-22)
(-0.000209497 0.000295377 0)
(-2.54735e-06 -4.96447e-08 0)
(-1.24336e-06 2.1173e-09 0)
(0.000389669 0.000129443 5.15264e-22)
(1.43424e-05 9.07992e-06 0)
(1.28797e-05 0.000228255 2.16066e-22)
(-2.8055e-06 5.39473e-07 9.6092e-23)
(-2.87064e-06 -1.02105e-06 0)
(1.82224e-07 3.5963e-06 0)
(-2.0718e-06 -3.94403e-07 -4.96878e-23)
(-1.38868e-06 -5.9598e-07 1.36803e-22)
(-4.91293e-06 -1.27402e-06 -1.23611e-22)
(-3.84538e-06 -8.51207e-06 1.22847e-22)
(-6.0299e-06 -5.6492e-07 2.54268e-22)
(-3.26358e-05 -0.000129319 -1.11073e-24)
(-0.000159685 -2.35721e-05 -1.7124e-22)
(-1.08018e-06 -1.15018e-06 -9.712e-26)
(-6.28853e-05 0.000194921 -2.03645e-24)
(0.000420561 0.000111161 0)
(-3.68476e-05 2.41895e-05 3.88655e-23)
(-2.23734e-06 2.01761e-07 0)
(-2.17097e-06 2.01975e-06 2.20112e-23)
(-1.87407e-06 5.92153e-07 -7.46255e-25)
(-1.64039e-06 -6.97389e-07 -2.24343e-22)
(5.7813e-07 2.89524e-06 0)
(-3.02877e-06 -6.52549e-07 -1.76808e-22)
(-1.02894e-06 -3.0532e-07 9.28078e-23)
(-1.57165e-05 1.09466e-05 3.14675e-23)
(-1.99472e-05 1.17465e-05 0)
(3.07602e-07 2.01575e-06 -5.63716e-23)
(-0.000119951 -2.62144e-05 -1.14608e-22)
(0.000374708 7.86357e-05 7.0753e-22)
(-9.98827e-07 -2.88713e-07 0)
(-4.20045e-05 2.54462e-05 -1.63756e-22)
(-8.60535e-07 -3.43069e-07 -3.81553e-22)
(-7.18757e-05 1.8033e-06 0)
(-3.7087e-06 9.40189e-07 6.8389e-24)
(1.45681e-05 3.63673e-05 -1.43702e-22)
(-1.03841e-06 -7.12175e-08 0)
(-4.73836e-06 2.47527e-06 3.49409e-22)
(-1.70032e-06 -1.06143e-06 3.274e-22)
(-8.63413e-06 -1.41359e-06 4.32292e-23)
(-1.70464e-06 -1.0474e-06 -3.07612e-22)
(1.4475e-05 1.6058e-05 -8.66783e-25)
(0.000116198 -2.44328e-05 0)
(-8.57788e-05 4.49281e-06 3.63483e-23)
(-9.38853e-06 3.6912e-06 -1.64673e-22)
(-6.06404e-05 0.000155023 -1.26835e-22)
(3.73456e-06 2.15865e-07 -4.97414e-24)
(0.000211343 0.000289493 -3.54471e-22)
(-1.97591e-06 -3.93663e-07 8.35821e-23)
(0.000100459 -7.85014e-05 -4.08784e-23)
(3.72953e-07 3.18861e-06 3.85273e-23)
(-0.000126734 -1.35381e-06 0)
(-8.37251e-07 -3.32681e-07 -3.17986e-22)
(4.30283e-07 1.957e-06 -5.95743e-26)
(-3.88153e-06 -2.25185e-06 -6.77705e-23)
(1.11589e-05 3.85789e-05 0)
(-4.53755e-06 2.36961e-06 -1.35251e-22)
(-1.07937e-06 -3.84328e-07 2.65832e-22)
(3.19845e-05 -3.29234e-05 0)
(-5.75217e-07 1.72326e-05 0)
(2.98807e-05 5.17693e-06 3.13801e-23)
(-2.9824e-06 3.08889e-07 0)
(-9.01808e-06 -8.26722e-07 0)
(-0.000115178 9.75163e-05 0)
(-9.17339e-07 2.20734e-06 0)
(-0.000349837 5.35419e-05 0)
(0.000133897 3.04768e-05 -5.14917e-23)
(-1.15555e-06 -4.54051e-07 2.08016e-22)
(-1.98847e-06 1.76013e-06 6.65525e-23)
(-1.42341e-06 -5.67506e-07 -9.51077e-23)
(0.000382377 9.49689e-05 -5.26967e-22)
(-2.08124e-05 7.41189e-06 -6.20483e-23)
(7.857e-06 8.62239e-07 1.35384e-23)
(1.51354e-06 5.34911e-05 -2.8336e-22)
(1.24986e-05 -2.06952e-05 4.4338e-23)
(-4.85066e-06 -3.81017e-06 0)
(-5.71546e-05 -0.000101036 -5.41513e-24)
(2.09488e-05 -0.000435907 3.26251e-23)
(-3.18882e-06 6.96327e-07 -7.51532e-23)
(1.07029e-05 5.10227e-06 -6.04619e-23)
(-1.30134e-06 -5.3307e-07 0)
(-5.15876e-05 4.46407e-06 1.95638e-22)
(7.78242e-08 -3.22234e-06 7.25191e-23)
(-1.76244e-06 -7.31684e-07 3.90596e-22)