/*--------------------------------*- C++ -*----------------------------------*\
| =========                 |                                                 |
| \\      /  F ield         | OpenFOAM: The Open Source CFD Toolbox           |
|  \\    /   O peration     | Version:  v2012                                 |
|   \\  /    A nd           | Website:  www.openfoam.com                      |
|    \\/     M anipulation  |                                                 |
\*---------------------------------------------------------------------------*/
FoamFile
{
    version     2.0;
    format      ascii;
    class       volScalarField;
    location    "200";
    object      ddt0(k);
}
// * * * * * * * * * * * * * * * * * * * * * * * * * * * * * * * * * * * * * //

dimensions      [0 2 -3 0 0 0 0];


internalField   nonuniform List<scalar> 
15335
(
4.29008e-06
9.11812e-07
6.79315e-07
-2.10953e-10
-6.84585e-10
-8.28773e-11
-1.20032e-08
-2.36715e-09
-4.24138e-10
-5.28119e-10
-4.66618e-10
-1.45144e-10
9.29978e-08
-7.63515e-09
-1.04417e-09
3.26943e-10
-7.99557e-07
4.57828e-07
-1.85079e-10
-1.1486e-09
-4.29341e-10
5.49033e-06
-1.20685e-09
-4.80152e-10
9.82489e-07
-9.91737e-07
-2.8202e-08
-7.26513e-10
-6.61944e-10
-7.89579e-07
-5.98306e-10
-1.01202e-08
3.51672e-09
-2.04274e-09
-3.78429e-09
1.52002e-07
-5.29885e-10
-3.25542e-09
-6.23827e-09
5.29122e-07
-4.24029e-10
2.26289e-05
-2.87903e-10
3.95562e-08
-1.9711e-05
-5.92425e-10
-4.03289e-10
1.07003e-08
2.05793e-10
-8.49186e-10
-5.24369e-10
-6.98539e-10
-4.61866e-10
3.4086e-09
-1.06315e-05
-1.21997e-05
-1.13257e-07
4.05241e-08
-2.69498e-09
-2.13611e-06
1.30254e-06
2.40587e-10
-4.62773e-10
-7.3528e-10
-6.84909e-10
5.91686e-06
-2.79522e-05
-2.96451e-10
-2.75882e-09
-2.24412e-10
2.69977e-09
-1.22299e-09
-4.46901e-10
-4.34259e-05
-6.78122e-10
-3.15057e-05
-1.68932e-06
5.21e-09
-9.15418e-10
7.69699e-08
2.863e-06
6.07654e-10
8.16985e-10
9.58205e-09
-9.54859e-10
1.28007e-06
-8.15105e-10
-2.09614e-08
-8.55012e-11
2.32632e-09
-4.79891e-06
-4.04457e-10
-5.14946e-05
2.5531e-05
-1.15065e-09
5.81683e-09
-2.98154e-10
6.55615e-06
-6.18679e-10
6.8933e-06
-3.31752e-10
-1.25272e-09
5.59687e-07
3.10331e-10
-3.97388e-10
-3.0352e-10
-8.52303e-07
-3.42632e-10
-6.64879e-09
-6.17779e-09
2.80066e-09
2.96306e-09
1.10959e-07
-2.31079e-09
-2.26359e-09
-6.4087e-10
-5.84676e-09
-1.20518e-09
3.50783e-06
-2.29027e-06
-1.22679e-09
3.01198e-09
-8.38739e-07
-2.045e-10
1.94537e-09
-8.47873e-10
-1.62628e-10
-3.43366e-07
-1.58824e-09
-7.11105e-09
-9.36867e-10
-9.21725e-09
-1.08616e-09
2.98132e-06
-9.24994e-10
-3.83231e-05
-5.04326e-10
-2.41411e-10
-4.66129e-09
-2.01283e-09
-4.27746e-10
5.4926e-06
-1.31414e-10
-4.68259e-07
-1.91064e-07
-4.28851e-10
-3.2499e-05
-2.62978e-08
-3.7344e-10
1.15015e-08
-4.04468e-10
-1.64592e-05
3.78063e-10
-8.01647e-10
3.25274e-06
-5.24403e-10
3.77947e-08
-3.54903e-10
-6.04212e-10
-6.21377e-10
-3.51015e-10
-4.14203e-09
-4.48944e-10
-1.92431e-09
-3.01765e-10
-1.93441e-10
-6.77468e-10
-1.39715e-05
-6.83252e-10
-9.86255e-11
-7.1637e-10
-5.7723e-10
-4.56567e-10
-5.31527e-10
-3.4813e-10
-4.00736e-10
2.43357e-06
-6.7655e-10
1.96752e-08
6.24412e-06
-4.39905e-10
3.34234e-07
-1.70137e-09
-6.8953e-10
-6.45969e-10
-1.75092e-07
2.16703e-08
3.55191e-07
-3.11557e-10
-1.2137e-06
4.49732e-09
5.03872e-06
4.43748e-10
-4.30743e-10
-4.0477e-10
1.37343e-05
-4.45333e-10
5.20832e-10
-5.35104e-09
-2.4078e-06
-4.45938e-08
-4.55774e-10
-7.51896e-10
1.50047e-07
5.75217e-06
-1.35971e-09
-2.16092e-07
-1.59114e-10
-1.08461e-08
4.15835e-06
-1.46925e-06
5.49691e-09
-5.05623e-10
-1.04335e-08
-1.52268e-06
-4.63148e-10
-2.04705e-09
3.31548e-09
-1.84086e-09
-1.19257e-07
-5.27572e-10
1.68035e-08
-4.07433e-05
1.29721e-08
-2.39898e-09
2.81625e-06
6.71958e-08
-5.89059e-10
-7.86665e-09
1.00462e-06
1.72557e-09
-1.70226e-07
-1.37347e-07
-1.38031e-09
-4.29851e-10
-4.1502e-10
-6.86416e-10
-1.62065e-06
-1.08468e-06
-6.52885e-10
1.86508e-08
-2.26163e-10
-4.25074e-08
-7.44782e-10
6.23237e-06
-4.50991e-10
-4.65787e-05
-5.21052e-10
2.01959e-05
3.37489e-05
-8.38219e-10
-6.56701e-10
4.0081e-07
9.38127e-09
-5.30925e-10
5.82112e-06
-6.36093e-10
-1.41527e-09
-3.48074e-05
-4.98e-10
-6.1122e-05
2.49234e-05
-1.2354e-06
-2.51955e-06
6.62303e-07
6.61438e-07
6.31796e-06
-4.68218e-10
-6.01225e-07
-4.60799e-10
8.19397e-08
3.44713e-10
4.29589e-06
-9.65877e-10
-3.72448e-10
2.28737e-06
1.93867e-06
-1.71967e-09
-4.03207e-10
6.44778e-06
-6.46212e-10
-1.9562e-10
-4.09431e-10
-3.83918e-10
4.36239e-08
-3.81768e-10
-1.38671e-09
-1.91009e-10
-1.74176e-07
-8.12627e-10
4.17261e-07
-5.58662e-10
-6.3575e-10
-5.70425e-10
-3.12704e-06
-1.22222e-09
-7.0243e-10
-6.64165e-10
-4.4827e-10
-4.18836e-10
-3.81878e-09
1.36992e-08
-2.4048e-05
3.63867e-07
4.46168e-06
-6.24089e-10
-6.94228e-10
-3.57848e-07
-1.97789e-07
5.32545e-08
1.60386e-06
-5.44812e-10
5.58702e-10
3.5924e-06
-6.13803e-10
9.06611e-09
-3.45554e-10
-7.07069e-10
-4.563e-10
-1.65602e-09
-2.1123e-10
-1.47995e-09
1.64506e-06
-2.4025e-05
-1.26543e-09
-7.76524e-07
4.04036e-07
-6.195e-10
-1.20848e-09
-1.94168e-09
-4.62734e-10
-4.32757e-06
1.50399e-05
5.93906e-09
4.59271e-09
-2.72698e-10
-2.80821e-10
-8.24112e-10
-1.33239e-08
3.81082e-05
-2.1977e-09
-2.62029e-09
-7.9902e-09
-1.99675e-09
3.59005e-09
2.54371e-05
-5.97727e-09
1.41546e-05
-7.42429e-10
-5.40103e-10
-3.67844e-08
-6.6753e-10
-1.50807e-09
3.00122e-05
-2.3041e-05
-7.93927e-10
1.0724e-08
-1.16863e-09
-2.66967e-10
1.37514e-05
-9.2038e-11
-4.22817e-10
-1.14419e-09
-9.32639e-11
-2.5521e-05
1.33238e-08
-4.27629e-10
-4.61469e-10
2.07676e-11
-1.19223e-10
8.7538e-09
-6.86418e-10
-1.38118e-09
-3.30228e-10
-5.69808e-10
-6.87245e-10
1.17732e-09
3.87602e-10
-1.6641e-10
-2.24695e-08
2.64461e-05
7.51204e-10
-1.31402e-07
-2.75789e-08
3.10602e-06
-3.05203e-09
-5.27968e-10
-1.27601e-05
-6.90608e-10
-5.67312e-10
-3.95406e-10
-1.65442e-10
-6.6703e-10
-4.86922e-10
-9.07355e-07
-8.92454e-10
-3.64586e-10
4.24631e-10
-1.31095e-10
-1.23109e-05
-1.12432e-09
-2.63528e-06
-4.04898e-09
-5.61599e-10
-1.77514e-10
-1.09678e-09
-3.37919e-10
-4.37528e-10
-1.69283e-07
-3.5251e-10
-5.66898e-10
-4.23182e-10
-5.27165e-10
-6.91735e-10
1.53025e-08
-6.53531e-10
-1.147e-10
-5.23274e-10
-5.57419e-10
1.83332e-09
4.51316e-09
-2.56607e-10
1.01135e-06
-1.57492e-10
-5.25512e-10
-3.5617e-07
-2.07325e-10
-5.56132e-10
-8.59723e-10
1.64843e-06
-5.03198e-05
5.72156e-08
1.79329e-08
-1.91987e-06
6.10989e-10
-3.50277e-10
1.18923e-05
6.60985e-09
-2.60942e-10
-1.06741e-09
-2.86859e-10
-5.41656e-10
-7.7312e-10
1.91477e-06
-7.9525e-10
-2.16288e-05
7.0321e-10
-1.87373e-10
-1.0806e-09
-5.41473e-05
-3.77556e-09
1.39788e-05
-1.80984e-10
-7.81784e-07
-9.28728e-10
-3.77897e-10
4.00134e-10
3.27994e-05
9.8181e-09
-3.7349e-10
-3.41544e-10
-2.69192e-10
2.00532e-08
-5.56014e-10
2.93947e-08
-6.25456e-06
-2.41775e-09
-1.08461e-06
-7.8464e-10
-6.59363e-10
-3.65743e-10
6.50856e-06
-5.68351e-10
-1.43254e-05
-5.2086e-10
-4.36966e-10
-2.0518e-10
-4.06124e-10
-2.57152e-06
-3.51312e-10
-9.43979e-10
-5.0475e-10
-5.80743e-10
-1.39921e-10
-2.2758e-10
2.54882e-05
-7.28999e-10
-5.40034e-10
-7.55945e-10
-4.44791e-10
-1.99029e-08
5.9025e-08
-1.70377e-10
2.2411e-09
5.294e-06
6.17384e-07
-4.55009e-06
-4.23315e-10
-8.01909e-10
2.24901e-08
1.3675e-08
3.4524e-06
-3.02029e-10
-3.18644e-09
-2.44562e-10
-1.13534e-09
-5.63728e-10
4.84092e-08
-1.26723e-10
-5.95971e-10
-7.96872e-10
1.566e-09
-8.88639e-06
-1.88831e-08
-3.19093e-07
-3.03225e-10
-3.99906e-10
9.11269e-10
1.31532e-07
-2.64043e-05
-2.20563e-06
-6.01635e-07
-7.35211e-10
-5.91163e-10
-8.20828e-07
-6.17077e-10
-1.87189e-05
-7.19291e-10
-6.51616e-10
-7.64802e-10
-4.37376e-10
-6.62318e-09
-1.52829e-06
-7.68932e-10
1.27324e-08
-3.44132e-09
4.35193e-05
9.48982e-08
-6.16141e-10
-3.97465e-10
8.63504e-09
1.28115e-08
-1.116e-10
-4.08486e-06
-1.58446e-10
-3.3799e-05
7.77002e-06
-4.50695e-10
2.51019e-09
4.60012e-10
3.04632e-09
-5.38198e-10
-2.12848e-10
-6.56945e-10
-2.60106e-06
-4.84844e-06
-1.24752e-10
-8.04029e-10
-2.06103e-10
-2.18273e-06
1.19715e-09
-5.25053e-10
-9.59529e-10
-2.52176e-10
9.01972e-05
-4.06934e-10
6.89329e-10
-4.56127e-10
9.48463e-06
-7.20769e-06
-4.47471e-07
-1.48443e-10
-1.90578e-10
-8.37186e-10
-4.38022e-10
-1.8879e-10
-5.43558e-10
-5.73997e-10
-3.43874e-10
-6.24695e-06
-3.44231e-05
2.84482e-06
3.78509e-09
1.67998e-09
-6.11861e-10
-1.39194e-07
-3.54857e-06
5.34561e-06
-1.32334e-09
-6.16795e-10
-9.31775e-10
-8.75443e-10
-2.51982e-06
-1.28295e-09
-1.25371e-10
1.03923e-05
-3.20122e-10
-4.15035e-05
-4.17762e-10
7.26625e-07
-5.53452e-10
-2.77444e-10
-1.89789e-06
-2.6661e-05
-5.90133e-10
-4.95056e-10
-4.06388e-09
-5.06833e-10
4.18639e-06
3.45954e-09
1.13444e-06
-1.41724e-05
6.84887e-06
-6.82037e-10
-4.21754e-10
3.69824e-08
-5.0949e-09
6.08711e-06
-3.64883e-10
-4.85854e-10
-7.73715e-10
-5.48392e-10
-2.78867e-10
-4.23831e-10
-1.24685e-08
-8.78825e-10
-4.0331e-10
3.40135e-10
1.27598e-08
-1.62322e-09
-3.80528e-10
-3.29216e-08
-6.29206e-10
-6.17041e-10
-2.08259e-09
4.31073e-06
-2.16897e-07
-3.27459e-10
-8.93841e-10
-7.17323e-10
7.47564e-10
-2.12621e-10
-2.01141e-10
2.21436e-08
-1.96207e-10
1.58694e-08
4.95124e-09
-4.15631e-10
-2.32161e-09
-3.7134e-06
-8.76476e-06
-2.03184e-10
-6.41241e-10
-4.13097e-10
1.25997e-06
5.19682e-09
8.12522e-06
-4.2295e-10
-4.27875e-10
-4.37313e-10
-6.75723e-10
2.1093e-10
-4.69872e-09
-1.84699e-05
-9.41845e-10
4.22481e-06
-4.09597e-10
-3.52845e-10
3.61879e-07
-7.32691e-10
4.3763e-09
-7.97967e-10
-1.09241e-09
-1.25619e-10
-2.99584e-09
-9.31545e-10
-1.66286e-10
-1.62527e-10
-3.06645e-09
1.10869e-07
-4.24872e-10
-1.75897e-05
5.55889e-09
-5.76065e-10
5.01365e-05
-3.17889e-06
-9.95168e-10
-4.34711e-10
-3.94071e-10
-1.60335e-10
-1.86155e-08
-1.53474e-08
-1.6876e-10
-5.95676e-10
-9.42692e-10
-1.46432e-06
-2.1434e-06
-3.63729e-10
-1.79837e-09
1.93936e-06
-5.47442e-10
1.66933e-05
1.44195e-06
-1.40181e-09
-3.2463e-10
-1.97997e-06
-3.73334e-09
-3.26816e-09
4.94299e-10
1.31721e-06
-1.31593e-10
-4.26609e-10
-1.9581e-08
-7.3954e-10
-1.74797e-09
-2.31123e-06
-1.88172e-07
2.12244e-06
-1.18613e-09
-5.77099e-10
-6.26074e-10
-4.10947e-10
-4.14325e-10
-3.84512e-10
3.08603e-09
-4.66383e-10
-1.37988e-05
-5.62691e-06
-2.53814e-09
3.44531e-05
-3.50249e-07
6.61118e-08
-7.80673e-10
-8.26912e-10
-4.06652e-10
-3.37369e-10
-4.49125e-10
-6.67601e-10
-1.46226e-10
1.33527e-09
2.21745e-09
-3.30214e-10
-4.44886e-06
-1.46711e-05
-1.37219e-10
6.01278e-08
-1.61442e-10
4.54485e-06
-1.33696e-09
2.37612e-08
-1.52906e-10
-2.15218e-10
-4.14595e-10
-4.9167e-10
-4.14764e-10
1.92777e-10
4.86269e-07
1.49506e-08
2.51587e-09
3.28792e-05
6.03652e-09
1.18576e-05
-3.67842e-10
6.19592e-06
-5.47441e-10
-2.9247e-06
-1.45916e-10
-3.31638e-10
-1.94988e-10
8.93122e-08
-5.11984e-10
-1.87992e-10
-1.50713e-08
-4.24562e-10
-1.77238e-09
-1.13163e-09
-6.05269e-10
5.27151e-07
-5.74623e-10
4.5128e-07
4.44208e-07
-2.58645e-10
-7.32045e-10
-3.47211e-10
-8.28575e-06
4.3069e-09
2.97941e-09
1.22338e-07
2.89388e-08
5.6868e-10
-1.2752e-05
-1.09264e-05
-7.60093e-10
-1.35206e-08
-3.48525e-10
6.1752e-06
-1.81948e-09
-5.05926e-10
5.35868e-07
-5.02356e-10
1.68602e-07
-8.15917e-10
-5.91345e-10
-2.86214e-09
-1.47064e-06
-3.2178e-10
-1.64938e-09
-4.14157e-10
7.66455e-10
-1.59313e-05
-7.67995e-10
-1.26164e-07
1.74723e-08
-7.89108e-10
-4.92252e-10
1.07962e-06
-4.14921e-10
-1.06287e-09
-4.11263e-10
9.76769e-09
-4.29903e-10
-1.56226e-08
-5.57329e-11
1.33378e-09
-5.51027e-10
-9.40871e-10
-3.98822e-10
3.16711e-09
-2.62173e-05
-7.70127e-10
7.63257e-07
-2.88436e-08
-6.6981e-09
-1.50646e-09
1.50131e-05
-6.35322e-10
-1.78278e-10
-6.71315e-10
-4.01799e-10
-3.77277e-10
1.69473e-08
-7.07948e-10
1.25032e-09
-1.78722e-10
-2.4922e-10
-1.38377e-10
3.51606e-10
1.48851e-05
-4.63858e-10
-1.00111e-09
-1.66598e-10
-2.5889e-10
-4.15905e-10
-7.71417e-10
-5.13986e-10
-2.43841e-10
-8.08546e-10
-2.50933e-05
-5.91215e-10
-3.20289e-06
-4.67505e-10
-7.67242e-10
1.19429e-06
-3.92396e-10
1.11014e-06
3.43971e-06
3.18538e-05
6.5649e-06
-5.50257e-10
1.97347e-09
-5.34407e-08
-2.13935e-09
-4.06794e-10
-7.66931e-10
2.83591e-07
4.79515e-09
-7.63831e-10
-1.04796e-09
-5.36773e-10
8.16473e-07
-5.94277e-10
-1.69084e-06
-7.05864e-10
-2.13169e-10
-3.7527e-10
-2.63221e-10
-1.31451e-08
-1.5617e-10
1.82913e-08
-1.32904e-05
-2.17345e-10
1.20381e-09
-1.62067e-10
-3.26299e-10
3.90626e-10
-7.18254e-10
-6.99615e-07
-8.06454e-10
-1.10254e-05
4.23165e-05
-1.4025e-10
1.01666e-05
-5.49448e-10
-5.10414e-10
-4.2945e-08
-4.43484e-10
-2.14669e-10
-6.98548e-10
-4.5135e-06
-7.43102e-10
1.02243e-09
-3.28586e-10
-2.12369e-05
-4.13948e-10
-6.76538e-10
4.87741e-10
-1.46594e-09
-4.30495e-10
-4.81209e-08
-2.52163e-11
-3.89551e-10
-4.04568e-10
4.77868e-09
-1.73277e-06
1.59813e-06
-6.99662e-10
-2.32149e-05
-4.33338e-06
1.07104e-09
-2.10678e-06
-3.59733e-05
1.51538e-05
1.17967e-08
-3.19801e-05
-3.40683e-06
-5.56795e-10
-3.88821e-10
-7.02603e-10
-1.30452e-10
-1.18194e-09
-3.89269e-09
2.78655e-09
7.8381e-06
-9.19578e-10
-2.53097e-05
-5.05215e-10
7.07231e-08
5.30403e-06
-6.03442e-10
-6.94119e-10
-7.15457e-07
-4.63135e-10
-5.56493e-10
1.55091e-06
-4.77011e-10
-4.28079e-10
-2.42706e-10
-2.34994e-05
-2.70089e-10
9.10333e-06
-1.91921e-10
-1.66102e-09
-2.137e-08
2.7581e-09
-3.68276e-06
-1.00655e-09
6.89052e-06
4.37843e-09
-2.79953e-10
-8.23001e-07
-5.94663e-10
-1.14751e-08
-2.95671e-10
-7.5829e-10
1.98699e-06
-6.3449e-06
-3.95287e-10
2.77246e-07
-3.69593e-06
-3.04174e-10
-1.40316e-06
3.01619e-09
2.21982e-08
6.56703e-06
-2.09083e-06
-2.06103e-10
4.4244e-06
-2.15066e-08
1.12891e-06
4.56905e-10
-5.58567e-10
-1.06669e-09
-4.75059e-10
-1.48241e-05
-2.0715e-10
-4.06688e-09
-3.85803e-10
-9.94149e-10
-3.97685e-10
-1.29876e-09
-3.99552e-06
7.3385e-06
-3.43887e-10
3.176e-09
2.55435e-10
-1.91416e-05
-6.55952e-10
-4.29509e-10
-9.87395e-09
-2.82997e-10
-3.84897e-10
-4.53496e-10
3.26508e-10
-5.52442e-10
-2.33376e-09
6.55407e-09
-1.2646e-09
-6.34096e-10
-1.93792e-10
-3.34077e-06
-3.6163e-10
-1.83872e-10
-5.98527e-10
-3.95332e-10
-6.50663e-06
-2.04507e-10
-2.21866e-10
4.09887e-07
1.39466e-05
-2.05109e-10
1.15148e-07
-4.41597e-10
1.45119e-05
-8.15358e-10
2.31795e-06
-8.73903e-08
-4.15349e-10
2.04144e-05
-1.23429e-09
-3.27293e-08
-2.31936e-10
7.82313e-10
-6.86276e-10
2.63834e-08
2.03218e-08
-5.68781e-10
-2.43376e-05
-5.14708e-08
-9.4895e-06
-3.43547e-08
-4.83999e-09
-4.07524e-10
-4.7955e-10
-1.441e-07
-4.23895e-10
-3.2957e-06
1.42819e-05
9.76629e-10
5.81206e-09
-4.12406e-10
-1.40025e-10
-9.54542e-11
-6.04125e-10
-3.93074e-10
-4.01786e-08
3.90044e-05
-3.14459e-10
-2.46266e-10
-8.27894e-10
-5.18443e-09
-3.98138e-10
-3.76733e-10
-2.08171e-05
-1.06726e-09
7.31862e-06
-3.71083e-06
9.69329e-08
9.94154e-09
-5.5857e-10
-2.53052e-05
-3.54922e-10
-5.03106e-10
-2.67756e-05
-1.16405e-06
-4.28505e-10
-7.54907e-10
2.44194e-09
-4.33651e-10
-4.7076e-08
-3.78906e-10
-2.58305e-10
1.41243e-05
1.09031e-05
3.99848e-10
-1.11239e-09
2.49588e-05
-9.66809e-06
-3.26575e-09
-4.31596e-10
-9.1497e-11
-1.845e-10
-4.78534e-10
-8.32621e-11
-6.7999e-10
2.95805e-07
-3.36421e-10
-3.9617e-10
-2.40556e-09
-2.22384e-10
-2.38634e-05
-1.53474e-10
-1.52657e-10
-4.72167e-10
-4.41943e-10
-1.08678e-09
-1.70999e-08
-4.69006e-10
-4.97507e-10
9.98794e-10
-6.44057e-10
-3.34095e-10
-6.77501e-10
-4.02657e-10
1.76845e-05
-4.42378e-06
-7.65613e-10
-7.38225e-10
-2.24277e-05
1.667e-09
-6.03899e-10
4.86838e-10
-2.40404e-10
-1.44524e-10
-3.18238e-09
3.67917e-09
-1.49938e-10
1.46515e-09
-4.90563e-10
-2.48353e-05
1.16231e-08
2.97327e-09
-2.86953e-09
-2.66e-05
-4.16544e-11
-3.70454e-07
3.23036e-09
-2.55555e-05
1.8001e-07
8.67787e-07
6.32516e-09
5.6035e-06
-6.18395e-05
-2.72289e-07
5.60054e-06
1.68054e-06
-4.06803e-10
8.01433e-07
-5.31759e-10
6.03274e-06
-1.03082e-06
3.88498e-05
4.72348e-05
-3.56932e-10
-0.000132836
-3.46397e-10
-2.37843e-10
1.57092e-09
-1.45544e-06
-2.62656e-09
-2.3107e-08
-3.23741e-10
-2.12158e-10
-5.44172e-10
-5.67843e-10
-3.13001e-10
-6.13794e-10
-1.62139e-05
1.09435e-08
1.21882e-10
-2.21259e-08
-3.80872e-10
-2.47709e-09
-6.79932e-10
-9.92363e-10
-3.94654e-10
-4.53839e-10
-5.94451e-10
-3.46617e-10
-4.96521e-10
-4.6139e-10
-7.09191e-10
-4.01885e-10
-4.4843e-08
-2.11193e-10
1.30252e-08
-3.398e-05
-1.89026e-05
5.23547e-07
-1.69205e-07
-3.65384e-10
1.03316e-05
4.0391e-09
-9.78807e-06
-7.18893e-10
-3.58631e-10
-1.28471e-10
7.09281e-07
-5.50514e-10
-3.67166e-10
-1.26449e-06
1.40338e-07
5.68763e-07
-1.14373e-07
-1.29165e-06
3.28047e-07
-1.88e-10
-4.09789e-10
-1.21511e-05
-2.00486e-05
-1.71023e-10
-2.0065e-10
-7.98226e-10
1.66965e-06
-4.93281e-10
3.14083e-05
-6.15275e-07
-1.4665e-05
-6.68136e-06
-1.5488e-10
-2.58129e-10
-1.06141e-06
8.07498e-07
1.48273e-05
-5.50585e-10
-3.52078e-06
-2.03974e-10
-9.49263e-06
-3.89513e-10
-2.51598e-10
-2.29022e-10
-5.81573e-10
1.21434e-05
-4.66638e-10
-8.94413e-07
-4.75849e-08
4.28698e-07
-4.93291e-10
-1.13079e-09
-1.26948e-09
-3.38109e-05
1.39128e-06
-9.02478e-10
9.10974e-08
1.24912e-05
-2.52573e-10
-3.68358e-10
-3.45925e-10
-8.20335e-10
1.32195e-08
5.58244e-08
-3.38989e-10
-4.12691e-09
1.77296e-06
-6.15652e-10
-7.79659e-10
-3.00308e-05
3.62834e-06
-1.26965e-09
2.1921e-10
7.63303e-09
-2.72326e-05
-4.64527e-10
-1.90018e-07
-4.58681e-10
-1.40209e-09
5.90874e-09
2.57932e-07
-3.74554e-05
-4.68079e-10
-3.18523e-09
-1.16808e-10
-3.98531e-07
-7.54153e-10
-1.18586e-09
-6.21898e-10
-1.11434e-09
-3.69724e-07
-2.28891e-09
-2.0135e-09
-3.60334e-10
-4.124e-10
7.93741e-09
-1.88266e-05
-5.17315e-08
2.50209e-10
-7.57664e-07
1.26072e-05
6.04089e-07
-5.25962e-10
8.00233e-08
1.91747e-06
-4.17116e-10
1.26053e-08
8.12493e-08
3.46147e-05
-3.40488e-10
-4.90151e-10
-2.65808e-05
4.50695e-08
-1.18003e-10
3.05533e-09
-1.94936e-10
2.21846e-08
1.20049e-06
-1.4346e-09
-9.5842e-06
2.65036e-06
-2.57096e-10
-4.0498e-10
-4.61455e-10
-1.65211e-10
-3.53724e-10
-3.0486e-09
-4.78266e-06
-3.69862e-10
-3.74966e-10
7.32133e-08
4.68009e-05
3.84071e-10
2.61404e-07
-6.25878e-10
-1.64672e-10
-6.6516e-10
-2.4044e-10
-1.16683e-10
-3.1258e-09
-4.04696e-10
8.46541e-06
-3.42328e-07
-2.87815e-09
2.75024e-07
3.34365e-05
-1.18461e-08
-7.35402e-10
-2.6399e-06
-1.26348e-09
-8.33749e-10
-1.06158e-09
-4.22999e-07
1.55614e-07
-7.66651e-06
-1.42648e-05
-8.22186e-07
-7.18733e-10
-6.86435e-07
6.25617e-10
-5.16192e-06
3.62343e-06
-3.37096e-10
9.57325e-09
-3.8821e-10
-4.29134e-10
-3.27266e-10
1.06901e-08
1.49585e-05
-1.56694e-10
-3.96216e-10
-6.06137e-10
-7.7584e-06
-2.16021e-10
1.36885e-05
-1.744e-10
4.10492e-07
9.44813e-06
1.36428e-08
-1.03974e-09
-1.03103e-10
-8.77137e-09
-1.50422e-07
7.26508e-08
-8.0031e-10
-1.27763e-10
1.33089e-06
-2.70745e-09
-1.17979e-06
7.73587e-08
-7.36358e-07
-5.29794e-10
-7.4777e-10
-1.87769e-10
-5.30502e-10
-2.29208e-09
-1.91797e-10
-4.30623e-10
-1.73928e-09
-2.14203e-10
-1.19966e-10
1.11423e-09
3.28917e-06
-3.70812e-10
-2.29095e-10
1.01578e-05
2.59857e-06
-4.08462e-10
-2.0293e-08
8.69583e-06
-7.60597e-10
-8.54236e-10
1.66247e-05
-5.03042e-10
-3.22906e-05
1.12904e-05
-2.83745e-10
-1.08822e-09
-8.52893e-06
-5.15956e-10
-2.75171e-09
-7.38193e-08
6.18192e-08
-2.67102e-10
2.01759e-05
-1.2461e-06
8.58714e-10
-4.28395e-10
-3.08346e-08
2.77808e-06
3.53871e-10
-2.61924e-10
-3.19673e-10
-7.18199e-10
-4.31549e-07
-1.27591e-05
5.2156e-06
-9.51179e-06
-1.46893e-06
-3.04439e-09
-8.70995e-10
-3.60767e-06
5.41686e-10
4.05895e-10
-2.09815e-09
-5.45041e-10
-6.41193e-10
4.79826e-10
-3.62981e-09
3.93705e-10
-2.97898e-05
-3.90429e-05
-1.50879e-08
-9.33259e-05
-4.33128e-10
-5.70416e-10
1.09118e-06
-3.65928e-05
-2.64431e-06
8.02181e-07
-4.2735e-10
2.72971e-07
6.75301e-06
-1.78101e-09
4.08124e-09
1.18542e-06
-1.27806e-09
-7.25085e-07
-1.22428e-09
1.46482e-09
-1.27482e-09
-3.18043e-08
-4.04355e-10
-2.92938e-06
-7.81039e-10
-1.20185e-10
-5.71371e-10
-1.92896e-05
5.17285e-06
-5.03579e-10
-8.86661e-10
5.53657e-06
1.30921e-05
-2.75306e-10
-2.29215e-09
-1.53819e-09
-4.1832e-07
-4.34342e-10
-7.67924e-10
-4.09713e-10
-3.38004e-10
3.60271e-05
-5.28241e-10
5.33282e-07
-7.31177e-10
-4.65626e-10
4.18041e-05
-1.08224e-10
-4.60848e-10
1.98595e-09
-4.86543e-10
-3.96956e-10
-3.86675e-10
-4.62137e-10
-1.58199e-09
-6.07705e-07
-6.20081e-10
3.27142e-09
-5.7618e-10
-9.20494e-11
-5.10189e-10
-5.28608e-10
6.27133e-07
-4.33812e-10
3.14016e-06
-6.47284e-10
-6.09654e-10
4.03046e-09
-4.0593e-10
-7.94697e-10
-4.04925e-10
-7.95746e-11
-1.43148e-10
-2.06772e-10
8.04365e-06
-3.54758e-10
9.10725e-10
-1.32453e-09
4.55023e-07
-4.52818e-05
-9.76881e-07
-3.27271e-10
-7.07704e-05
3.07266e-10
3.67288e-10
-7.85883e-11
-1.343e-10
-1.09912e-05
-1.22134e-09
-5.69162e-10
1.14001e-08
-2.51047e-06
8.06704e-10
-3.55176e-05
-3.50314e-09
8.86102e-06
-1.97067e-05
-4.03892e-10
-9.07732e-11
-4.63422e-10
-1.82028e-08
-2.56761e-10
-3.68737e-10
-1.75213e-09
-6.42736e-05
8.19391e-06
-1.20862e-07
-4.76466e-10
-6.44893e-10
-1.36825e-05
3.02444e-06
1.05411e-06
-2.02117e-05
-1.04865e-05
-9.80093e-10
-3.2784e-05
-1.02227e-08
-9.36123e-10
9.09887e-06
-8.6107e-10
-4.04593e-10
-5.81325e-09
-7.12292e-07
7.36191e-06
9.11316e-07
-1.98414e-10
-1.23902e-09
-1.5774e-09
-2.01239e-08
3.91026e-06
-2.89653e-10
1.14524e-08
-1.85519e-08
4.21733e-10
-2.56881e-10
-3.57996e-10
1.18671e-05
-4.97018e-07
-5.68784e-09
-7.7834e-10
-6.97508e-10
-2.16332e-06
3.72819e-06
-4.06197e-10
-6.85349e-10
-8.9178e-11
-6.79299e-10
-1.00046e-09
-9.39137e-06
1.89923e-08
-3.82893e-10
-1.31119e-09
-5.29633e-10
-2.01332e-09
-5.51748e-10
-1.83917e-10
-8.49347e-11
-5.1482e-06
-5.08639e-09
-6.43566e-09
-4.03762e-10
-3.45684e-08
-1.61623e-10
-2.55068e-10
-4.55203e-10
-8.75336e-10
-4.97918e-10
-2.36159e-10
-9.78041e-06
-4.13421e-10
1.37956e-05
-7.82081e-06
-3.32661e-09
-2.71681e-09
-8.27459e-11
-3.34375e-05
-1.77658e-06
-4.30505e-10
2.57575e-06
2.39278e-08
3.92465e-05
-2.57397e-10
-6.48224e-06
7.32059e-12
-1.95968e-10
-4.06259e-08
-4.0416e-10
1.54227e-06
-1.05029e-10
-9.66765e-11
-2.58439e-10
-4.95705e-09
-5.44948e-10
-7.19989e-10
3.95232e-08
-1.18998e-09
-7.25533e-10
-3.39946e-10
4.64195e-05
-1.71097e-10
-2.257e-05
-5.82434e-10
-2.29534e-07
5.98735e-08
-2.57875e-06
3.20677e-05
-3.51592e-10
-2.05009e-10
-3.87332e-10
-5.54845e-10
-2.42906e-06
-3.96996e-06
-3.5822e-10
-4.08672e-10
0.000280349
-4.0738e-10
-3.87313e-10
-5.55891e-10
-5.84869e-07
-1.53046e-09
1.3437e-07
8.30377e-06
-4.25765e-10
9.81987e-07
-4.1983e-06
8.65505e-10
1.88533e-08
4.15361e-09
2.83692e-05
5.11331e-06
-5.25666e-09
2.386e-05
-3.96104e-10
-1.49774e-09
-3.19335e-05
-8.37583e-10
-4.43666e-10
-3.38255e-10
-3.27118e-05
7.90558e-08
-1.70765e-05
-4.94369e-09
-5.63666e-10
1.29315e-06
-5.85018e-10
-3.06012e-06
-1.61813e-10
1.88629e-05
-1.14411e-08
-6.64238e-10
-3.93924e-10
4.74543e-05
-1.09177e-09
4.38148e-05
-1.04658e-09
-1.03169e-09
-2.17119e-09
-2.40782e-07
-2.98961e-10
-4.57484e-10
3.16038e-06
3.32716e-06
1.29678e-05
3.36303e-05
-2.62817e-10
5.52596e-05
-1.27978e-10
-3.97805e-10
-4.09512e-10
-2.02653e-06
-9.64802e-10
4.53347e-10
-5.27589e-10
-3.51128e-10
1.58506e-08
-9.85783e-07
-2.03745e-05
-1.78453e-09
1.11675e-07
-3.84492e-06
-3.77292e-10
-9.01727e-11
-1.12574e-10
1.14919e-09
-1.64079e-07
-4.22413e-10
-5.2656e-10
9.75994e-07
-4.15238e-10
-5.97055e-06
-8.20034e-06
1.04807e-08
-6.05272e-10
-1.11474e-09
3.98041e-10
-1.58847e-06
4.02676e-09
-8.77778e-10
-4.94738e-10
-6.71716e-10
-3.47354e-09
-3.40671e-06
-9.23478e-08
-4.13647e-10
-9.14944e-06
-1.18259e-10
-5.83296e-08
-4.85004e-06
2.3882e-09
-4.70955e-10
6.18984e-09
1.06083e-06
-4.76017e-10
-9.74125e-10
-8.74574e-09
-3.5415e-10
-1.85173e-05
8.00444e-08
-2.37378e-10
-4.20171e-06
-7.00299e-09
-3.72414e-10
-1.41379e-10
-4.82687e-10
-7.81642e-11
2.80482e-09
-2.97081e-09
-4.64944e-10
-1.22128e-10
-1.02609e-09
-2.03816e-11
-5.02229e-10
-1.47196e-10
1.15985e-05
-6.46951e-10
-5.75031e-10
1.77692e-05
-1.36559e-06
6.79295e-06
-5.91102e-10
-1.08259e-10
-7.19654e-10
3.85925e-09
-8.13438e-10
-3.35953e-10
5.77789e-08
1.40915e-07
-5.29367e-10
-1.62005e-10
-1.14426e-10
-5.92486e-10
-5.8561e-09
-4.38167e-10
-6.81034e-10
9.59671e-08
-5.04826e-10
-6.17001e-10
-6.58527e-07
5.25259e-07
4.07919e-06
1.20568e-09
-9.30255e-11
-1.11234e-09
-7.51853e-06
-7.04641e-10
-3.4745e-10
-7.20797e-10
-7.22955e-10
-8.90064e-07
8.32796e-09
-1.21112e-10
-6.15856e-10
-7.77684e-10
1.22483e-05
-1.75649e-10
-6.96004e-10
9.24534e-06
-3.2278e-05
7.34686e-06
-1.68474e-10
-1.98792e-06
-2.40619e-10
1.8634e-11
-1.23991e-10
8.38749e-06
-5.76234e-10
-3.71131e-10
-1.19252e-09
2.72036e-10
-1.11584e-09
7.55163e-11
-4.06937e-10
1.14962e-06
-1.33295e-10
6.31576e-07
-3.91896e-10
-4.05852e-10
3.21482e-05
-2.33709e-10
-5.27875e-09
-2.38594e-10
-1.39048e-10
-8.53188e-10
-5.06169e-10
7.57737e-10
4.79428e-06
2.15122e-06
-4.41468e-10
-6.18438e-10
2.05609e-06
-1.43899e-10
-6.68829e-08
5.62572e-06
-1.95321e-05
-1.31166e-05
5.22451e-06
1.40601e-05
-1.70889e-10
1.13632e-05
3.10896e-10
-6.71075e-06
-9.04888e-10
7.49524e-08
9.37302e-06
-4.11995e-10
-6.79044e-10
-7.08571e-10
-9.35605e-11
-9.22551e-06
-5.67039e-07
-5.7822e-10
2.63417e-06
3.66134e-10
-4.56168e-10
1.49582e-07
-5.30535e-07
-2.26916e-10
-6.34878e-10
-2.59185e-10
-2.94836e-10
-9.72375e-10
-4.71392e-06
8.01344e-07
-4.35472e-10
1.72532e-09
-6.87231e-10
-1.44632e-10
9.12699e-09
-7.37199e-10
-4.86338e-10
1.5515e-05
1.70756e-10
-4.57891e-05
-1.38258e-10
-7.80897e-10
-6.15153e-10
-4.68137e-09
1.80659e-05
-3.10294e-05
-6.51672e-10
-8.44437e-10
-3.16334e-10
-5.21611e-10
1.13435e-10
-3.43714e-10
-9.69404e-10
-1.34154e-09
-1.06538e-08
-5.75886e-07
-3.92295e-09
-1.89429e-09
2.30491e-10
2.7833e-05
1.47004e-07
-3.72994e-10
-3.42064e-10
4.16982e-10
7.01782e-09
1.86753e-06
-1.0389e-09
3.47883e-07
-3.69318e-09
-5.48144e-10
8.377e-08
-6.80852e-10
1.01734e-07
-4.39035e-10
-4.94716e-10
2.54533e-10
-5.79859e-06
-3.6093e-10
-4.42883e-10
-2.30394e-06
-7.23617e-08
-6.45028e-08
-1.27727e-09
9.17702e-08
-1.49112e-05
-1.47679e-09
-1.16725e-10
-4.76483e-06
-1.44136e-09
-1.39549e-08
-1.76104e-05
8.54675e-10
1.05221e-05
-1.33373e-09
1.75997e-08
2.95605e-09
-4.99871e-10
-3.67268e-06
-8.74818e-10
9.2686e-10
-1.22851e-05
-4.05819e-09
-6.71681e-06
-3.6343e-08
-4.92941e-06
1.42538e-06
-1.35699e-10
-3.15566e-10
-1.76076e-10
-2.56485e-06
-5.97195e-06
-2.24223e-06
-5.96206e-07
-8.36237e-06
-4.38707e-06
-5.4974e-10
-3.91809e-10
-8.29453e-10
-1.039e-05
-2.5024e-05
-3.34817e-10
3.25412e-05
3.26035e-11
-4.38134e-06
-4.80223e-10
-4.22382e-10
-8.41642e-06
-2.22749e-08
-4.55514e-10
-7.08932e-07
-4.29901e-10
-5.69743e-10
-4.18571e-10
-5.55001e-10
2.91295e-08
-4.95659e-05
-1.4091e-10
-8.70837e-10
8.38713e-08
2.60716e-06
2.90527e-05
-8.58506e-11
-3.77411e-10
9.04385e-10
-2.49842e-10
-3.6889e-09
-4.70016e-07
-1.74445e-09
-2.1506e-09
1.06684e-06
-3.65645e-10
8.34403e-06
-9.48874e-09
2.51563e-08
-1.32885e-10
-5.70243e-10
-2.76336e-05
-6.57476e-08
-5.38021e-10
-7.21551e-10
-1.58985e-10
1.04646e-08
3.71337e-09
4.34464e-10
-4.14714e-10
-3.49841e-08
1.52465e-10
-8.89928e-11
-3.41976e-10
-4.02189e-10
1.23062e-06
-3.85448e-10
3.78582e-05
2.54063e-08
1.44035e-09
-6.20545e-09
4.45116e-05
-1.37824e-06
-6.84784e-10
-3.40115e-08
5.2386e-07
1.42539e-07
-4.49799e-06
-1.93533e-10
-1.62619e-07
-7.34529e-11
1.74175e-05
-2.4642e-10
-1.53119e-07
-5.54471e-10
1.10892e-05
9.66232e-06
-3.26167e-09
-1.76839e-10
-3.957e-06
1.34605e-05
-4.7017e-06
-4.36558e-10
1.78745e-08
-9.50452e-10
-3.91349e-05
3.58148e-09
-1.75938e-05
-3.22675e-10
-8.21398e-11
6.88313e-10
7.16972e-08
9.30992e-06
1.28667e-09
-7.4325e-10
2.28334e-05
3.32008e-09
-1.19582e-09
-7.01305e-10
-1.809e-10
-3.14352e-05
-4.06167e-10
-1.37203e-10
-3.58838e-10
-3.84667e-06
2.10782e-07
-7.1345e-10
2.00025e-06
-9.11919e-06
-4.33239e-10
-1.05916e-09
-1.12113e-09
-7.56304e-10
9.94891e-06
-8.6165e-11
4.69472e-07
4.7699e-05
-2.05531e-10
-4.07468e-10
-9.06687e-06
1.3367e-09
-2.55107e-10
-1.73482e-10
-3.05485e-06
-2.58436e-10
-1.39867e-10
1.15112e-09
-2.46266e-06
1.17817e-09
1.06093e-05
-5.47282e-10
-3.2472e-06
-4.0382e-10
9.43492e-07
-9.06563e-10
-1.45273e-10
-8.03792e-06
-1.19735e-09
-5.64681e-10
-8.62355e-07
2.77042e-06
-3.07426e-05
-3.87677e-06
1.01961e-07
-5.17058e-06
6.8806e-10
-3.49265e-10
-8.56872e-10
-2.23443e-10
4.44908e-10
-3.48019e-07
-9.31349e-06
3.97373e-05
5.76343e-09
-4.08696e-07
7.84791e-08
-4.56811e-10
-5.4576e-10
-6.19793e-10
1.09755e-09
5.03256e-05
-3.33274e-10
-1.379e-06
-1.0807e-09
-5.0668e-10
-1.18598e-09
6.23712e-09
-4.21344e-05
-1.40997e-09
-4.79634e-10
8.58373e-06
-1.40734e-06
-1.29632e-07
7.48872e-08
-6.53982e-10
-3.11288e-10
-1.20191e-05
-1.15784e-08
-6.95174e-07
-2.06878e-10
-1.34235e-10
7.74776e-06
-1.80081e-10
-4.12884e-09
9.99699e-09
3.97378e-06
-7.96864e-10
-2.16973e-10
-3.98977e-05
-4.31394e-10
-3.32184e-10
-5.40157e-10
-5.29201e-11
-2.43788e-06
5.38373e-06
-1.82755e-09
3.14295e-09
-1.65686e-09
-6.9688e-06
-4.19707e-10
1.197e-06
-7.71354e-11
2.5159e-09
-2.25542e-09
9.49867e-06
-2.88505e-10
-3.93919e-10
-3.98196e-10
-6.07679e-10
-7.64111e-10
7.43152e-10
-9.56447e-10
-8.59371e-11
1.17016e-05
-8.42626e-06
-2.65394e-10
-4.00818e-10
-4.34723e-07
-3.36005e-06
6.22618e-10
-4.86149e-10
3.12671e-05
-1.02988e-07
-7.84181e-10
-6.31497e-06
-5.11136e-10
-4.10118e-10
-8.95053e-10
-1.97561e-10
-1.2682e-09
-4.59872e-10
-1.18336e-10
-9.32275e-10
-2.64821e-10
1.87456e-09
-3.47349e-10
-1.88903e-10
-5.3934e-10
4.09849e-07
-4.15659e-07
-4.47986e-09
-5.4307e-10
1.00202e-05
-4.46353e-10
-1.11888e-10
-4.06362e-10
-3.55387e-10
-7.57271e-09
3.94507e-09
-3.31972e-10
-2.72587e-09
-2.09639e-09
-1.94434e-08
-3.68591e-10
2.2396e-06
-4.62504e-05
5.02187e-07
-1.59521e-06
-1.81757e-10
-4.44982e-06
3.57509e-05
1.08558e-07
-2.06958e-09
-3.02539e-06
-1.08817e-09
-4.11654e-10
-1.11135e-06
-3.37436e-10
-4.10333e-10
-1.56695e-10
-4.16238e-10
-1.44175e-10
-4.97073e-10
-4.23953e-05
2.15769e-09
-7.20562e-09
-1.08038e-09
5.12148e-10
-1.27867e-09
-1.54944e-10
-4.58905e-10
-5.26394e-10
-4.02116e-10
-4.68729e-10
-4.58638e-10
8.89341e-09
1.0008e-06
-2.66962e-10
1.41774e-05
-1.47768e-06
-5.8055e-11
-1.9135e-09
6.4957e-08
7.62881e-06
-2.07225e-10
-8.33988e-11
-3.62831e-05
-2.73287e-10
-2.95194e-10
1.71373e-08
4.70656e-09
-5.69505e-11
-7.001e-11
-3.18816e-10
3.83431e-06
-1.46283e-06
-4.22208e-10
-4.89214e-10
-2.05881e-10
-6.70297e-10
2.2026e-09
-7.01169e-10
-1.60258e-10
-6.23969e-10
-3.92269e-05
2.68623e-05
-4.53574e-10
-2.01911e-09
6.56626e-06
-4.4484e-10
5.3755e-07
-1.18622e-09
-5.62389e-10
-2.64033e-10
-2.0527e-10
-9.5513e-10
-4.03407e-10
5.21937e-07
-3.04235e-10
-1.21012e-08
-1.17731e-06
4.0654e-05
8.10879e-06
-1.02546e-10
-1.11253e-09