/*--------------------------------*- C++ -*----------------------------------*\
| =========                 |                                                 |
| \\      /  F ield         | OpenFOAM: The Open Source CFD Toolbox           |
|  \\    /   O peration     | Version:  v2012                                 |
|   \\  /    A nd           | Website:  www.openfoam.com                      |
|    \\/     M anipulation  |                                                 |
\*---------------------------------------------------------------------------*/
FoamFile
{
    version     2.0;
    format      ascii;
    class       volScalarField;
    location    "200";
    object      ddt0(omega);
}
// * * * * * * * * * * * * * * * * * * * * * * * * * * * * * * * * * * * * * //

dimensions      [0 0 -2 0 0 0 0];


internalField   nonuniform List<scalar> 
15335
(
-0.00101313
-0.00267723
-0.00171547
-2.11533e-08
-3.09188e-07
-6.63925e-09
3.44629e-05
-3.19643e-07
-3.09896e-08
-6.29951e-08
-9.34832e-08
-1.3154e-08
-3.64849e-06
-2.8855e-06
-6.92952e-07
3.57012e-08
-0.000655612
-4.37257e-05
-1.49406e-08
-4.31215e-07
-3.40066e-08
0.000576465
-6.20327e-07
-3.74625e-08
-0.00169218
0.000241774
-3.73283e-05
-5.72001e-08
-6.45655e-07
0.000232125
-4.71751e-08
-1.75819e-05
2.22089e-07
-6.35082e-07
2.59261e-05
-5.04879e-05
-6.35363e-08
-9.17822e-07
-4.21514e-06
-0.000141402
-3.37446e-08
0.000519391
-2.15489e-08
-6.95315e-06
6.80152e-05
-4.58133e-08
-4.50547e-07
8.26212e-07
-3.10902e-07
-1.08617e-07
-4.04612e-08
-5.43466e-08
-7.79254e-08
-2.08007e-07
-0.00938066
0.000261752
2.79337e-05
7.25078e-06
-1.47919e-06
-0.00381257
-0.00287969
5.12878e-08
-7.90666e-08
-2.30599e-07
-2.93097e-07
0.000277757
-3.53699e-05
-2.38259e-08
-1.53078e-06
-1.5535e-08
-3.38519e-07
-6.15796e-07
-6.69402e-08
-0.000171859
-1.69339e-07
0.000250119
7.29452e-05
3.73934e-07
-1.24377e-07
2.34699e-05
-0.000439874
8.84811e-08
1.60818e-07
-1.45071e-05
-6.15965e-07
-0.000998416
-2.3885e-07
-6.72558e-05
-6.57957e-09
-2.36521e-07
0.00326654
0.000117516
-0.000256496
0.0113488
-4.11223e-07
-1.76338e-05
-2.22818e-08
0.000270496
-4.79526e-08
0.00019786
-2.37031e-08
-4.04986e-07
-0.000859692
3.44807e-08
-8.91494e-08
-2.17406e-08
0.00596337
-1.32073e-07
-1.24442e-06
-3.75444e-06
1.67079e-07
4.93192e-06
-1.15754e-05
-3.22849e-07
-2.98693e-07
-5.04751e-08
-6.4324e-06
-1.60475e-07
0.0228154
0.00189923
-3.76879e-07
7.03695e-05
5.13985e-05
-1.52804e-08
1.5955e-05
-6.55673e-08
-1.26748e-08
0.000202895
-1.00337e-05
-8.2385e-07
-7.18373e-08
5.36425e-05
-1.63499e-07
-0.000937899
-7.11859e-08
-0.000382895
-9.94271e-08
-1.73471e-08
-6.77253e-06
-6.43879e-07
-8.74094e-08
0.00219841
-1.14011e-08
7.32806e-05
0.000328461
-1.17731e-07
-0.000217452
4.7257e-06
-4.20393e-08
5.19053e-05
-7.72755e-08
-0.000110461
3.85454e-08
-2.98907e-07
-9.28208e-05
-8.38784e-08
-1.49253e-05
-1.25005e-07
-4.68281e-08
-5.50742e-07
-2.79337e-08
-1.94019e-06
-6.71611e-08
-1.54257e-06
3.21811e-06
-1.88905e-08
-5.37654e-08
-0.0011006
-6.70185e-08
-7.95397e-09
-2.05448e-07
-5.06388e-08
-9.38702e-08
-8.46806e-08
-5.2392e-07
-3.36023e-07
-0.000413778
-5.96383e-08
7.61671e-07
0.000300334
-9.00083e-08
0.000143708
-2.30341e-07
-3.28603e-07
-3.23444e-07
-0.000202335
-1.84949e-05
0.000139371
-3.28334e-08
0.0034133
3.47467e-07
0.000294377
-4.65526e-07
-3.40814e-08
-5.03552e-08
0.0183126
-8.92891e-08
6.96954e-08
4.59164e-06
-0.000693356
2.4171e-06
-5.24878e-07
-5.84785e-08
1.30504e-05
0.000220353
2.39916e-07
0.00133453
-1.25051e-08
-1.48679e-05
-0.00081964
-0.00122731
2.15622e-08
-3.79505e-08
-1.37347e-06
0.00250596
-4.73088e-07
-2.85125e-07
3.80052e-06
-2.53044e-07
-0.00018059
-3.76576e-07
-2.49408e-06
-7.77673e-05
-1.20426e-05
-3.36852e-07
0.00381287
9.27517e-06
-1.25109e-07
3.14589e-05
-0.00155507
5.4223e-07
0.00011642
0.000629747
-6.66924e-07
-7.04611e-08
-1.6701e-07
-7.85581e-08
-4.40937e-05
0.000884702
-1.78636e-07
3.10692e-05
-1.79503e-08
-4.30925e-06
-1.97867e-07
-0.000999401
-3.7523e-07
-0.00134345
-4.66803e-07
0.00012018
0.0113507
-2.94888e-07
-4.95641e-08
6.21242e-06
-1.88527e-06
-3.96325e-08
0.00128032
-1.47398e-07
-2.16472e-07
3.52259e-05
-3.90827e-08
-0.00477162
0.00223697
0.00120095
-0.00103246
0.00119623
-0.000168845
1.58214e-05
-3.66847e-08
0.00202038
-8.42537e-08
0.000125064
3.53218e-08
-0.000866439
-7.42457e-08
-1.49393e-07
0.00113596
0.00531266
4.59435e-08
-4.73073e-08
0.000104948
-5.06676e-08
-1.51001e-08
-1.39233e-07
-4.16921e-08
8.47652e-05
-4.15776e-08
-6.631e-07
-1.8241e-08
-0.00023762
-3.02011e-07
-0.000116639
-2.08919e-07
-4.9591e-08
-5.35778e-08
-0.00203895
-4.34429e-07
-1.82591e-07
-5.17315e-08
-7.95955e-08
-1.45607e-07
-0.000131605
6.01262e-06
-4.772e-05
0.000111838
-1.35334e-05
-4.93682e-08
-5.4668e-08
-0.000433781
-0.000464041
-7.02147e-06
0.00491026
-1.66621e-07
-9.21363e-07
-0.000664895
-4.68107e-08
-1.66622e-06
-5.67722e-08
-7.57295e-08
-8.52167e-08
-2.31363e-07
-1.60114e-08
-2.00678e-07
4.80592e-05
2.35247e-05
-4.57343e-07
0.000193644
6.28627e-06
-4.44888e-08
-8.27159e-08
-3.87508e-09
-3.71642e-08
-2.10856e-06
0.00367722
1.23836e-08
-2.50777e-07
-2.00727e-08
-2.92249e-08
-2.84336e-07
-8.01758e-06
0.00255187
-1.04233e-06
-5.79316e-06
3.83311e-06
-1.00747e-06
2.34077e-07
0.00428535
1.16283e-06
0.000198897
-2.23059e-07
-1.81141e-07
-4.32719e-05
-1.55647e-08
-2.05792e-07
0.0028672
-0.000506794
-2.21377e-07
1.58759e-06
-9.42645e-08
-2.69193e-08
-0.000123497
-7.14899e-09
-3.33893e-08
-4.69756e-07
-7.37973e-09
-0.00148971
3.50637e-07
-1.2629e-07
-9.36163e-08
7.40791e-08
-9.39535e-09
9.06308e-07
-1.00178e-07
-6.15236e-07
-3.7751e-08
-4.49233e-08
-5.29932e-08
1.08528e-07
3.84978e-08
-1.21763e-08
-5.50003e-05
-0.000310247
-7.46142e-06
7.01241e-06
-5.78508e-06
0.00262636
-1.71237e-06
-4.16555e-08
0.000438712
-6.18312e-08
-5.38674e-08
-7.7017e-08
-1.1085e-06
-5.2019e-08
-1.75431e-07
-5.40077e-05
-2.9057e-07
-2.90485e-08
4.14126e-08
-1.19896e-08
0.000438748
-7.54297e-07
-0.000961575
1.33076e-05
-4.33828e-08
-1.37093e-08
6.7078e-06
-2.64174e-08
-7.35397e-08
0.000150634
-2.75477e-08
-4.23823e-08
-3.72862e-08
-6.27664e-08
-1.78036e-07
2.13778e-06
-5.05059e-08
-9.37025e-09
-3.73655e-07
-7.24091e-08
8.02745e-08
2.18052e-07
-2.08244e-08
-6.88634e-06
-1.22163e-08
-5.01996e-07
0.000138614
-1.61338e-08
-7.21988e-08
-6.62157e-08
0.000160738
-0.00462923
1.0952e-05
1.42805e-06
-0.00121255
5.68381e-08
-2.68991e-08
-0.00108816
1.39057e-07
-2.04252e-08
-8.26935e-07
-2.15677e-08
-6.97597e-08
-1.01356e-07
0.00164683
-2.30425e-07
3.96225e-05
-6.45797e-07
-1.46861e-08
-3.64834e-07
-0.000729198
-1.12711e-06
-0.000885595
-1.42188e-08
-0.00135884
-1.23111e-07
-1.20146e-07
1.3806e-07
-0.00211872
3.26461e-07
-4.19134e-08
-1.23138e-07
-4.43951e-07
6.68468e-06
-1.97592e-07
3.53189e-05
-0.000208988
-3.85584e-07
-0.00192522
-2.30708e-07
-1.6492e-07
-2.80517e-08
-0.00134172
-1.73551e-07
-0.00536532
-4.3733e-08
-3.37515e-08
-1.59291e-08
-1.93035e-07
0.00182214
-2.71256e-08
-2.5085e-07
-9.49891e-08
-1.22257e-07
-1.2501e-08
-2.34351e-08
-0.000152875
-2.26005e-07
-6.92189e-08
-5.98373e-08
-1.20574e-07
-1.30952e-05
-4.8219e-05
-1.42458e-08
2.06427e-07
-0.00131485
-7.99569e-05
0.00317747
-2.64077e-07
-6.93249e-07
6.21114e-07
3.75614e-06
0.00109044
-2.34413e-08
4.56666e-06
-1.77012e-08
-3.91154e-07
-3.01601e-07
3.66836e-05
-1.04336e-08
-1.22618e-07
-2.45011e-07
-5.23548e-07
-0.0040394
-4.54914e-05
-5.98112e-05
-2.29412e-08
-3.26464e-08
4.86163e-08
-1.36343e-05
-2.25343e-05
-0.00291737
0.00436422
-2.1718e-07
-4.54055e-08
0.00017673
-1.14506e-07
-0.00233661
-2.09104e-07
-5.08444e-08
-1.2041e-07
-1.16896e-07
-3.89934e-06
4.49343e-05
-1.19237e-07
-2.72907e-05
-1.25135e-06
5.01536e-06
1.97592e-05
-4.71768e-08
-1.85832e-07
-3.65202e-06
-1.24265e-05
-8.59285e-09
-0.00294576
-1.20617e-08
-2.36983e-05
-0.000814882
-7.93324e-08
-7.23399e-06
-1.02109e-06
3.09955e-06
-4.16823e-08
-1.51656e-08
-5.08501e-08
-0.00213695
-0.00274464
-1.05101e-08
-2.65019e-07
-1.62722e-08
-0.000489275
1.02988e-07
-4.56792e-08
-6.65739e-07
-1.92537e-08
-0.00231168
-1.51828e-07
1.14125e-07
-4.25482e-07
-0.00107656
-0.00202281
0.000758348
-1.17853e-08
-1.59311e-08
4.39682e-06
-7.01236e-08
-1.57982e-08
-4.34013e-08
-6.96955e-08
-2.63958e-08
0.00056782
-4.79132e-05
0.00274297
2.81589e-06
-5.17241e-07
-5.87346e-07
-0.00182852
0.00218029
0.000381191
-5.73134e-07
-4.72604e-08
-7.29242e-08
-3.16791e-07
-0.225415
-1.64436e-07
-1.01752e-08
0.00179547
-5.31227e-07
-0.00573609
-3.29018e-08
0.000201698
-3.46335e-07
-1.73672e-07
-0.00113111
-2.73086e-05
-5.22012e-07
-3.77016e-08
-4.85492e-06
-1.12829e-07
0.000865606
4.06708e-07
0.000870049
-0.000326368
0.00145948
-5.36138e-08
-9.4115e-08
1.08068e-05
-7.88324e-06
0.00073492
-1.03171e-07
-3.73837e-08
-1.17058e-07
-7.65463e-08
-2.16154e-08
-1.91033e-07
5.32528e-05
-6.75792e-08
-3.11288e-08
3.49065e-08
1.12585e-06
-7.59269e-07
-4.05498e-08
-1.83393e-05
-4.88209e-08
-3.5346e-07
-7.25604e-06
0.000362024
-0.00023386
-2.53405e-08
-8.1833e-08
-3.95105e-07
-8.05812e-06
-1.64821e-08
-1.95444e-08
-0.00285135
-1.47962e-08
1.07655e-05
-2.01575e-07
-3.25405e-08
-3.16571e-07
0.00329511
-0.000228828
-1.58368e-08
-4.96947e-08
-3.26032e-08
-7.06908e-05
4.27445e-07
0.00859685
-3.74236e-08
-1.8827e-07
-7.0484e-08
-5.62513e-08
4.21263e-08
-1.29862e-05
-0.000177019
-7.55835e-08
0.015558
-7.4925e-08
-3.50476e-08
0.000170507
-6.95827e-08
1.05311e-07
-2.26001e-07
-3.83789e-07
-1.02561e-08
-4.03794e-06
-1.23378e-07
-1.59133e-08
-1.27393e-08
-4.4057e-07
1.57394e-05
-3.35586e-08
-0.000369513
4.13923e-07
-4.49128e-08
-7.50405e-05
0.00107319
1.03156e-05
-3.3157e-08
-2.20225e-07
-1.2317e-08
-1.10639e-05
-7.84702e-06
-1.35999e-08
-4.5745e-07
-1.39119e-07
-0.000487492
-0.00460913
-2.8292e-08
-2.50224e-07
0.00222093
-7.63534e-08
-0.00136934
0.0102012
-1.96142e-07
-2.42217e-08
-0.00392949
-5.18094e-07
-1.0224e-06
5.56334e-08
-0.00161758
-1.03515e-08
-4.66726e-08
-4.70734e-05
-7.55401e-08
-2.43952e-07
4.13927e-05
-3.49196e-05
0.00164624
-4.14022e-07
-6.34212e-08
-4.74162e-08
-3.16328e-08
-3.67937e-08
-1.21171e-07
-5.78261e-07
-2.58386e-07
-4.09166e-05
-0.00221706
-1.36924e-06
-0.000414419
7.56688e-06
-6.94858e-07
-9.5891e-08
-6.31107e-08
-3.24744e-08
-6.77537e-08
-3.4743e-08
-1.95935e-07
-1.15543e-08
-1.79422e-07
-6.46413e-07
-2.56217e-08
-0.00315364
0.000187938
-1.07296e-08
-1.34556e-06
-1.18563e-08
0.000435826
-5.50023e-07
-6.47687e-06
-1.40949e-08
-2.31895e-07
-9.00323e-08
-7.85969e-07
-8.70829e-08
4.84502e-08
0.000146259
-1.13436e-05
3.4234e-06
-0.000480675
4.47999e-07
-0.00080543
-2.82288e-08
0.00192335
-4.12552e-08
-0.00209553
-1.13199e-08
-2.52538e-08
-1.4406e-07
-0.000237639
-3.08857e-06
-1.45934e-08
-2.96811e-06
-3.74309e-06
-2.02025e-06
-3.88904e-07
-8.40623e-07
-0.00149965
-4.4198e-08
-0.00101499
-0.00016889
-2.01187e-08
-5.73321e-08
-4.35195e-08
0.000281041
-3.40593e-07
2.12515e-07
-3.64251e-05
-1.03904e-05
-4.29933e-07
-0.000109837
4.48108e-06
-1.08646e-07
-1.28721e-05
-3.44121e-08
0.000488429
-5.63713e-07
-4.01947e-08
-0.000378611
-3.19322e-07
-2.05247e-05
-4.18447e-07
-6.3281e-08
-4.20597e-07
0.000427301
-3.51013e-08
-7.74884e-07
-8.46516e-08
1.50146e-08
0.000130275
-5.82895e-07
1.47456e-05
8.36314e-06
-5.09873e-07
-7.7748e-08
-0.00133204
-3.2751e-08
-1.39347e-07
-3.4935e-08
-2.73459e-05
-7.0688e-08
-1.09743e-06
-4.36866e-09
-7.6962e-06
-6.1112e-08
-1.20616e-07
-3.17488e-08
1.57342e-06
-4.96115e-05
-2.40204e-07
0.00193991
-3.86163e-06
1.15335e-06
-9.74622e-08
0.000827662
-4.94072e-08
-1.49847e-08
-5.21469e-08
-3.05515e-08
-1.49275e-07
1.10754e-05
-8.15292e-08
3.09975e-07
-1.51581e-08
-1.91486e-08
-1.08594e-08
3.65209e-08
-0.00162852
-3.3677e-07
7.91773e-08
-1.30945e-08
-2.61459e-08
-3.1993e-08
-2.96514e-07
-2.13146e-07
-1.89948e-08
-1.02589e-07
-0.000371886
-5.41081e-08
-0.00231561
-3.76604e-08
-9.18238e-08
0.000114544
-3.09316e-08
8.86063e-05
0.00385311
0.00586289
-0.000921037
-6.55267e-08
-7.49168e-06
-5.44084e-05
-5.37271e-06
-1.72969e-07
-9.17655e-08
-0.000207444
-1.39194e-06
-1.83439e-07
-2.85545e-07
-6.80188e-08
0.000159225
-2.97597e-07
0.000565373
-2.69376e-07
-1.48644e-08
-3.46394e-08
-2.01795e-08
-2.56707e-06
-1.24822e-08
1.01155e-05
-0.000119429
-2.04746e-08
7.81417e-06
-1.23911e-08
-2.25397e-08
2.39564e-08
-2.89843e-07
-0.000388903
-6.26895e-08
0.000499641
0.00164474
-1.11245e-08
-0.000107616
-6.81938e-08
-4.1957e-08
-1.80403e-05
-8.7964e-08
-4.12119e-06
-6.81798e-08
-0.00298653
-8.69241e-08
-6.23481e-07
-2.33358e-08
-0.00752873
-1.29236e-07
-1.73676e-07
-1.41142e-07
-7.82776e-06
-3.41445e-08
-2.44883e-05
-1.26382e-07
-3.08496e-08
-3.20473e-08
3.58627e-07
-0.000846027
0.00117131
-7.10689e-08
-4.51439e-05
-0.0029616
2.61202e-07
-0.00011409
-0.000877158
-0.000196328
1.23305e-06
0.106479
-0.000351972
-4.39424e-08
-3.09201e-08
-5.45458e-07
-1.03268e-08
-1.56396e-07
1.92028e-06
6.33699e-07
-2.07402e-05
-1.28586e-07
-5.51994e-05
-9.67728e-08
4.45781e-05
7.88362e-05
-3.60111e-07
-5.40445e-08
0.000347351
-1.70142e-07
-1.10843e-07
-0.0032574
-2.18264e-07
-6.90735e-08
-1.88537e-08
0.000123988
-1.8401e-08
-9.02326e-07
-1.49582e-08
6.33794e-06
-1.8665e-07
2.0372e-07
0.00130733
-2.69379e-07
-0.000697108
1.96356e-06
-1.96934e-08
0.000188058
-1.22379e-07
-2.36874e-06
-2.04026e-08
-2.92244e-07
0.0107249
0.000476257
-2.51128e-08
-0.0014171
0.00283871
-2.16769e-08
-0.000150195
1.7756e-07
2.05101e-06
-0.00134972
-0.000143844
-1.68043e-08
-0.000296649
-6.92185e-06
-0.00134649
-4.38248e-07
-8.59739e-08
-4.35342e-07
-3.68284e-08
-0.000355299
-1.69141e-08
3.55988e-07
-2.58164e-08
-2.67839e-07
-2.32157e-07
-2.07474e-07
-0.00386346
-0.000273245
-2.89911e-08
1.84707e-06
4.74252e-07
-4.83599e-05
-1.72812e-07
-9.43436e-08
5.20099e-05
-3.03737e-08
-3.03545e-08
-7.79693e-08
3.95392e-08
-5.43098e-08
-6.82345e-07
4.93378e-07
-7.52245e-08
-1.4003e-07
-1.38937e-07
0.00172601
-2.79925e-08
-1.42666e-08
-5.75915e-08
-7.38939e-08
-0.0019236
-1.53427e-08
-1.72268e-08
0.000371619
0.0142604
-1.55257e-08
-0.000282473
-7.09369e-08
-0.0013766
-4.75723e-07
0.00184674
-1.7745e-05
-3.71252e-08
0.000201799
-1.65667e-07
-5.97576e-05
-1.75664e-08
-7.54689e-06
-5.81004e-08
1.85048e-05
1.26549e-05
-4.73585e-08
-0.0069946
-1.19963e-05
-0.00467543
-6.21107e-05
1.09923e-07
-1.09958e-07
-3.7358e-08
-1.23907e-05
-6.56555e-08
-0.362004
-0.0134904
8.95081e-08
-1.64961e-08
-7.65297e-08
-1.1092e-08
-7.46254e-09
-3.61052e-07
-3.12613e-08
-3.87239e-05
0.000416149
-1.61023e-07
-2.01462e-08
-1.27466e-07
-1.4023e-07
-6.85464e-08
-2.98789e-08
0.000493009
-2.96312e-07
0.0491685
-0.00241021
4.25761e-05
5.08391e-07
-8.61924e-08
-0.00318832
-2.07001e-07
-8.70249e-08
-1.95963e-05
-0.00250458
-8.5363e-08
-4.57126e-07
3.85576e-07
-1.62017e-07
4.03596e-05
-1.90573e-07
-2.00288e-08
0.0109472
-0.000978075
-8.28225e-07
-1.4876e-07
-0.000323572
-0.00652937
-4.66756e-07
-1.61745e-07
-7.05378e-09
-2.3111e-07
-1.71742e-08
-6.27121e-09
-1.13901e-07
-0.00108665
-3.88511e-08
-3.26579e-08
-6.29591e-07
-1.74018e-08
3.35106e-05
-1.22321e-08
-1.30018e-08
-2.57141e-08
-7.50082e-08
-7.59156e-07
-5.13706e-06
-1.17025e-07
-7.62953e-08
-4.27626e-05
-4.98291e-08
-2.66921e-08
-5.94904e-08
-1.66773e-07
-0.000611318
5.72512e-05
-9.92562e-08
-1.42736e-07
-0.00921556
8.54624e-06
-4.76546e-08
4.5644e-08
-1.64974e-08
-1.1581e-08
-1.04739e-06
2.38678e-07
-1.27248e-08
8.50147e-08
-9.51042e-08
-0.00854673
5.70834e-07
1.99073e-07
1.21495e-06
3.49117e-05
-2.34095e-07
-1.65637e-05
1.18088e-05
-0.00127721
-0.000282352
-0.000345369
4.2336e-07
-0.000846624
-0.00015371
7.65441e-05
0.00015382
-0.00244865
-1.34982e-07
9.0521e-06
-1.56606e-07
-0.000779523
4.50562e-05
0.000765011
0.00216287
-2.42413e-08
-0.000727594
-3.1344e-08
-1.73271e-08
7.71597e-07
0.00140197
-6.86194e-07
4.87666e-07
-2.53727e-08
-1.5151e-08
-1.6969e-07
-9.71482e-08
-2.04043e-07
-6.58061e-08
-2.14964e-05
-2.96915e-06
-5.29297e-07
4.31884e-06
-3.02589e-08
-1.14773e-06
-8.82539e-08
-7.9295e-07
-4.29689e-08
-1.38264e-07
-6.39779e-08
-3.90102e-08
-9.80163e-08
-4.79426e-08
-6.10342e-08
-3.78668e-08
-1.68556e-05
-1.68178e-08
2.80673e-06
-8.30804e-05
-0.00647137
0.000133447
-0.000321867
-2.89539e-08
-0.000584912
5.49423e-07
2.51025e-05
-5.65861e-08
-2.47984e-08
-1.01127e-08
0.000117937
-6.85531e-08
-3.81439e-08
-0.000204562
-0.000210156
-0.00404504
5.96691e-05
-0.000543547
-8.02172e-05
-1.51457e-08
-5.64139e-08
0.000215152
-0.00172557
-1.36639e-08
-1.55039e-08
-6.17089e-08
-0.00155974
-8.48464e-08
-0.00294041
-0.00395969
0.000369559
-0.0013089
-6.03725e-07
-1.59446e-07
0.00209858
9.87453e-05
-0.000224975
-5.86622e-08
-0.00360003
-1.57504e-08
0.000130227
-3.22859e-08
-1.96472e-08
-1.7646e-08
-4.49281e-08
-0.000351498
-3.73025e-08
-1.99446e-06
-4.91419e-05
-0.000177605
-3.89467e-08
-4.67374e-07
-8.11885e-07
4.85718e-05
0.000842535
-4.50763e-07
5.7895e-05
-0.0153007
-1.75751e-08
-4.34279e-08
-6.07012e-07
-1.33301e-07
8.04489e-05
4.22922e-06
-2.86353e-08
2.98088e-06
-0.00478813
-4.85353e-08
-6.05536e-08
-0.00635963
0.00322115
-6.66623e-07
-3.75603e-08
6.19464e-07
-3.32987e-05
-1.14499e-07
-5.75933e-05
-3.54076e-08
1.13145e-06
4.52769e-07
0.000372165
-0.0010976
-5.04361e-08
-4.76136e-07
-9.26403e-09
-0.000300352
-2.05298e-07
-8.70132e-07
-1.44516e-07
-1.47755e-07
-0.000105058
-2.88619e-06
-4.74319e-06
-4.47928e-08
-1.45058e-07
6.53435e-07
-0.00170101
-0.000102693
-2.85799e-06
-0.000636448
0.019274
-0.00102132
-1.75082e-07
0.000169831
0.00443563
-3.2191e-08
-1.50531e-06
-1.36736e-05
0.00291211
-2.70048e-08
-3.8083e-08
-0.0055335
5.50334e-07
-9.88665e-09
-6.37041e-07
-1.48703e-08
-7.96747e-06
0.00773085
2.67972e-09
-0.000102226
0.00164802
-2.0224e-08
-3.90117e-08
-3.67791e-08
-1.41637e-08
-2.80446e-08
-4.13727e-07
0.00339053
-2.93933e-08
-6.2073e-08
2.82254e-05
0.00378141
3.97994e-08
-0.000268344
-4.85536e-08
-1.40341e-08
-1.02988e-07
-1.8894e-08
-8.58267e-08
-4.47723e-07
-1.08184e-07
0.00763749
-0.000288719
-3.99684e-06
0.000602617
-0.00159713
-1.40685e-06
-8.62884e-08
-0.0026635
-3.05628e-08
-6.35877e-08
-3.8975e-07
0.001403
-0.00107657
0.00081069
-2.91461e-05
0.000317312
-8.1986e-08
-0.000770818
-5.81924e-07
-0.00638207
-0.000675946
-2.56021e-08
-8.19339e-07
-1.8059e-07
-3.26937e-08
-3.62361e-08
9.86077e-07
-0.000453259
-9.47421e-08
-2.09792e-07
-4.62625e-08
-0.00185422
-1.6504e-08
-0.00112503
-1.35973e-08
8.5693e-05
-0.000275251
7.25672e-06
-1.40619e-07
-2.30545e-07
-5.03038e-06
-0.000975404
0.000147143
-6.03225e-08
-9.87811e-09
8.16368e-05
-3.41374e-06
0.000120807
-6.19084e-06
-0.000164822
-1.89067e-07
-2.68567e-07
-1.46207e-08
-8.73346e-08
-9.62916e-07
-1.47551e-08
-3.29388e-08
-1.38938e-07
-1.64805e-08
-9.74209e-09
-2.20977e-06
0.000455251
-3.36959e-08
-2.30051e-08
0.00114064
0.0016999
-5.78775e-08
-9.04659e-06
0.000343914
-9.50143e-08
-2.14399e-07
-0.00131126
-9.84288e-08
-0.00495756
-0.00028308
-2.20133e-08
-3.65569e-07
-0.00178116
-3.94548e-08
-4.11727e-07
-2.69265e-05
2.06474e-05
-2.07687e-08
-0.000226041
0.00127546
-3.15247e-07
-1.56184e-07
-1.4038e-05
0.00168412
3.66938e-08
-2.05565e-08
-2.54443e-08
-1.97942e-07
-0.000443128
1.59857e-05
-0.00026916
-8.60007e-05
0.000435937
-4.44056e-07
-1.41288e-07
-0.00200205
2.35151e-08
-5.15496e-07
-1.51688e-06
-2.35401e-07
-4.66685e-08
-3.94059e-06
-1.13516e-07
7.41491e-08
-0.00412796
-0.000391275
4.25216e-06
0.00118513
-1.1459e-07
-1.5499e-07
-0.00187392
-0.000107486
-0.000264334
0.000671636
-1.21403e-07
-0.000282074
-0.000183214
7.17203e-07
2.98025e-07
-0.00317266
-4.89845e-07
-0.000742697
-1.62459e-07
1.23841e-06
-4.77887e-07
-1.60579e-05
-3.25719e-08
-4.15879e-05
-1.19719e-07
-1.02797e-08
-9.7236e-08
-0.00800391
0.0144579
-3.31829e-07
-1.7124e-06
8.61272e-05
-0.00125015
-1.96606e-08
-3.64801e-07
-7.94876e-07
0.0012059
-5.79141e-08
-6.03492e-08
-5.71566e-08
-6.13146e-08
0.00128609
-2.12397e-07
0.00193374
-9.61371e-08
-1.27444e-07
0.000375742
-8.67183e-09
-5.09444e-08
5.58375e-07
-2.94539e-07
-3.23839e-08
-2.99283e-08
-1.09905e-07
6.92016e-07
-0.000252867
-2.51128e-07
-1.67123e-06
-1.23074e-07
-7.02927e-09
-7.63245e-08
-8.4352e-08
-0.000337974
-1.54569e-07
-0.00102212
-1.61064e-07
-5.66494e-08
-3.5107e-07
-3.81447e-08
-2.27408e-07
-1.29941e-07
-6.79515e-09
-1.08412e-08
-1.61138e-08
-0.00014129
-2.77449e-08
-7.94534e-07
-1.7664e-07
-0.000926127
-0.00136219
0.000859398
-2.5835e-08
-0.0196621
-3.70169e-08
-4.33722e-07
-6.21962e-09
-1.06074e-08
0.000314069
-4.99993e-07
-9.30282e-08
-1.17008e-06
0.00110165
-3.81075e-07
-7.21168e-05
-3.11327e-07
0.000693038
0.000106853
-3.48639e-08
-7.11415e-09
-5.33779e-08
-7.03509e-06
-1.99822e-08
-2.92837e-08
-3.75792e-07
0.000359941
0.00176362
-0.000398882
-8.92684e-08
-2.15223e-07
-0.0089471
0.000148688
-0.000141172
-0.000511611
-6.88693e-05
6.74941e-07
-0.00558543
-1.19811e-06
-1.05624e-06
0.00798405
-6.63157e-08
-3.5435e-08
-1.50805e-06
1.20376e-07
0.000257453
-0.000531614
-1.59087e-08
-3.38223e-07
-2.13598e-07
8.2609e-05
0.000135106
-3.60633e-07
2.54573e-06
-1.18608e-06
-7.08319e-07
-3.53859e-07
-2.8462e-08
-0.00119598
0.000308634
-1.90174e-06
-2.20607e-07
-2.451e-07
0.00155391
0.000404187
-2.28087e-07
-6.08181e-08
-7.35408e-09
-6.48767e-08
-1.43301e-07
-0.00159789
-1.98766e-05
-3.01871e-08
-1.57918e-06
-5.3674e-08
-3.22091e-07
-1.11067e-07
-1.49982e-08
-6.93798e-09
0.00288394
-9.65173e-07
-1.58837e-06
-3.10258e-08
-3.35176e-05
-1.46146e-08
-2.01163e-08
-3.60657e-08
-7.20894e-08
-3.90849e-08
-2.36254e-08
-0.00145893
-3.29995e-08
-0.000167645
3.92049e-05
3.71613e-05
-6.47638e-07
-6.48935e-09
-3.69834e-05
6.71492e-06
-5.98982e-08
0.00211887
1.70996e-06
0.00145434
-2.12598e-08
-0.00159774
-3.70109e-06
-1.5729e-08
-1.10598e-05
-1.42611e-07
-0.00444554
-8.25466e-09
-7.58077e-09
-2.05678e-08
1.16052e-06
-9.70412e-08
-6.55518e-08
-6.96229e-06
-4.15192e-07
-5.5733e-08
-2.60663e-08
0.00106897
-1.342e-08
0.000238004
-1.90488e-07
-6.92917e-05
-1.43852e-05
0.000253502
0.00749979
-4.36389e-08
-1.59549e-08
-3.04049e-08
-1.04258e-07
0.000594886
-0.000820218
-2.19424e-07
-3.25711e-08
-0.00771239
-1.02887e-07
-6.71857e-08
-4.35817e-08
-0.000272714
-2.07338e-07
-7.01776e-05
8.61804e-05
-8.68615e-08
0.000164956
0.000168625
-5.78839e-06
4.06689e-06
-7.86194e-07
0.000853825
-0.000152663
-1.43137e-06
6.56157e-05
-9.67505e-08
-1.74389e-06
-0.00271655
-2.7185e-07
-4.24095e-08
-3.92934e-08
0.0103681
6.08737e-05
-3.42887e-05
-1.02356e-06
-4.60155e-08
-0.000771381
-1.61964e-07
0.0030163
-1.43492e-08
-0.00148109
-3.16331e-05
-5.20198e-08
-3.13678e-08
0.00115415
-3.77279e-07
0.00018042
-3.86145e-07
-3.46912e-07
-3.05096e-07
0.000102913
-2.41033e-08
-1.94671e-07
0.00124662
0.00250547
9.71091e-05
-0.000127936
-2.03876e-08
0.000404957
-1.02206e-08
-2.32671e-07
-1.29492e-07
-0.00425124
-4.03415e-08
-7.90868e-07
-4.75653e-08
-3.18317e-08
4.57625e-06
0.000709009
0.000306743
-1.28173e-07
-6.3562e-05
-0.00323277
-2.9543e-08
-7.03869e-09
-8.72619e-09
-8.2191e-07
0.00107677
-6.94297e-08
-5.09186e-08
0.000252569
-3.46478e-08
-0.00033937
-0.00168173
-9.89345e-07
-4.66547e-08
1.59111e-07
4.76666e-08
-0.000912671
-3.70539e-07
-7.06105e-08
-3.8394e-08
-5.14758e-08
-1.7344e-06
0.00342356
8.43489e-05
-4.80949e-08
-4.89702e-05
-9.47763e-09
0.0010626
0.000210003
7.99838e-06
-5.17519e-08
1.15079e-06
-0.000102168
-3.772e-08
-3.35909e-07
7.16606e-05
-2.87219e-08
0.000699111
-0.000165448
-1.89588e-08
-0.00752338
-1.26622e-05
-3.62698e-08
-1.12567e-08
-3.83867e-08
-6.01591e-09
2.42807e-07
-1.30434e-07
-4.59065e-08
-9.95475e-09
-3.43601e-07
-1.74699e-07
-9.93842e-08
-1.15028e-08
-0.000822959
-1.56957e-07
-4.541e-08
-0.000113639
0.000365261
0.000527079
-4.51982e-08
-8.83124e-09
-6.48475e-07
9.09884e-07
-6.9177e-08
-2.5682e-08
2.94287e-05
0.000157872
-6.09459e-08
-1.25449e-08
-8.95784e-09
-1.62402e-07
-4.42386e-06
-7.29275e-08
-5.32244e-08
3.98956e-05
-7.72061e-08
-6.45847e-08
0.00107833
0.00108296
-0.000927271
-4.57819e-07
-7.41591e-09
-6.02333e-07
-0.000853239
-9.15682e-08
-2.67497e-08
-2.53961e-07
-1.22395e-07
0.000312838
4.11317e-07
-1.06145e-08
-4.8418e-08
-1.14068e-07
-0.000236434
-1.42162e-08
-5.40895e-08
6.10254e-05
0.000203076
0.00058412
-1.43708e-08
0.00123497
-1.93806e-08
-1.33594e-06
-9.93482e-09
0.000261276
-4.49163e-08
-3.94084e-07
-4.72254e-07
-4.27685e-07
-3.82721e-07
1.27144e-06
-5.38156e-08
0.00101774
-3.59276e-07
0.0010183
-4.02275e-08
-1.69502e-07
-0.00234614
-3.44022e-07
-1.57983e-06
-1.8679e-08
-1.17061e-08
-2.1808e-07
-2.5457e-07
-6.57746e-07
-0.00105877
-0.00108858
-3.501e-08
-6.70987e-08
-0.000143104
-1.11931e-08
0.000269409
0.000559101
3.76983e-05
-0.000314764
0.0148099
-0.000270897
-1.45213e-08
0.00158619
-1.49394e-09
-0.00635993
-6.95248e-07
-4.61733e-06
0.00196702
-5.78452e-08
-5.31726e-08
-5.99152e-08
-7.55458e-09
-0.000326171
1.81649e-05
-2.90427e-07
-0.000553639
3.64656e-08
-3.63419e-08
5.03371e-05
0.00259988
-1.78334e-08
-2.68553e-07
-2.07766e-08
-2.22949e-08
-4.50621e-07
-0.0014032
-0.000502164
-3.39765e-08
9.98008e-06
-6.31619e-08
-1.33005e-08
2.73058e-06
-2.67839e-07
-1.99972e-07
0.048554
1.57772e-08
-0.00231567
-1.15323e-08
-7.52214e-08
-1.45944e-07
-2.63947e-06
-0.00106325
7.40166e-05
-3.35891e-07
-1.0585e-07
-2.41232e-08
-1.23021e-07
9.70054e-08
-4.36707e-08
-1.51367e-07
-6.71369e-07
0.000484473
-0.000466509
-2.2096e-06
-4.43507e-06
-3.08429e-08
0.000659691
-0.000420032
-1.81719e-07
-3.6838e-08
-4.28086e-07
3.33005e-06
-0.000232846
-3.53442e-07
-3.22264e-05
3.70702e-08
-1.54993e-07
-5.76204e-06
-5.50353e-08
-4.84518e-06
-4.41513e-08
1.07885e-07
-1.34971e-06
0.000167905
-2.78093e-08
-1.10818e-07
-0.00103797
0.00012638
0.000378702
-5.1539e-07
0.000160456
-0.000262005
-4.21232e-07
-9.24612e-09
-0.000476761
-2.24673e-06
-8.98236e-06
-0.000182921
7.9315e-08
0.000228699
-5.09828e-07
1.67947e-06
1.43683e-07
-3.83803e-08
0.00581056
-2.68394e-07
-3.31374e-06
-0.00112581
1.74458e-06
-0.00309013
4.54374e-06
5.87009e-05
0.00119737
-1.23804e-08
-2.46746e-08
-1.36266e-08
-9.84396e-05
-0.00102336
0.000741989
0.000444129
0.000388638
0.0010979
-4.88774e-08
-4.52766e-08
-9.42433e-08
0.000870799
-0.00833915
-2.4798e-07
0.000283088
-4.04752e-08
0.00150162
-4.94375e-08
-6.97887e-08
-0.00130942
8.08128e-06
-6.00144e-08
-0.000402191
-1.68664e-07
-1.7821e-07
-9.37574e-08
-1.59924e-07
2.15783e-05
-0.000852804
-1.10549e-08
-8.56037e-08
0.000137418
3.42088e-05
0.00357119
-6.88062e-09
-6.10915e-08
5.7431e-06
-1.99721e-08
-1.31743e-06
0.000129722
-9.04983e-07
-3.60989e-07
-6.40982e-05
-2.8872e-08
0.00371218
-4.53978e-06
-4.69312e-06
-1.03649e-08
-1.63101e-07
0.000333149
-9.57003e-05
-5.75818e-08
-1.01134e-07
-1.22985e-08
8.76178e-07
3.73136e-06
4.30196e-08
-3.24022e-08
1.11771e-05
-6.09453e-08
-3.53375e-07
-3.86201e-08
-1.208e-07
-0.000649916
-3.04001e-08
0.000232534
-2.20711e-05
-2.38657e-07
-1.93523e-07
0.000123561
0.000130846
-3.3178e-07
5.14166e-05
-0.000314287
-1.44491e-05
-0.001168
-1.4673e-08
-0.000145178
-5.55297e-09
0.00027584
-2.04275e-08
0.00477563
-4.31558e-08
-0.000296837
-0.000200334
-7.47098e-06
-1.4145e-08
0.0011832
9.10631e-05
-0.00292744
-4.06666e-08
2.46255e-05
-4.04424e-06
-0.000243703
-1.01286e-06
0.00161343
-2.53525e-08
-6.37746e-09
-5.00802e-07
-2.26049e-05
0.000511165
-4.60563e-07
-2.05349e-07
0.000277846
1.41085e-06
-3.47338e-07
-2.23388e-07
-1.45021e-08
4.64723e-06
-5.0582e-08
-1.14066e-08
-3.16592e-08
-0.00352544
-0.000105778
-7.04888e-08
-0.00142777
-0.00129494
-3.35887e-08
-1.21542e-07
-3.88514e-07
-1.12936e-07
0.00255913
-7.00809e-09
0.00110604
0.000962163
-1.68072e-08
-3.46245e-07
0.000120313
3.57636e-06
-2.01341e-08
-1.3509e-08
0.00324323
-2.06559e-08
-1.16419e-08
1.85259e-06
-0.000167633
-1.16794e-08
-0.0175884
-9.30844e-08
-0.00049633
-2.08241e-07
-1.98974e-05
-1.17767e-07
-1.12687e-08
-0.00179361
-7.6212e-07
-9.31311e-08
0.00083094
0.000618153
2.27604e-06
0.000278084
-0.000175096
0.00162413
-2.54309e-07
-2.12946e-07
-7.40469e-08
-1.72376e-08
-7.79608e-08
-5.48047e-05
-0.00257092
0.000198651
4.5352e-07
-0.00015655
0.000204177
-7.29976e-08
-4.73094e-08
-5.30428e-08
8.64857e-07
0.00134424
-5.50744e-08
0.00067649
-6.18848e-07
-6.89522e-08
-1.25205e-07
2.93702e-06
0.0402592
-5.5929e-07
-1.18841e-07
0.00245169
-0.000164101
-3.74324e-05
7.59864e-06
-1.81636e-07
-2.39337e-08
-0.0037102
1.05163e-06
-6.41811e-05
-1.66153e-08
-1.07426e-08
0.00031547
-1.51562e-08
-6.99649e-07
2.04222e-05
0.000127242
-9.35894e-08
-1.72974e-08
-6.49803e-05
-6.54885e-08
-2.5851e-08
-8.26321e-08
-2.61907e-06
6.47842e-05
0.000126007
-1.17242e-07
-1.3951e-06
-1.51438e-06
-0.00744055
-3.34033e-08
0.000389569
-5.95548e-09
1.55802e-07
-1.03046e-06
9.66309e-05
-3.09926e-08
-3.04347e-08
-1.57485e-07
-6.31251e-08
-9.22027e-07
-5.48491e-07
-9.84617e-08
-6.69165e-09
-0.000269804
-0.00161012
-2.06027e-08
-3.14496e-08
-0.000106471
0.00103264
-2.47114e-07
-2.02807e-07
-0.000275973
-0.000127657
-1.35681e-07
9.59713e-05
-4.47784e-07
-6.03105e-08
-1.38495e-07
-1.97981e-08
-1.19257e-07
-3.59193e-08
-9.67205e-09
-1.3712e-07
-2.07537e-08
-1.3054e-06
-1.65068e-07
-1.73198e-08
-9.39715e-08
4.33352e-05
-0.000255127
-5.45458e-06
-9.45693e-08
0.0308772
-4.02304e-08
-4.35578e-07
-5.17047e-08
-2.75392e-08
-2.65528e-06
1.23676e-06
-2.53807e-08
-2.6081e-06
-2.83858e-07
7.80478e-07
-2.83092e-08
0.00102347
-0.000535412
0.000451995
0.000856621
-1.52889e-08
0.00151773
-0.000207521
0.000438382
1.06341e-06
5.51194e-05
-3.61484e-07
-5.86221e-08
0.00165436
-3.45412e-08
-6.47916e-08
-1.23782e-08
-6.39298e-07
-1.13511e-08
-3.84687e-08
-0.000475142
-2.57044e-07
-2.37672e-06
-1.25736e-07
-2.54887e-07
-1.76101e-07
-1.21454e-08
-5.4944e-08
-4.05997e-08
-4.63618e-08
-4.28833e-08
-5.30333e-08
4.5009e-06
0.000323033
-2.13728e-08
2.24813e-05
0.00107867
-4.71381e-09
-3.49512e-07
0.000935312
0.00776982
-1.612e-08
-6.58421e-09
3.58406e-05
-2.02953e-08
-2.22557e-08
-1.68306e-05
4.0293e-07
-4.56388e-09
-5.49915e-09
-2.43998e-08
3.88141e-05
0.000134352
-7.11268e-08
-3.78397e-08
-1.60137e-08
-5.7675e-08
4.66103e-07
-5.94286e-08
-1.23937e-08
-7.68027e-08
-0.000121327
0.000191382
-5.65796e-08
-8.67412e-06
0.00679269
-9.55077e-08
0.000443494
-4.07697e-07
-9.30201e-08
-2.04143e-08
-1.64736e-08
-2.59606e-07
-1.2122e-07
0.00221078
-2.38694e-08
-1.4824e-05
-0.00350582
0.000863186
-0.000898475
-8.08627e-09
-4.12586e-07
-2.50431e-07
-6.37617e-05
-3.76951e-07
-5.25879e-07
-2.09022e-07
0.000221859
-3.41368e-08
-1.79441e-07
0.000177314
-0.00526207
-2.66493e-06
-2.40983e-07
-3.67502e-07
0.000139913
-0.00142665
0.000822263