/*--------------------------------*- C++ -*----------------------------------*\
| =========                 |                                                 |
| \\      /  F ield         | OpenFOAM: The Open Source CFD Toolbox           |
|  \\    /   O peration     | Version:  v2012                                 |
|   \\  /    A nd           | Website:  www.openfoam.com                      |
|    \\/     M anipulation  |                                                 |
\*---------------------------------------------------------------------------*/
FoamFile
{
    version     2.0;
    format      ascii;
    class       surfaceScalarField;
    location    "200";
    object      ddtCorrDdt0(phi);
}
// * * * * * * * * * * * * * * * * * * * * * * * * * * * * * * * * * * * * * //

dimensions      [0 3 -2 0 0 0 0];
oriented        oriented;


internalField   nonuniform List<scalar> 
22766
(
-3.40047e-06
1.52548e-05
-1.1855e-05
-3.45306e-06
-1.13498e-05
1.48038e-05
-4.18448e-05
3.64426e-05
5.40238e-06
-6.70217e-07
3.03203e-07
3.6725e-07
4.11889e-09
-1.76717e-07
1.73491e-07
-2.76148e-07
3.38051e-07
-6.09974e-08
1.27302e-06
9.05831e-07
-2.17667e-06
7.01562e-07
-6.21871e-07
-7.92787e-08
-2.31654e-06
6.20934e-07
1.69555e-06
-8.01023e-07
7.1372e-07
8.75646e-08
-8.42947e-08
-2.44267e-07
3.2893e-07
1.03999e-07
-4.60407e-07
3.56431e-07
-1.6795e-05
9.33238e-06
7.46248e-06
9.68745e-07
8.03642e-08
-1.04747e-06
-7.45512e-07
4.67066e-07
2.78454e-07
-5.12088e-06
1.22158e-05
-7.09497e-06
-1.23727e-06
-1.07989e-05
1.20367e-05
2.10061e-05
-1.61149e-05
-4.8855e-06
1.24028e-07
-6.07618e-07
4.83601e-07
5.7356e-08
4.77159e-07
-5.34253e-07
-2.12e-06
-1.96497e-07
-3.9341e-06
9.49439e-06
-5.55926e-06
4.47658e-07
-2.53879e-07
-1.9385e-07
-1.82919e-06
-2.90875e-07
-5.4012e-05
1.2173e-05
2.29621e-05
-2.79265e-05
4.96656e-06
-1.69203e-06
1.78288e-06
-9.04507e-08
1.67442e-06
-9.03342e-07
-7.71115e-07
-4.62137e-07
8.03503e-07
-3.41168e-07
0.000149131
-0.000112723
-3.64081e-05
-1.19958e-06
7.59216e-08
1.12364e-06
-7.8092e-07
1.023e-06
-2.42387e-07
1.92679e-06
3.76219e-07
-2.303e-06
-1.23142e-06
8.42612e-07
3.88917e-07
-6.86858e-07
-9.40523e-08
4.16035e-06
-4.62794e-06
4.69063e-07
-5.59713e-07
-2.41275e-07
4.89486e-06
-3.38153e-06
-1.51336e-06
1.45533e-06
-4.86893e-07
1.19759e-05
9.0309e-06
-1.25925e-06
8.28755e-07
4.30448e-07
-2.60963e-05
3.34863e-05
-7.38845e-06
9.31821e-07
-2.29872e-06
1.36789e-06
4.90918e-06
-3.83177e-06
-1.07729e-06
0.000438325
-0.000205462
-0.000232861
-1.57637e-06
8.71686e-07
7.04856e-07
-1.25098e-07
1.45295e-07
-1.9987e-08
-6.67995e-07
-5.04997e-06
5.71769e-06
4.62166e-07
-8.37442e-07
3.75378e-07
-5.81725e-07
7.68852e-07
-1.86969e-07
2.29322e-07
-2.05878e-06
1.33059e-06
-2.16826e-08
-1.30871e-06
-3.39963e-07
6.13189e-07
-2.72387e-07
6.02366e-06
2.04881e-06
-8.07258e-06
1.41596e-05
-1.17177e-05
-2.4416e-06
0.000290786
0.000147539
-2.82715e-05
2.49015e-05
3.36992e-06
-7.78904e-05
3.53014e-05
4.25891e-05
2.28758e-06
2.60722e-06
4.64488e-06
-4.64511e-06
9.83481e-06
-1.32859e-05
-9.91912e-06
1.46021e-05
-4.68301e-06
-6.23362e-07
2.83287e-07
1.4158e-06
-6.17048e-07
-7.98753e-07
2.12219e-07
-2.07477e-07
6.84298e-06
-4.92153e-06
-1.92294e-06
-0.000373452
0.00016799
-4.27687e-07
-2.42502e-08
4.52124e-07
-2.42778e-07
1.64426e-07
7.84136e-08
-3.28088e-06
2.01833e-06
1.262e-06
2.53803e-05
-2.67797e-05
1.39934e-06
1.70698e-07
2.77069e-07
-5.03187e-07
4.65244e-07
4.22842e-08
-0.000161444
-0.000212007
-1.90574e-08
7.8154e-07
-7.61966e-07
-4.3932e-05
-1.43434e-05
5.82754e-05
1.13641e-05
-1.26001e-05
2.11884e-06
-1.92079e-07
-1.71537e-08
-1.94105e-07
2.11315e-07
3.47557e-06
6.85501e-07
-2.52717e-05
2.77135e-05
-2.44062e-06
3.98697e-07
6.00614e-07
-9.99611e-07
1.02934e-06
-6.3013e-07
-5.97206e-06
4.93825e-06
1.03285e-06
-5.50226e-07
9.16959e-07
-3.6601e-07
2.43674e-05
-1.02072e-05
1.11174e-06
3.04009e-07
-1.12677e-06
-5.65243e-07
-3.16164e-07
4.00624e-08
7.48863e-06
-1.46495e-06
2.15985e-05
-2.09782e-05
-6.20247e-07
-1.66194e-05
-1.7561e-07
-0.000290348
0.000128904
-7.05292e-06
-1.34285e-05
2.04809e-05
5.04401e-07
-4.469e-07
-4.02211e-06
-1.95047e-06
-2.74295e-06
1.18302e-06
1.55982e-06
3.2758e-06
3.56717e-06
-1.2151e-06
1.54896e-08
-5.68822e-06
1.87848e-06
3.80947e-06
-1.01131e-06
-1.73219e-06
-9.40028e-07
2.76043e-08
9.12387e-07
3.12626e-06
-1.23705e-05
9.24438e-06
6.66542e-06
-1.17863e-05
1.00897e-06
1.6221e-07
-1.17117e-06
2.89475e-06
-1.71195e-06
8.29724e-07
-5.25067e-06
4.42865e-06
-2.28726e-06
4.04835e-07
1.88242e-06
-1.62872e-05
1.78726e-05
-1.58445e-06
-6.5234e-07
2.45579e-06
-1.80324e-06
8.27021e-07
-8.27047e-07
-2.64189e-06
4.03522e-06
-1.39314e-06
7.10032e-05
7.81279e-05
4.9831e-07
1.30878e-08
-5.1138e-07
8.18763e-08
4.1644e-07
6.09214e-07
-1.55422e-06
9.45061e-07
-8.27636e-07
-3.67959e-07
1.19539e-06
-1.33452e-07
1.16297e-07
-1.73465e-05
2.99863e-06
1.43475e-05
9.66653e-06
-7.14316e-06
-2.523e-06
2.43874e-07
-1.18392e-06
-1.80808e-06
-1.85134e-07
1.99816e-06
-3.70397e-06
2.03973e-06
1.66708e-06
-3.48688e-07
4.72451e-07
-4.72271e-07
-2.16433e-07
-1.96792e-06
1.25043e-06
7.17479e-07
9.53412e-08
-5.12471e-07
4.17554e-07
-3.06656e-06
-8.67676e-07
-1.04693e-06
5.7499e-07
2.92352e-06
-1.92119e-05
2.17716e-06
-6.16629e-07
-1.56057e-06
-1.99574e-06
1.89777e-07
1.33042e-07
1.26534e-07
-2.59341e-07
6.10734e-06
-9.50815e-06
-2.36559e-06
1.73628e-06
6.29824e-07
-0.00012159
-0.000168759
5.87972e-07
-1.50712e-06
9.19239e-07
-1.45533e-06
-1.82567e-06
-1.39322e-06
7.40686e-07
-9.81242e-07
-2.50171e-07
4.10817e-07
-3.44046e-07
-6.64406e-08
-2.33753e-05
4.58563e-05
-2.24807e-05
7.16961e-07
-5.83433e-07
-1.33549e-07
2.34125e-05
-4.49762e-07
-3.7403e-06
4.04496e-08
3.99673e-08
3.02581e-07
-3.42435e-07
7.96869e-06
-5.19006e-05
5.69118e-05
-3.1823e-05
-2.50889e-05
-3.81205e-07
1.74204e-09
3.81645e-07
-6.16641e-06
6.94546e-06
-7.79086e-07
-1.25444e-07
1.1344e-06
1.03049e-05
9.45624e-06
-1.97585e-05
7.05919e-06
8.09127e-07
-7.86839e-06
-5.30585e-07
2.22825e-08
5.08595e-07
-1.34404e-05
-8.07227e-06
2.15118e-05
1.62458e-06
-4.64604e-07
-1.15985e-06
-6.46995e-06
6.64342e-06
-1.77249e-07
-2.13726e-06
-1.49976e-07
-1.28912e-06
2.42972e-07
1.04617e-06
-8.71945e-07
3.22013e-07
9.74919e-07
-9.98697e-07
2.37599e-08
1.08352e-05
-1.48199e-05
3.98467e-06
5.61131e-09
-5.07104e-07
2.07888e-06
-4.33744e-06
2.25883e-06
2.40504e-05
3.28614e-05
-2.31848e-07
-4.38313e-07
-1.1657e-07
1.2995e-06
-1.18295e-06
7.23865e-06
9.21893e-08
1.4196e-06
-1.51171e-06
-3.12888e-07
4.17082e-07
-4.44079e-08
3.44897e-07
-3.00593e-07
9.35262e-07
-5.83788e-08
-8.77072e-07
-3.2022e-07
3.23182e-07
-2.56204e-09
5.646e-07
1.06002e-06
8.49033e-07
-1.64938e-06
8.00832e-07
5.76797e-07
9.92365e-09
-5.87081e-07
-4.97891e-06
-2.02921e-05
1.63837e-06
-1.54569e-06
5.37675e-06
-3.92538e-06
-1.45222e-06
1.89622e-06
-4.82954e-06
2.93308e-06
3.39793e-07
7.13046e-08
-0.000120021
9.04009e-05
2.96204e-05
3.73298e-07
-7.76598e-07
4.03163e-07
-3.21607e-07
1.44927e-07
-1.59785e-07
-1.61739e-07
-8.11249e-06
2.76874e-06
5.34225e-06
-1.53207e-06
-0.000140764
2.07422e-05
-7.98927e-09
3.3422e-07
-3.26284e-07
5.14272e-06
-4.32151e-06
4.69008e-06
-1.19675e-06
-3.49324e-06
-3.02568e-06
7.59276e-07
-2.97018e-07
-6.64025e-07
-5.95187e-07
-3.10615e-07
4.12815e-07
-1.02037e-07
4.4069e-06
-2.17548e-05
1.96445e-08
1.74971e-06
-1.16689e-05
-1.38381e-06
3.62605e-06
-2.24235e-06
8.43996e-06
-9.65658e-06
1.21192e-06
3.445e-05
-3.51108e-05
6.60856e-07
2.10819e-06
-1.25901e-06
-1.73668e-06
5.27699e-07
1.20895e-06
5.50325e-06
-1.16697e-05
-2.41257e-06
2.24296e-05
-2.91261e-07
-2.21385e-05
1.2419e-05
5.77387e-05
-7.01556e-05
-2.17934e-08
4.87465e-07
-4.65119e-07
-7.29513e-08
1.09601e-06
1.39605e-05
-7.85335e-06
-1.38532e-05
3.05249e-06
1.24368e-05
-1.1198e-06
-1.13183e-05
-8.40464e-07
-6.04746e-07
1.44523e-06
2.5475e-05
-1.46407e-05
-8.48808e-06
-5.35756e-06
-2.18493e-06
1.29258e-06
8.92517e-07
4.35798e-07
2.65896e-07
1.48044e-06
-5.80304e-07
-9.01489e-07
-6.07946e-07
-1.39152e-08
7.16193e-05
0.000101043
-0.000172662
7.25728e-08
5.04056e-07
2.26728e-06
1.45311e-05
-6.05466e-06
-8.47444e-06
1.35456e-06
5.72934e-07
-1.99694e-07
-1.24882e-05
9.75758e-06
2.73612e-06
3.6304e-06
-8.16705e-07
-2.81365e-06
6.35248e-07
-8.05925e-07
1.71308e-07
-7.38932e-07
2.01354e-06
1.29607e-05
9.33717e-06
-7.3828e-06
-1.95445e-06
-4.61132e-06
-3.50232e-06
2.74676e-06
1.21562e-05
-1.49025e-05
1.85517e-07
3.79999e-07
-5.65529e-07
-3.17219e-07
-1.8645e-07
5.04123e-07
-2.57298e-07
-1.12739e-07
3.70091e-07
1.37587e-06
-5.22338e-07
-8.53359e-07
3.21711e-05
-8.07085e-06
8.98269e-07
-7.39964e-07
-1.58279e-07
4.87633e-08
-8.17437e-07
7.69725e-07
3.11367e-06
-3.43373e-07
5.31457e-06
7.10956e-07
-6.02555e-06
4.43082e-09
3.8346e-07
-3.88111e-07
1.34365e-06
1.2617e-05
1.7448e-07
-8.98239e-08
-8.44419e-08
-0.000293175
0.000157136
0.000136037
-1.13975e-06
-1.04517e-06
-5.60976e-06
-2.14911e-05
2.70922e-05
-1.67167e-05
9.6633e-06
-5.3722e-08
-4.76672e-07
1.53524e-06
4.4019e-07
-1.97549e-06
-3.50233e-06
6.51282e-06
-3.01085e-06
-4.01372e-06
2.27735e-05
-1.87598e-05
2.05588e-06
-1.26266e-06
-7.93418e-07
6.65975e-06
2.83496e-06
-7.53501e-07
7.34637e-07
3.43433e-07
-2.10385e-07
3.85878e-06
1.06726e-05
9.15837e-07
1.13992e-06
5.35853e-06
1.21088e-05
-1.74744e-05
1.46581e-06
8.8795e-07
-2.35388e-06
-1.61864e-06
2.51724e-06
-1.19734e-06
9.64002e-06
-5.42504e-06
1.69099e-06
2.36468e-06
-3.21516e-06
8.50276e-07
-1.79794e-05
4.54187e-06
-6.6995e-07
-4.43908e-07
1.1138e-06
-1.60821e-05
7.59902e-06
-4.2675e-09
-3.07234e-07
3.11873e-07
-7.4484e-06
9.81225e-06
-2.36371e-06
2.53285e-06
6.92886e-06
-9.46172e-06
-2.51148e-05
1.19574e-05
1.31591e-05
-2.28715e-06
-7.96811e-08
-7.05122e-07
3.81424e-07
3.23883e-07
-1.32919e-05
1.60394e-05
9.77033e-06
-1.41782e-06
-8.35039e-06
1.00129e-05
2.91525e-06
-1.2928e-05
-4.22311e-07
1.11894e-07
5.24995e-06
3.07426e-07
-5.55733e-06
1.60449e-06
-8.18867e-07
-7.85627e-07
7.20388e-08
3.7977e-07
-4.52471e-07
-3.40134e-07
7.03105e-07
-3.62803e-07
3.25481e-07
-4.06729e-07
8.03454e-08
1.48579e-07
-7.59774e-06
3.89381e-07
-6.3309e-08
7.19763e-07
1.97252e-07
-4.03134e-07
-1.21491e-07
5.24759e-07
-5.67121e-06
-3.99332e-06
5.01503e-07
-4.79141e-07
-5.23947e-06
1.73706e-06
-1.95172e-08
-2.249e-07
2.44442e-07
-1.27498e-06
1.1584e-06
1.03631e-06
-1.01047e-07
6.27864e-06
-7.66878e-06
1.39023e-06
-5.46929e-07
1.3213e-07
4.15075e-07
3.67323e-07
-3.62864e-07
1.1198e-06
1.79697e-07
3.19439e-07
-3.23549e-07
4.13959e-07
-7.5404e-07
0.000167546
4.11788e-05
-0.000208725
-2.45562e-06
2.21665e-06
2.38849e-07
-8.23223e-05
4.74559e-05
3.48663e-05
2.67822e-05
3.9049e-05
-4.92508e-05
1.02007e-05
1.15527e-06
4.49175e-07
8.55579e-07
1.19157e-05
0.000174896
-0.000186812
-2.28972e-06
4.65462e-06
-1.78902e-08
3.64826e-06
1.82287e-06
7.95274e-06
8.58993e-08
-4.61636e-07
3.75782e-07
2.1991e-05
-2.70784e-06
-1.92807e-05
-1.76683e-05
-7.4463e-06
-8.90398e-07
-6.85936e-07
2.00367e-05
5.41614e-07
1.49397e-06
-2.03589e-06
6.91049e-08
1.3309e-06
-1.39988e-06
-3.91463e-07
-6.98465e-07
1.1669e-07
-3.50487e-07
3.62264e-07
-1.15202e-08
-5.74495e-07
7.50346e-07
-1.75845e-07
-2.80221e-05
-9.01681e-07
2.89236e-05
-3.92625e-06
-5.7622e-06
9.68373e-06
-3.94524e-07
-1.52357e-07
2.06737e-06
-2.53959e-08
1.14323e-05
5.44217e-07
1.41786e-06
-1.34876e-06
-1.69102e-06
-1.38973e-06
3.08045e-06
2.59849e-06
-4.65848e-06
2.05896e-06
5.72243e-07
6.70039e-07
-1.24225e-06
-2.41168e-05
-3.9055e-06
-1.76946e-06
3.23523e-06
7.61517e-06
4.821e-06
2.17876e-06
-1.7353e-06
-4.42906e-07
1.57786e-06
1.3168e-06
1.79538e-07
-3.57626e-07
1.78197e-07
4.81373e-07
-5.35092e-07
-1.97508e-06
2.05454e-06
-3.79908e-06
-1.2918e-05
2.70945e-07
-3.29432e-07
5.91834e-08
-1.2642e-06
1.30848e-07
1.13331e-06
-6.1338e-06
-1.13442e-06
7.26687e-06
2.02485e-07
6.81518e-08
-1.2076e-09
8.27623e-07
-7.25263e-06
-1.88429e-05
1.07181e-06
1.75377e-05
-2.31418e-05
2.85438e-07
-3.29982e-07
2.26047e-07
-4.70316e-07
2.44362e-07
8.5309e-06
-8.73351e-06
2.02551e-07
1.52738e-06
-9.85684e-07
-3.39129e-07
4.21006e-07
-2.44473e-05
1.07217e-06
-9.94297e-06
3.0225e-05
-2.0282e-05
4.0505e-07
-3.51474e-07
-5.37355e-08
2.01662e-05
2.60721e-06
-3.64039e-06
1.94911e-06
-3.16538e-08
-3.47257e-07
3.79083e-07
-3.17129e-05
1.44111e-05
2.62249e-07
-3.31342e-07
6.90181e-08
-5.98032e-07
1.17025e-06
1.34251e-07
-3.70376e-07
2.36163e-07
3.23418e-07
-6.11305e-08
-0.000218652
-7.4525e-05
1.04925e-05
1.48878e-05
-2.8815e-07
3.28222e-07
7.9037e-08
-3.28333e-07
-5.09066e-07
-3.10372e-07
-5.13787e-08
3.62054e-07
1.51403e-05
5.02594e-06
-5.73084e-07
6.93487e-07
-1.20434e-07
5.54403e-07
-3.68973e-07
-4.96031e-07
9.29326e-08
-1.11892e-06
-1.17616e-07
1.23648e-06
1.77294e-06
-1.16368e-06
-8.05803e-07
-8.53807e-06
9.34412e-06
-2.52073e-06
9.57991e-06
-2.96843e-07
3.51197e-07
-5.4068e-08
9.57529e-06
-1.04434e-06
-2.67983e-06
2.67487e-05
-2.40784e-05
-2.16127e-07
-8.33259e-07
4.53017e-05
-4.03562e-05
-4.94278e-06
-2.95495e-06
8.26947e-06
-1.06648e-05
-3.99849e-08
4.55772e-07
-1.2963e-06
-6.687e-06
1.91066e-06
4.77627e-06
2.55177e-07
-1.26632e-06
1.01124e-06
6.38507e-07
3.97872e-07
5.43755e-08
-4.18205e-07
3.63969e-07
-9.46084e-07
3.02526e-06
1.1551e-07
4.62887e-07
-2.36853e-07
8.05434e-06
7.83201e-07
-1.26719e-07
-6.56803e-07
-3.49463e-07
4.10682e-07
-6.09034e-08
-7.08243e-06
7.89164e-06
-1.11609e-07
3.26655e-07
-2.14849e-07
-8.57383e-06
1.88683e-06
-3.14709e-07
-4.30899e-07
-0.000102523
0.000209714
-0.000107192
5.71925e-06
2.67566e-06
-8.39509e-06
-3.87554e-08
-1.22375e-06
3.98014e-08
-4.18764e-07
3.78653e-07
5.89758e-07
-7.74566e-07
1.84993e-07
-6.00317e-07
1.19226e-06
-5.91655e-07
1.43869e-08
3.30612e-07
-3.44747e-07
8.171e-06
-3.83037e-07
3.36775e-08
1.57988e-06
-1.6189e-06
-3.28344e-07
4.41498e-07
-1.12942e-07
3.51896e-07
-3.83486e-07
-2.70265e-09
3.70156e-07
-1.47992e-06
-9.7491e-07
-5.36916e-07
-1.01731e-06
6.77925e-08
-3.78052e-07
1.20606e-07
5.38685e-08
-1.47637e-06
1.01173e-06
6.14537e-06
3.19176e-06
2.29622e-06
-7.74722e-07
-1.52204e-06
-8.03839e-07
6.77228e-07
1.26463e-07
-1.33551e-05
7.94927e-06
5.40154e-06
-3.43769e-07
4.70082e-08
-2.39829e-07
-6.31343e-07
1.48188e-05
-4.47444e-06
-1.03444e-05
2.93637e-07
-6.42587e-07
-3.82744e-07
-1.09359e-06
-1.46353e-06
-5.04409e-07
-8.90562e-06
-4.44797e-06
-9.09791e-06
1.44473e-05
-3.35594e-05
-4.4331e-05
-4.60748e-06
3.93952e-06
7.13368e-05
-0.00017386
8.44439e-06
-8.67926e-07
-7.5767e-06
4.4741e-07
-1.04756e-06
-2.98421e-06
-1.50995e-05
1.80826e-05
1.44727e-06
8.48662e-07
-7.79316e-07
-2.45981e-08
7.31913e-07
-3.85202e-07
-3.47065e-07
-1.28664e-06
2.2185e-06
8.11585e-07
-1.1262e-07
-6.98982e-07
5.13189e-07
-2.8788e-07
-2.25378e-07
-1.54652e-05
2.17307e-06
4.33447e-07
-2.82481e-08
2.66798e-06
-6.59528e-06
-5.60651e-07
2.32821e-07
3.27747e-07
3.72035e-07
-3.70347e-07
-1.43957e-09
-3.23086e-08
-4.55859e-07
4.88294e-07
-0.000215534
0.000372672
2.5352e-05
-2.03135e-05
1.73294e-05
-2.08502e-09
5.46097e-07
-5.44086e-07
5.78348e-06
-5.78299e-06
3.37954e-07
1.75322e-07
-1.95833e-06
2.01237e-06
-5.40859e-08
-1.98222e-08
-8.33299e-07
8.53346e-07
1.07321e-05
7.18925e-06
-1.79212e-05
-2.34836e-05
4.25801e-06
1.92256e-05
8.84438e-09
-2.18984e-06
5.26417e-08
-1.06218e-07
-1.8719e-08
-6.08174e-06
4.13831e-05
-2.70733e-07
2.51185e-07
2.30702e-06
-3.17215e-06
8.65643e-07
0.000221521
0.000119304
-0.000340825
1.1617e-07
-4.606e-07
3.44587e-07
1.11009e-05
2.65172e-07
6.26602e-08
3.7072e-07
3.63513e-07
-3.66455e-07
7.95379e-07
1.79655e-07
2.86821e-06
-1.79682e-05
4.8838e-07
-4.02457e-07
4.07918e-06
-1.24149e-05
8.33691e-06
2.62423e-07
4.71404e-07
-7.3379e-07
-1.17293e-06
1.33119e-06
-1.58038e-07
-3.70424e-07
4.42623e-07
-4.20757e-07
8.473e-08
3.36107e-07
6.05345e-06
3.61316e-06
3.86932e-07
4.21253e-09
-3.90911e-07
6.5894e-07
-2.40343e-07
-4.18633e-07
-1.88353e-07
7.46388e-07
-5.5787e-07
8.46642e-07
-2.11361e-07
4.85208e-07
-4.58852e-07
-2.41717e-05
-7.52676e-07
-3.28748e-08
7.8618e-07
2.78497e-07
5.3313e-07
-1.30825e-06
-4.28436e-07
4.84146e-08
-2.00685e-06
-7.30762e-05
7.68877e-05
-3.81137e-06
5.20144e-05
-0.000125088
4.47511e-07
-3.51892e-07
7.80907e-06
-8.61496e-06
-1.22934e-05
1.51612e-05
-3.59479e-06
-1.37645e-06
4.97089e-06
1.71634e-05
4.43549e-06
-5.27582e-07
7.12719e-07
-1.85247e-07
2.90492e-07
-7.52529e-07
-4.26553e-06
4.73828e-06
-4.73267e-07
4.23469e-06
2.42365e-06
-5.05792e-07
7.82714e-08
6.54312e-07
2.65953e-07
-9.20003e-07
1.49374e-06
-2.94937e-06
-2.08872e-07
5.14303e-07
-3.05452e-07
-6.92824e-07
1.65165e-07
3.78206e-06
-1.47501e-06
4.44211e-07
2.11344e-07
-6.5563e-07
7.17382e-07
3.66215e-08
-7.53629e-07
-5.05373e-08
-7.01746e-07
-7.70531e-06
5.71252e-06
1.99223e-06
3.24222e-06
1.03201e-05
-1.3563e-05
-5.98581e-06
0.000123159
-5.15401e-05
-4.18907e-07
-1.87978e-06
-3.45537e-07
-2.61727e-08
3.71736e-07
-2.8662e-06
2.65174e-06
2.14481e-07
2.12771e-06
-2.74104e-06
6.2192e-07
3.04276e-06
1.12713e-05
-1.43151e-05
9.31198e-09
4.63558e-06
-1.1049e-06
-4.1381e-06
4.31179e-09
-3.85429e-07
3.81082e-07
1.83688e-07
-1.30264e-06
5.05857e-05
-3.81654e-05
1.63847e-06
-2.34127e-06
7.03191e-07
-1.05161e-05
1.37494e-05
7.22967e-07
-7.55854e-07
-1.25218e-07
-1.14977e-06
8.86201e-07
5.13777e-07
-1.39988e-06
-6.34088e-08
3.66017e-07
6.58621e-07
-1.48627e-06
2.14858e-05
-2.58486e-06
-1.88944e-05
1.23114e-06
4.07681e-07
-1.6251e-06
3.66064e-06
-2.02284e-06
1.568e-07
-2.08489e-07
5.33044e-08
2.52154e-05
5.84853e-06
-3.10633e-05
4.1602e-05
-8.59e-05
4.42979e-05
-1.84647e-06
2.36562e-06
-5.19124e-07
-8.14113e-09
-4.12507e-07
1.20506e-05
9.93682e-06
-1.21603e-06
-1.07473e-06
2.29215e-06
3.19563e-07
6.63963e-08
-3.85937e-07
5.2508e-06
5.81867e-07
-5.83389e-06
3.31346e-07
5.5015e-09
-3.36791e-07
2.48389e-06
-8.24671e-06
1.004e-05
-6.86576e-06
-3.17611e-06
3.33927e-07
6.2265e-07
-1.25766e-06
6.29081e-07
-3.91309e-07
-1.69838e-07
-1.46113e-06
1.33538e-06
1.27728e-07
8.53504e-07
-1.15597e-07
-7.37891e-07
-2.77826e-06
1.41758e-06
1.36037e-06
1.24405e-06
-1.26577e-06
5.4876e-06
-7.11132e-06
1.62391e-06
-1.68025e-06
3.61349e-06
-1.93314e-06
-2.12208e-07
6.56407e-07
7.32735e-07
-3.32386e-07
2.34761e-06
-4.48579e-06
2.13829e-06
-4.90378e-07
2.08088e-07
2.81849e-07
-2.73087e-07
5.35579e-07
7.57625e-07
4.7571e-07
-2.84177e-08
-4.46991e-07
3.03239e-05
3.89208e-05
-6.92447e-05
2.13771e-07
-4.70993e-07
-4.901e-07
1.09093e-06
-2.82171e-08
1.73582e-07
-7.40439e-06
-1.29092e-05
-7.6569e-06
5.97638e-06
1.74693e-05
-5.31456e-06
4.37327e-07
-4.59155e-07
-5.74668e-07
1.17441e-07
4.5831e-07
-2.75207e-08
6.17517e-07
-2.78163e-07
4.76324e-07
-1.98634e-07
-9.28739e-08
-4.8155e-07
1.60367e-07
6.93041e-07
2.75776e-08
-4.17925e-07
3.90472e-07
-4.28013e-07
3.11042e-08
3.97105e-07
3.50114e-06
-6.65044e-06
3.14912e-06
5.96593e-06
-3.48425e-06
-1.10655e-05
6.47357e-07
1.04174e-05
1.06352e-06
4.1605e-07
-4.65755e-06
-3.04784e-06
4.10691e-07
3.92886e-07
-2.60705e-06
-2.52598e-06
5.12326e-06
3.35134e-06
-1.04944e-05
3.16947e-06
-4.74604e-06
1.58038e-06
1.6834e-07
3.86161e-07
-1.69321e-07
7.13623e-07
6.90477e-07
-8.1715e-07
3.58898e-05
-2.20626e-05
-1.38243e-05
-3.53124e-07
4.69316e-07
-7.9413e-07
6.01069e-07
1.92888e-07
-1.28743e-05
9.68441e-07
-2.27144e-05
3.3112e-06
1.94033e-05
-1.23427e-06
6.14537e-08
6.09611e-06
4.1648e-07
2.54429e-07
-1.3372e-07
-7.75705e-08
7.68602e-07
-6.91177e-07
4.06739e-06
-3.67933e-06
-3.88211e-07
6.89985e-06
-1.34906e-05
6.59022e-06
-1.20801e-06
-4.41308e-07
1.26877e-06
-5.98685e-07
6.21723e-08
-8.6309e-07
1.45119e-06
-3.0367e-05
2.50268e-05
-1.10339e-06
-3.57254e-07
-1.62508e-05
-1.41162e-05
0.00013028
8.79922e-05
-0.000218272
-1.16528e-05
4.92564e-06
6.72716e-06
8.00632e-07
-1.70394e-06
3.59675e-07
2.34548e-08
-3.82914e-07
-5.95696e-06
7.62579e-06
-1.66853e-06
8.65398e-07
-1.23364e-06
-7.08252e-06
-9.4042e-06
-4.6743e-07
1.44791e-07
6.0331e-07
-1.27339e-06
-5.04538e-07
-6.8491e-08
8.29078e-07
-6.14499e-08
-7.67618e-07
-4.71148e-07
4.4699e-07
1.87099e-07
1.23941e-07
-3.10898e-07
-1.08939e-06
1.24521e-06
-1.86187e-06
1.02334e-07
1.06404e-06
-1.16677e-06
9.93244e-06
-7.3996e-06
-1.29167e-05
1.13417e-05
1.5751e-06
-1.45446e-07
3.82628e-07
-2.37143e-07
2.67782e-07
-8.81705e-08
1.34856e-06
4.33314e-07
1.67223e-06
9.46549e-08
-3.87651e-07
-3.05423e-07
6.93097e-07
-1.66007e-06
-7.08866e-06
1.41395e-06
-4.16207e-07
-1.16749e-08
8.71409e-07
8.66999e-07
-1.74003e-06
1.55668e-07
5.69301e-07
-7.24922e-07
1.05898e-06
-4.41765e-07
-4.98608e-07
1.01689e-07
3.96758e-07
2.18989e-09
-4.62576e-07
3.24563e-05
-5.76337e-05
2.51775e-05
3.31196e-07
4.09747e-08
-2.53363e-06
8.25273e-06
1.05785e-06
1.12152e-06
-1.30831e-06
1.92927e-06
1.26951e-07
-7.0244e-07
-2.06217e-05
-3.57064e-07
-1.17894e-05
-7.69422e-06
1.94828e-05
-3.28161e-07
-2.22136e-08
-1.03369e-06
1.27666e-06
1.10419e-06
-1.3412e-06
2.37157e-07
2.99404e-06
-6.5889e-06
7.5524e-07
-5.80535e-06
-3.82612e-05
3.17738e-05
6.48628e-06
-4.64026e-07
1.35861e-07
2.79201e-07
-9.19364e-08
-4.96104e-07
2.20962e-07
1.36146e-06
-1.22742e-06
-1.33902e-07
7.21121e-07
-7.41255e-07
-5.40074e-06
-7.07073e-05
-1.1615e-05
-7.48245e-07
1.62119e-06
1.52006e-05
-1.2202e-05
4.47016e-07
-2.39169e-08
-4.22952e-07
2.07682e-07
1.66093e-07
-3.73554e-07
0.000157141
-0.000104849
-5.22922e-05
1.07153e-07
9.52668e-07
-1.05984e-06
9.66997e-06
-1.70528e-05
-3.94753e-07
4.36646e-08
4.72156e-07
-5.82793e-07
-3.52167e-08
-1.22967e-06
-4.1894e-08
2.13121e-07
-1.71341e-07
-3.37086e-07
3.29193e-07
4.86431e-07
1.83429e-09
3.60829e-07
-3.60834e-07
-1.21823e-05
5.37843e-05
3.96918e-07
9.34576e-07
0.000181697
-5.14171e-05
1.77437e-06
3.44469e-07
1.86864e-06
-1.51516e-06
-3.53743e-07
5.13502e-05
-2.61341e-05
1.24125e-05
-2.69822e-05
1.45675e-05
8.89617e-07
2.73631e-06
-1.30067e-07
5.30845e-07
-2.33235e-07
-2.97479e-07
-2.59546e-08
4.79513e-06
-1.98081e-06
-2.81447e-06
-9.75198e-07
-9.96113e-07
5.129e-07
-5.14911e-07
7.06808e-07
-1.25978e-07
-5.78985e-07
3.44734e-07
-2.18099e-07
1.26502e-06
2.80231e-06
4.02616e-05
-1.97286e-05
-2.05335e-05
3.98021e-09
-6.36377e-07
-3.45802e-08
6.71006e-07
8.65461e-06
7.16527e-07
-4.23723e-06
-1.46164e-05
1.8854e-05
-2.88337e-06
-3.53782e-05
-5.79129e-07
-1.97407e-07
-2.29837e-06
-2.47885e-06
-2.16654e-06
-1.09789e-05
-3.84109e-06
5.49321e-08
1.0246e-07
-9.69066e-07
-0.000135291
0.000159183
-2.38921e-05
-3.39668e-08
-4.66345e-07
4.99834e-07
-2.96717e-08
3.63897e-07
-0.000110371
0.000122286
-7.12144e-07
8.19253e-07
-6.57595e-07
2.10734e-08
2.3484e-05
-2.00067e-06
-8.76119e-07
-2.16999e-06
3.04618e-06
5.34181e-06
-1.63558e-05
1.1023e-05
2.17178e-07
-4.26011e-07
-1.36487e-06
9.82092e-07
-3.81493e-07
1.91675e-06
-8.6964e-07
9.6487e-07
-9.51626e-08
-3.25488e-08
-3.64885e-07
3.97399e-07
-1.77532e-07
-2.52041e-06
2.44929e-06
7.1163e-08
7.32207e-07
-8.10097e-07
-9.90745e-05
1.9988e-05
5.33294e-07
-7.6809e-06
7.1479e-06
3.10002e-07
-1.45461e-07
3.47872e-07
-9.55026e-06
9.20167e-06
-2.36521e-05
2.10686e-05
4.39297e-07
-3.56741e-06
3.12783e-06
-7.25284e-07
-3.75714e-07
1.10115e-06
1.67086e-06
-2.50385e-07
-1.42049e-06
-1.14241e-06
5.44411e-07
-3.82324e-07
-1.39746e-06
-1.18009e-07
1.5154e-06
7.71859e-07
-1.39215e-08
4.51399e-07
-4.45073e-06
7.89433e-06
-3.44283e-06
-1.18748e-05
7.42412e-06
1.28546e-06
-8.37807e-07
5.93449e-06
-6.83814e-07
1.79093e-05
-2.14838e-05
3.60492e-06
4.20083e-07
-4.33961e-07
-3.79807e-06
4.23709e-06
-5.75387e-08
-2.53132e-07
3.10992e-07
8.81541e-07
3.4557e-06
-4.33346e-06
5.33975e-07
-3.6548e-07
-5.31948e-06
3.69645e-06
-5.42844e-07
-4.05218e-08
-7.26469e-07
3.98059e-07
-3.88225e-07
-4.33021e-08
4.31398e-07
-1.26506e-06
-6.78777e-07
1.94394e-06
-4.82505e-07
9.42924e-08
8.77801e-06
5.82406e-06
-4.11595e-06
6.46342e-06
-1.01892e-05
-2.41487e-05
3.43379e-05
6.81168e-07
-1.2618e-06
8.77738e-06
-8.42984e-06
2.04534e-06
-2.70961e-07
1.62422e-05
-2.3644e-05
-1.07063e-07
-8.91609e-07
-2.95564e-06
-8.69738e-06
1.63993e-06
2.28348e-07
-1.03987e-07
5.59164e-06
3.08457e-07
-3.65835e-07
3.41597e-07
9.43943e-07
-3.03518e-07
-3.41784e-07
6.45316e-07
8.32182e-06
6.49707e-06
2.83609e-07
-6.65288e-07
3.81732e-07
-3.88904e-07
4.28666e-07
-1.34212e-05
-1.10585e-05
2.44792e-05
6.91853e-07
1.5578e-06
-2.25419e-06
-9.65948e-07
4.95139e-07
-9.35574e-08
-4.01548e-07
6.64857e-07
-1.92981e-06
-1.26957e-06
9.66159e-07
-1.33411e-06
3.67876e-07
-0.000188221
5.29291e-05
1.97959e-05
-5.87337e-06
-1.39218e-05
-3.35329e-07
3.30396e-07
4.84733e-09
-3.90484e-07
-1.14347e-06
1.53395e-06
-4.09142e-07
3.93389e-07
1.57588e-08
2.29233e-05
-5.01553e-06
9.6639e-06
4.39093e-06
2.99062e-07
-2.49945e-06
5.19354e-06
-2.6943e-06
3.18365e-06
-3.2014e-06
-1.93814e-06
1.0039e-06
9.34278e-07
2.81249e-06
-3.10984e-05
2.82863e-05
-0.000222466
-2.0214e-05
1.49731e-06
-6.10579e-07
1.42514e-06
3.36993e-06
-1.73094e-07
3.80936e-07
-2.12238e-06
3.00537e-06
-4.32986e-07
-5.48305e-07
1.38677e-07
4.75461e-07
-6.14093e-07
-1.19985e-06
-1.49142e-05
4.16485e-07
-4.65889e-07
4.84636e-08
1.85672e-06
-4.35631e-06
-5.82015e-07
7.37549e-07
-2.13677e-07
-1.15121e-06
-2.72489e-07
2.85571e-07
-0.000179673
0.000149016
3.0658e-05
-3.68126e-07
5.05167e-09
2.43607e-07
-3.89716e-07
-3.53728e-07
4.08212e-07
-6.75677e-06
-1.04419e-06
7.80091e-06
6.86401e-05
-0.000291106
8.1152e-07
-4.00664e-07
-9.74241e-06
5.5046e-05
-6.41707e-07
-5.31529e-06
4.67774e-07
-7.03542e-07
1.94131e-07
5.09553e-07
6.62942e-06
-1.47899e-05
8.15881e-06
-5.40614e-07
-6.01836e-07
3.93679e-07
3.75194e-07
-4.44589e-07
4.12147e-07
1.39244e-06
-2.60798e-06
1.5918e-07
2.10187e-05
-2.76794e-05
6.66074e-06
-2.32914e-07
-3.27665e-08
4.70835e-06
-1.52456e-06
2.78502e-07
4.97174e-07
-7.7554e-07
-6.91439e-07
3.38315e-07
-1.11312e-06
5.72561e-07
-1.45897e-06
1.18407e-06
2.75372e-07
9.94244e-06
-4.15432e-07
4.19883e-07
-1.07404e-05
1.99632e-05
1.44868e-05
2.30373e-07
1.23215e-05
-1.25518e-05
-1.04195e-06
5.94652e-05
-3.34032e-05
-2.60621e-05
1.28934e-06
-1.21344e-06
3.96862e-07
1.12992e-07
-5.09814e-07
8.82541e-07
1.02655e-06
-9.24252e-07
-3.95865e-07
-3.09233e-07
-2.68903e-06
6.531e-07
2.03715e-06
8.73147e-07
5.02864e-07
-4.16482e-07
-7.81978e-07
1.19907e-06
-5.4561e-08
4.5147e-07
4.95802e-08
4.26069e-07
-5.72714e-07
1.02053e-07
4.69896e-07
1.02219e-05
1.99387e-06
1.14802e-05
-1.57175e-05
-4.7313e-06
4.92442e-07
4.23599e-06
1.7641e-05
-1.66846e-05
-9.56433e-07
2.38162e-09
5.10563e-07
4.16474e-07
-3.88922e-07
6.46879e-07
-1.11155e-06
4.6455e-07
-3.18257e-08
-5.45737e-07
5.77693e-07
-1.65155e-07
2.48364e-07
-8.32397e-08
4.32381e-07
1.62696e-08
-4.48541e-07
-1.85138e-07
-5.06257e-07
-2.96388e-05
1.78494e-05
1.16923e-06
-1.04603e-06
-1.23254e-07
-8.32672e-07
-9.58061e-07
2.32836e-07
-5.9529e-05
0.000109922
-5.03932e-05
9.82189e-07
-3.35204e-07
-0.000106872
4.73435e-05
5.36195e-05
4.1196e-06
-2.21998e-05
8.77164e-06
-9.79102e-06
-1.17868e-06
1.097e-05
8.36051e-07
-5.57385e-07
-2.00126e-06
1.77168e-07
1.82371e-06
-7.10624e-06
6.77966e-06
3.2703e-07
2.36935e-07
-1.09235e-06
8.55968e-07
-3.91763e-07
2.79078e-07
-8.58361e-07
-9.96035e-08
9.76074e-06
1.00355e-05
-2.44886e-06
1.16568e-05
-9.20712e-06
1.75616e-07
-7.62155e-07
5.86488e-07
-5.26981e-07
6.44221e-07
-1.17562e-07
2.85627e-07
-7.20798e-07
4.35195e-07
2.01619e-05
0.000136979
-6.08375e-06
1.355e-06
1.88915e-05
-0.000198565
-5.65945e-09
2.59504e-07
-2.52358e-07
-8.9964e-07
2.91809e-06
3.54021e-07
-1.73692e-08
-3.36329e-07
-3.91634e-07
5.62398e-08
-1.60227e-05
2.60219e-06
4.99041e-07
-4.96633e-07
-2.50544e-06
2.0454e-06
4.5971e-07
1.5956e-05
-2.58992e-05
-2.17428e-07
-9.64887e-08
3.14051e-07
3.49712e-07
1.857e-07
-5.3537e-07
-1.23684e-08
-2.22379e-06
-1.79826e-06
4.02204e-06
6.48035e-06
-1.0787e-05
4.30663e-06
2.06436e-07
-5.49104e-06
4.11451e-06
1.77289e-06
5.41167e-06
-4.95029e-05
6.90258e-05
-1.95257e-05
-4.9417e-08
-5.22957e-07
1.30958e-05
-1.09047e-06
4.49276e-07
6.41487e-07
6.10113e-07
4.67341e-06
-2.34483e-06
-2.32632e-06
3.52334e-07
-4.21811e-07
6.95553e-08
6.41677e-07
-3.5797e-07
-8.32824e-07
1.08807e-06
-5.56411e-06
6.09779e-06
-9.01635e-07
4.34157e-08
-2.57747e-07
1.4392e-06
-3.66299e-06
6.79526e-06
1.24089e-06
-8.03924e-06
-6.74002e-07
2.89709e-08
6.45206e-07
8.22049e-07
-4.05508e-08
3.71581e-06
-6.36544e-06
2.6496e-06
3.96838e-07
-7.84372e-07
-2.53846e-08
8.54113e-07
6.53562e-07
4.02094e-06
-1.45994e-06
5.17576e-06
-9.65329e-07
9.5691e-08
-4.67361e-07
-6.4582e-07
-3.26282e-08
-7.87294e-07
8.20062e-07
-7.42228e-05
-0.000113998
1.01796e-05
-2.52549e-06
-7.6543e-06
-1.35512e-06
-9.67267e-06
8.13732e-06
1.5351e-06
5.57356e-06
1.59735e-07
-5.73285e-06
6.12967e-07
0.000134747
-2.05188e-05
-0.000114228
-0.000337124
-2.41458e-05
5.76835e-06
1.83814e-05
-2.6931e-06
9.41581e-09
2.06558e-05
-2.24745e-05
1.8187e-06
0.000309514
1.14982e-06
-1.0713e-06
6.03988e-07
5.87956e-07
2.23724e-07
4.11665e-07
-4.384e-08
-3.6757e-07
-2.02678e-07
6.92218e-08
5.23378e-07
-1.64493e-06
1.11691e-06
-9.19748e-07
-5.39385e-07
4.87736e-06
3.7267e-07
-1.41923e-07
1.00012e-07
1.92649e-06
9.34396e-06
-9.42474e-07
2.49186e-07
1.8833e-06
-4.24886e-06
4.55569e-06
-1.23583e-07
-1.42417e-06
-3.91043e-06
-6.37591e-06
1.02877e-05
4.93412e-07
-3.0427e-08
-1.7161e-07
7.96013e-07
-6.24525e-07
-2.73473e-05
7.5172e-06
1.983e-05
-2.47794e-07
8.28685e-08
8.21794e-09
3.43883e-07
-3.51748e-07
7.50254e-07
-6.20247e-08
-6.87853e-07
-1.54155e-06
-8.13067e-06
-2.22101e-06
-1.2372e-06
3.4582e-06
3.53843e-05
3.66417e-06
-3.60425e-07
3.45281e-08
3.26327e-07
-1.20132e-07
-2.66532e-06
7.04876e-07
1.96028e-06
2.25456e-06
1.78071e-06
-1.02395e-05
1.35908e-05
4.62342e-07
1.9644e-07
2.53834e-05
-1.34234e-05
-1.69378e-06
-4.07688e-08
1.12931e-06
-3.35035e-06
-1.14972e-05
7.57803e-06
-8.8341e-08
-1.39943e-06
1.056e-06
3.43307e-07
-2.3391e-06
3.77831e-06
4.69688e-07
-5.40874e-06
-7.94021e-06
1.33486e-05
-3.58306e-06
-1.58451e-06
5.16755e-06
-2.15455e-06
-2.34159e-06
4.49614e-06
1.21762e-05
4.18746e-06
-1.63617e-05
1.04919e-05
-1.19331e-05
1.44136e-06
-3.5763e-06
-1.96472e-05
2.246e-05
-4.26472e-07
-4.00597e-07
5.54224e-06
1.40889e-07
-5.68304e-06
7.29469e-07
1.45251e-05
-1.21737e-07
1.14705e-05
7.21468e-07
-2.49078e-07
-4.72221e-07
0.000143489
-8.74126e-06
-3.9968e-06
6.20737e-06
-2.21127e-06
-9.96742e-06
1.65969e-05
-7.59021e-07
-1.17906e-06
7.84663e-07
2.21015e-08
-8.06687e-07
3.31176e-07
-1.96811e-07
1.36095e-06
-1.17103e-06
-1.89721e-07
-7.74294e-05
5.14394e-05
2.59892e-05
2.63743e-07
4.5787e-07
-1.29912e-05
1.95664e-06
-4.11118e-06
-6.46731e-08
3.41672e-07