/*--------------------------------*- C++ -*----------------------------------*\
| =========                 |                                                 |
| \\      /  F ield         | OpenFOAM: The Open Source CFD Toolbox           |
|  \\    /   O peration     | Version:  v2012                                 |
|   \\  /    A nd           | Website:  www.openfoam.com                      |
|    \\/     M anipulation  |                                                 |
\*---------------------------------------------------------------------------*/
FoamFile
{
    version     2.0;
    format      ascii;
    class       volScalarField;
    location    "200";
    object      k;
}
// * * * * * * * * * * * * * * * * * * * * * * * * * * * * * * * * * * * * * //

dimensions      [0 2 -2 0 0 0 0];


internalField   nonuniform List<scalar> 
15335
(
0.0174537
0.000201301
0.000157853
0.000141911
0.000155236
0.000143274
0.000179873
0.000164276
0.000132484
0.000145622
0.00014948
0.000142585
0.000178287
0.00017222
0.000163083
0.000128531
0.000196752
0.000191674
0.000140936
0.000158265
0.000132588
0.0328739
0.000160621
0.000132748
0.000108681
0.0175046
0.000183678
0.000136773
0.000164929
4.13858e-05
0.000134796
0.000182042
0.000167691
0.000155735
0.000180851
0.000185599
0.000145589
0.000156217
0.000171617
0.000191661
0.000136205
0.0054446
0.000131864
0.000171993
0.00657387
0.000136191
0.000159258
0.000158144
0.000167686
0.000148719
0.000132925
0.000134951
0.000147536
0.000153354
0.0195063
0.00660708
0.00017829
0.000158214
0.000157613
0.00514809
0.000200379
0.000130801
0.000147536
0.000149475
0.000155015
0.0155246
0.00650811
0.000143271
0.00016506
0.000131134
0.000148349
0.000160414
0.000147119
0.0058428
0.000149326
0.00800968
0.000199634
0.000173924
0.000143072
0.000184814
0.0186766
0.000163455
0.000164213
0.000182743
0.000161234
0.015851
0.000149708
0.000183363
0.000143238
0.000152092
0.0105862
0.000182248
0.00538893
0.00371677
0.000157785
0.000182732
0.000131687
0.0157247
0.000134758
0.0158616
0.000131799
0.000152231
0.000194756
0.000128642
0.000149325
0.000131611
0.00719097
0.000146987
0.000149647
0.000174457
0.000185989
0.000169341
0.000130056
0.000168148
0.0001617
0.000136084
0.000174778
0.000148609
0.00418977
0.0094784
0.00015189
0.000180605
0.00511309
0.000140987
0.000180516
0.000136711
0.000141624
0.0272784
0.000181381
0.000149748
0.000136962
0.000180667
0.000152522
0.0173422
0.000135521
0.00389174
0.000145942
0.000131243
0.000173607
0.000154683
0.000149145
0.0119062
0.000140368
0.0181248
0.00509527
0.000150428
0.0109554
0.000154847
0.000147111
0.00017318
0.000144694
0.0153059
0.000128211
0.000156649
0.0123166
0.000145002
0.000183346
0.000146591
0.000135335
0.00016067
0.000139977
0.000152429
0.000147116
0.000169719
0.000150934
0.000141536
0.000135475
0.0172708
0.00013516
0.000141655
0.000152688
0.00014345
0.000149487
0.000145222
0.000157582
0.000156217
0.0187895
0.00013523
0.000182272
0.0155994
0.000149279
0.000145464
0.000157857
0.000155831
0.000155835
0.000188854
0.000183359
0.000146359
0.00014756
0.00683516
0.000150253
0.0154611
0.000168119
0.000136132
0.000147119
0.005246
0.000149249
0.000131209
0.00017681
0.000169465
0.000139263
0.000158199
0.000136166
0.00017902
0.0155798
0.000150367
0.000591214
0.000141358
0.000182105
0.0172349
0.000197669
0.000156328
0.000136392
0.000153369
0.000199662
0.000156972
0.000161629
0.000170694
0.000158242
7.17309e-05
0.000156915
0.000171235
0.0114716
0.000182294
0.000168069
0.00644532
0.000178759
0.000148316
0.000179066
0.000195983
0.000145175
0.000188497
0.010999
0.000160853
0.000147642
0.000151978
0.000142164
0.0197814
0.00910331
0.000150074
0.000173363
0.000144924
0.000175368
0.000152663
0.0171542
0.000157424
0.00250136
0.000156888
0.00954451
0.00389653
0.000156306
0.000133704
0.000198674
0.000149032
0.000133292
0.0346398
0.000148856
0.000168389
0.0123228
0.000133171
0.00847932
0.00245916
0.00936174
0.000157526
0.00575792
0.00737444
0.0122731
0.000133703
0.000200083
0.000149096
0.000185534
0.000128042
0.0184142
0.000135848
0.000151019
0.0099049
0.00505412
0.000152657
0.000146951
0.0159419
0.000136634
0.000141972
0.000150367
0.000146945
0.000185342
0.000146963
0.000162375
0.000141866
0.000195624
0.000157077
0.000196805
0.000153337
0.000135259
0.000143754
0.00933488
0.000157396
0.000152284
0.000135505
0.000148904
0.000150434
3.57054e-05
0.000174952
0.0126732
0.00013807
0.0102491
0.000136684
0.00013681
2.36352e-05
0.00788967
0.00017912
0.00480068
0.000152925
0.000163674
0.0185072
0.000136138
0.000148819
0.000135361
0.00013526
0.000149172
0.000160426
0.000144337
0.00015347
0.0167774
0.0120692
0.000157601
0.00447743
0.000189799
0.000135311
0.000135188
0.000135511
0.000136024
0.0182849
0.00108243
0.000156099
0.0001711
0.000131504
0.000148025
0.000155872
0.000173862
0.00550492
0.000162875
0.000173139
0.000183423
0.000163143
0.000187245
0.00757454
0.000176002
0.00927675
0.000153029
0.000153479
0.000176978
0.00013541
0.000151811
0.016724
0.00390486
0.000153255
0.000148505
0.000135135
0.000144272
0.0149469
0.000143037
0.00013592
0.000157756
0.000143071
0.00134966
0.000147909
0.000150713
0.000149475
0.000168004
0.000142332
0.000147832
0.000143526
0.000160241
0.000144462
0.000134373
0.00013628
0.000130953
0.000127993
0.000143797
0.000177568
0.0109701
0.000181263
0.000164406
0.000176552
0.00649872
0.000164671
0.000136468
0.0141046
0.000141369
0.000143802
0.000149653
0.000168126
0.000134971
0.00015341
0.0200381
0.00015213
0.0001459
0.000128417
0.00014164
0.0134544
0.000163378
0.000243994
0.000179347
0.000133444
0.000142124
0.000174662
0.00013305
0.000148615
0.000179857
0.000145691
0.000133373
0.000145608
0.000150015
0.000152137
0.000174611
0.000136031
0.000142258
0.000157236
0.000144545
0.000144705
0.000175652
0.000139057
0.000199098
0.00014372
0.000159518
0.000158457
0.000140992
0.000144315
0.000136677
0.000197676
0.00866238
0.000160019
0.000175309
0.000218616
0.000129463
0.00013302
0.0171303
0.000175639
0.000139016
0.000164637
0.000131798
0.000145687
0.000142036
0.00930683
0.000153348
0.0125412
0.000165568
0.000144303
0.000157074
0.00315176
0.00015055
0.0167641
0.000140649
0.00535267
0.00014411
0.000146236
0.000164793
0.0096527
0.000147375
0.000147108
0.000146558
0.000159387
0.000150308
0.000152948
0.000178423
0.00701238
0.00017925
0.000198722
0.000153299
0.000151799
0.000140103
0.0177071
0.000153252
0.00255585
0.000144192
0.000138857
0.00014204
0.000152614
0.00950851
0.000145488
0.000150181
0.000147777
0.000148219
0.00014057
0.00014341
0.0107641
0.000151163
0.000145741
0.000136148
0.000145952
0.00012575
0.000129475
0.000141682
0.000134212
0.0176864
0.0126391
0.0104312
0.000162844
0.000164479
0.000181539
0.000150525
0.0371974
0.000143266
0.000174491
0.000131316
0.000156017
0.000162303
0.000179325
0.000138946
0.000148052
0.00015137
0.000154299
0.00295368
0.00018455
8.50118e-05
0.000131973
0.000145481
0.000142363
0.000183355
0.0135766
0.00538147
0.00592783
0.000153025
0.000134344
0.000656879
0.000142089
0.00396027
0.000150695
0.000135222
0.000144524
0.000150374
0.000176008
0.0192729
0.000141759
0.000181163
0.000164597
0.0281491
0.000162566
0.000133262
0.000152425
0.000163906
0.000176519
0.000141996
0.00819185
0.000143576
0.0109493
0.0167587
0.000148862
0.00017689
0.000166251
0.000170295
0.000142616
0.000131292
0.000134748
0.00881658
0.00880823
0.000139004
0.00015185
0.000144675
0.00921139
0.000165412
0.000144405
0.000163509
0.000142906
0.00196848
0.000151543
0.000163265
0.000158476
0.0175901
0.0103844
0.0113821
0.000141318
0.000134215
0.000175198
0.000147487
0.000134151
0.000142855
0.000150063
0.000144314
0.0139456
0.00984401
0.00745814
0.000170589
0.000154287
0.000164638
0.00739518
0.0106795
0.0154858
0.000159779
0.00013529
0.000136975
0.000152777
0.000141569
0.000157576
0.000138918
0.0258435
0.000158254
0.0178653
0.000138696
0.000195731
0.000156629
0.000162686
0.00798523
0.0137058
0.000157605
0.000136145
0.000172255
0.000146372
0.031966
0.000170523
0.0320482
0.00695027
0.000458639
0.000136561
0.000149447
0.000177337
0.000174466
0.0372743
0.000151569
0.000133658
0.00014656
0.000146
0.000143167
0.000153027
0.000180741
0.00013672
0.000132922
0.000128004
0.000142528
0.000161479
0.000150954
0.000184692
0.000136363
0.000156526
0.000171944
0.0154334
0.000195113
0.000144148
0.000136201
0.000162185
0.000176304
0.000141855
0.000143516
0.000174716
0.000144411
0.000178099
0.000171531
0.000132398
0.000165075
0.00977728
0.0236988
0.000144226
0.000135509
0.00013849
0.0131757
0.000147916
0.000454248
0.000145602
0.000152896
0.000147482
0.000140798
0.000164096
0.00018271
0.0104631
0.000135963
0.00472292
0.000149298
0.000146867
7.03897e-05
0.000142224
0.000146253
0.000153347
0.000157533
0.000138901
0.00017415
0.000143844
0.000144017
0.000141452
0.000181004
0.000161973
0.000138916
0.00691248
0.000174413
0.000133307
0.0235213
0.013998
0.000178199
0.000138644
0.00015349
0.000141526
0.000169818
0.000174394
0.000140601
0.000158393
0.000148745
0.00868878
0.000251739
0.000145671
0.000160671
0.0064971
0.000146026
0.0157681
0.000185973
0.000154075
0.000131875
0.00504304
0.000152083
0.000165054
0.000162466
9.96999e-05
0.000140044
0.000150474
5.96769e-05
0.000142529
0.000159509
0.0190985
0.000185163
0.000202569
0.000156434
0.000143896
0.000133483
0.000139967
0.000145767
0.000146249
0.000163753
0.00016185
0.00671623
0.00997377
0.000164784
0.00337561
0.0191009
0.000182388
0.000143341
0.00013644
0.000135803
0.000149506
0.000132872
0.000150545
0.000141395
0.000145283
0.000145813
0.000132893
0.00831972
0.0187044
0.00014136
0.000183171
0.000143892
0.0153694
0.000159304
0.0001816
0.00014059
0.000167394
0.000148811
0.000161565
0.000148642
0.000130527
0.00778827
0.000146996
0.000170039
0.0031998
0.000177747
0.0173487
0.000139914
0.000235227
0.000133144
0.00794779
0.000143839
0.000132816
0.00015831
0.000156719
0.000168549
0.000142192
0.000152505
0.000176391
0.000153215
0.000156146
0.000161735
0.000194597
0.000134154
0.000107792
0.000190481
0.000143616
0.000135924
0.000147699
0.0187956
0.000154369
0.000147532
0.00018664
0.000178506
0.000157983
0.00680869
0.00666857
0.000144164
0.00016922
0.000146854
0.0153781
0.000154239
0.00014393
0.000196012
0.000155566
0.00018659
0.000161523
0.00014367
0.000180588
4.21386e-05
0.000147258
0.000161088
0.000149909
0.000144313
0.00668626
0.000163765
0.000164327
0.000175805
0.000159317
0.000147081
0.000197237
0.000135724
0.000152114
0.000145524
0.000177302
0.000147641
0.000146246
0.000143037
0.000178662
0.000144693
0.000152037
0.000135614
0.000172159
0.0136484
0.000153409
0.000201019
0.000136184
0.000139324
0.000135538
0.0031305
0.000134986
0.000133707
0.000136342
0.000132968
0.000150925
0.000177481
0.000142445
0.000165455
0.00013372
0.000142945
0.000139901
0.000128366
0.0161801
0.00015
0.000132424
0.000140676
0.000143525
0.000133399
0.000157886
0.000153315
0.000142428
0.000149691
0.0207025
0.00014304
0.00838764
0.000136233
0.000143042
9.88365e-05
0.000133296
0.000110601
0.000500166
0.00506905
0.0169656
0.000144941
0.000173818
0.000181496
0.000171381
0.000152084
0.000143035
0.000190483
0.000142617
0.000149008
0.000151145
0.000140113
6.02299e-05
0.000150167
4.55093e-05
0.000154266
0.000131058
0.000146485
0.000143544
0.000152241
0.000140634
0.000186125
0.0050609
0.000146621
0.000171822
0.000143644
0.000131234
0.000129699
0.000154626
0.0110974
0.000136397
0.0140513
0.0113963
0.000139834
0.0146646
0.000144886
0.000144136
0.000179055
0.000149794
0.000169138
0.00014173
0.00826704
0.000142735
0.000165808
0.000131315
0.00183639
0.000150078
0.000149712
0.00014062
0.000171296
0.000136303
0.000178563
0.000140625
0.000139829
0.000135531
0.000188239
4.02354e-05
0.00788049
0.000141792
0.0140132
0.00819617
0.000164796
7.46483e-05
0.00279695
0.0155887
0.000177946
0.00104137
0.00699324
0.000134183
0.000135424
0.000163627
0.000142463
0.000148056
0.000175087
0.000171661
0.0162468
0.000146517
0.0135308
0.000145669
0.000182567
0.0157207
0.000162668
0.00013574
0.000194695
0.000153481
0.000147985
0.0105627
0.000153435
0.000148502
0.000140083
0.0139645
0.000131119
0.0101589
0.000143325
0.000175
0.00016568
0.000168641
0.0124539
0.000150646
0.0182004
0.000171249
0.0001312
0.000194732
0.000148017
0.000171705
0.000131165
0.000157434
0.00035099
0.0147637
0.000131475
0.000200214
0.0100313
0.00013125
0.00624707
0.000186387
0.000178831
0.0174083
0.0148211
0.000134626
8.63576e-05
0.000187553
0.000198964
0.000157627
0.000146354
0.000157221
0.000138533
0.00774542
0.000134708
0.000147952
0.000131549
0.000150628
0.000153778
0.000172517
0.00034388
0.0138084
0.000146283
0.000174278
0.000144714
0.00992193
0.000149685
0.000149442
0.00018558
0.000143276
0.000137759
0.000147614
0.000128931
0.000144373
0.000155141
0.000159812
0.000133327
0.000148476
0.000143394
0.0127209
0.000142087
0.00014084
0.000143292
0.000149445
0.0107134
0.000132487
0.00014007
0.000197887
0.00120102
0.00013245
0.000195381
0.000147443
0.00374618
0.000172874
0.00779602
0.000153342
0.000145771
0.0187398
0.000148147
0.000187225
0.000142856
0.000173564
0.000141083
0.00017649
0.000174205
0.000143151
0.00161654
0.00014603
0.0181031
0.000177705
0.000138713
0.000149644
0.000132999
0.000155421
0.000147511
0.000227833
0.00506302
0.000130567
0.000146512
0.000149486
0.000140079
0.0001428
0.000156228
0.000135342
0.000176759
0.0121808
0.000143724
0.000138519
0.000165813
0.000134819
0.000149038
0.000135234
0.0190258
0.00015133
0.000837101
0.00863251
0.000181387
0.00014321
0.000146363
0.00350152
0.000152152
0.000147491
0.00926507
0.00907793
0.00014979
0.000158083
0.000142165
0.000150806
0.00015846
0.000167708
0.000138466
0.0028035
0.016361
0.00017081
0.000147233
0.0109935
0.0179616
0.000182057
0.000153685
0.000142731
0.000144266
0.000131893
0.000142318
0.000149157
0.000200949
0.000147469
0.000145498
0.000155657
0.000140147
0.0131266
0.000140708
0.000137366
0.000131956
0.000148746
0.000160911
0.000173239
0.000143349
0.000146862
0.000187681
0.000133456
0.000146077
0.000141087
0.000151038
0.00888513
0.0113881
0.000140764
0.000145365
0.014366
0.000172538
0.000136612
0.00012876
0.00013108
0.000140666
0.000164337
0.000142112
0.000137478
0.000146344
0.000148025
0.00133344
0.000175146
0.000152222
0.00017009
0.0126142
0.000153853
0.000191191
0.00017426
0.00813551
0.000141351
0.000199045
0.000167743
0.0170756
0.00275159
0.000183956
0.015652
0.000202243
0.000151024
0.000199734
0.000151773
0.0168989
0.017645
0.00768976
0.0140154
0.000131333
0.00456883
0.000146495
0.00013141
0.000168257
0.00960277
0.000155091
0.000167026
0.000143964
0.000131226
0.000152149
0.00014673
0.000152107
0.000132515
0.00674023
0.00017166
0.000163088
0.000139155
0.000135155
0.000164693
0.00014182
0.00016437
0.000146886
0.00014338
0.000132559
0.000147285
0.000148021
0.000145856
0.000141828
0.000131659
0.000178343
0.000140434
0.000175122
0.00887875
0.00223922
0.000106205
0.000189962
0.000135046
0.0177319
0.000147939
0.012875
0.000135457
0.000131418
0.000142521
0.000106441
0.000144832
0.00014689
0.0125682
0.000191781
0.0105428
0.0189482
0.000199766
0.000272446
0.000143183
0.000147592
0.00939677
0.00252567
0.000142016
0.000142983
0.000138306
0.000305812
0.000147439
0.00877433
0.00538252
0.0192004
0.0120373
0.000159076
0.000157792
0.00576591
0.00990851
0.0142052
0.000144621
0.00732103
0.000143091
0.00662985
0.000131733
0.000142539
0.000142908
0.000133066
0.0167591
0.000137948
0.000173788
0.00018091
0.0245294
0.000143914
0.000157751
0.000163356
0.0127584
0.011064
0.000161129
0.000184745
0.00456943
0.000131159
0.000132186
0.000159139
0.000166946
0.000181504
0.000183161
0.000146265
0.000171522
0.00116895
0.000135028
0.000138322
0.0017225
0.0080237
0.000161329
0.00014869
0.000175154
0.0105039
0.000146492
0.000162874
0.0001328
0.000173422
0.000169067
0.0123282
0.0119979
0.000145885
0.000182464
0.00014207
0.000161213
0.000152872
0.000164275
0.000148817
0.000146644
0.0180626
0.000169108
0.000170803
0.000152117
0.000151382
0.000181649
0.00193884
0.000178107
0.000169457
6.88723e-05
0.00291609
0.000211379
0.000152306
0.000166961
0.00827742
0.000132243
0.000141105
0.000170677
0.00803267
0.000134671
0.000138107
0.00184594
0.000182473
0.000140389
0.000163377
0.000143293
0.000172861
0.000254586
0.000132894
0.0111845
0.000774193
0.00013999
0.000146141
0.000138166
0.000133315
0.000134857
0.000173954
0.0106568
0.000134968
0.000148764
0.000180503
0.00389912
0.000128808
8.05022e-05
0.000135809
0.000133302
0.000141255
0.000140143
0.000142769
0.000181229
0.000149608
0.0100216
0.0068026
0.000172426
0.00966845
0.00174817
0.000153295
0.000142731
0.000239286
0.000132918
0.000136457
0.000156422
0.0100354
0.000195943
0.0262408
0.0142137
0.0177134
0.000142422
0.00768948
0.000162729
0.000729439
0.0186093
0.000141973
0.000141408
0.000157034
0.000138424
0.000147251
0.000188305
0.0162277
0.000142712
0.000161508
0.000133494
0.0105779
0.000140397
0.0156874
0.000141491
0.000110116
0.0162889
0.000176182
0.000155098
0.00015348
0.000136155
0.000188465
0.000187553
0.000136224
0.0001414
9.86077e-05
0.000170825
0.000187318
0.000181806
0.0123524
0.000152663
0.000155691
0.000144442
0.000145474
0.000162731
0.000143154
0.000138221
0.000138083
0.000144643
0.000140252
0.000142917
0.000986339
0.000146485
0.000141117
0.00152965
0.000113313
0.00014757
0.000176589
0.0115345
0.000155223
0.000149581
0.0156752
0.000149837
0.00238944
0.0141132
0.000142358
0.000155919
0.0109905
0.000142362
0.000180069
0.000185418
0.000179817
0.000140115
0.0109407
0.00879687
0.000151946
0.000151793
0.000177932
0.000110615
0.000128017
0.000140169
0.000143215
0.000152551
0.0178135
0.0185936
0.00553483
0.0119268
0.010502
0.000181782
0.000167381
0.00026549
0.00012965
0.000161543
0.000170259
0.000158437
0.000133726
0.000170418
0.000137601
0.000144864
0.00291698
0.00810604
0.000170353
0.0044864
0.000149436
0.000152229
0.000197344
0.00861978
0.000138257
0.0115791
0.000149663
0.00013801
0.0121029
0.000168208
0.000178989
0.000134488
0.000158463
0.000188678
0.000148052
0.000168553
0.000157726
0.000176037
0.000145347
9.40366e-05
0.000165452
0.000139527
0.00014673
0.000993101
0.000591382
0.000155997
0.000168941
0.0154824
0.0166599
0.00013143
0.000180267
0.00016157
0.000111157
0.000146906
0.00013644
0.000147625
0.000149056
0.0068085
0.000153455
0.000197196
0.000142927
0.000146919
0.00862362
0.000142575
0.000146034
0.000168802
0.000155173
0.000145353
0.000143686
0.000150909
0.000168786
0.000112217
0.000158059
0.000170229
0.000148385
0.000142879
0.000146659
0.000145171
0.00023905
0.000151709
0.0176406
0.000151673
0.000143054
0.000170994
0.000146123
0.000153376
0.000150772
0.000142186
0.000143884
0.00014453
0.0163517
0.000142125
0.000163341
0.000149366
0.0354475
0.00533313
0.0284786
0.00014588
0.00501368
0.000144841
0.00016388
0.00014293
0.000141434
0.0085407
0.000168373
0.000146426
0.000174176
0.0141666
0.000152326
0.0124682
0.000150542
0.00125484
0.0127756
0.000145695
0.000142582
0.000146125
0.000169869
0.00013863
0.000137832
0.000142678
0.0101108
0.000557948
0.0001864
0.000149548
0.000143451
0.000777207
0.0144702
0.0241844
0.0069174
0.0155972
0.000139093
0.00199745
0.00014584
0.000164108
0.000710312
0.000135662
0.00014579
0.000149894
0.0101475
0.000651429
0.0180922
0.000140054
0.000151882
0.000153344
0.000185831
0.0149517
0.000156675
0.000172863
0.000146548
0.000160819
0.0001573
0.000134786
0.0165695
0.00520806
0.000149295
0.000153123
0.000153628
0.000151031
0.0153667
0.000154
0.000140888
0.000143317
0.000141202
0.000148877
0.0112418
0.000183839
0.000139627
0.000169752
0.000145027
0.000141927
0.000148046
0.00014077
0.000143149
0.0113465
0.000169015
0.00016856
0.000139761
0.000178687
0.000133187
0.000139812
0.000138585
0.000138954
0.000132955
0.000146735
0.0113299
0.000137884
0.0144139
0.0199389
0.000180398
0.000164858
0.000143368
0.00935228
0.0194882
0.000147089
0.00747886
0.000174691
0.00207362
0.000138711
0.000204115
0.000168744
0.000139972
0.00014543
0.000150492
0.000201405
0.000141993
0.000141888
0.000139448
0.000174938
0.00014742
0.000142113
0.000175574
0.000156684
0.000135929
0.000144123
0.00203266
0.000142341
0.0139382
0.000152755
0.000155492
0.000181251
0.0122962
0.00259878
0.000147548
0.000144373
0.000145271
0.000147612
0.0145001
0.00982913
0.000153561
0.000138082
0.00313864
0.00015101
0.000149004
0.000133099
0.000113843
0.000152241
0.000187086
0.0160919
0.000149939
0.00019337
0.00709609
0.000174038
0.00018015
0.000182982
0.00853035
0.00557731
0.000149971
0.0112278
0.000150772
0.000167195
0.002911
0.00015556
0.000145771
0.000147466
0.00116871
0.0157371
0.0116622
0.00014939
0.000143166
0.000155981
0.000151727
0.00943645
0.000133097
0.0151977
0.000187095
0.000141214
0.000140041
0.00697533
0.000156144
0.00416136
0.000151745
0.000155711
0.000166808
0.000193354
0.000143135
0.000156738
0.0103912
0.0278645
0.00556844
0.0104962
0.000139933
0.00371672
0.000140277
0.000154317
0.000150092
0.000216127
0.00013334
0.000167789
0.000144523
0.000146515
0.000175719
0.0156085
0.0134223
0.000151002
0.000177317
0.00783151
0.000139425
0.000143143
0.000141838
0.000145028
0.000191861
0.000147715
0.000144871
0.00609673
0.000145327
0.0111516
0.0107535
0.000174533
0.000134547
0.000132118
0.000163025
0.000157114
0.000154641
0.000138963
0.000137888
0.000134519
0.000171438
0.00945715
0.000194679
0.000143922
6.4978e-05
0.000139192
0.000190857
0.0123278
0.00017532
0.000145877
0.000171117
8.51775e-05
0.000139278
0.000151256
0.000181374
0.000145944
0.0195879
0.000186557
0.000135236
0.000403088
0.000173483
0.000146653
0.00014074
0.000136474
0.000143117
0.00014676
0.000134703
0.000145664
0.00013958
0.000155436
0.000143812
0.00014803
0.000141969
0.00428977
0.000151579
0.000135969
0.00530497
0.00019622
0.0151333
0.000135911
0.000140153
0.000144432
0.000134475
0.000135503
0.000145301
0.000182095
0.000184758
0.000151992
0.000141957
0.000142566
0.000152557
0.000169554
0.000148583
0.000135983
0.000187645
0.000146888
0.00014342
0.000184774
0.018074
0.0183165
0.000159732
0.000141959
0.00015964
0.0110561
0.000141217
0.000145286
0.0001552
0.000144923
0.00938244
0.000147027
0.000143676
0.000135863
0.00014333
0.0138653
0.000139817
0.000135462
0.0134854
0.00012342
0.014213
0.000133459
0.0137476
0.000135166
0.000153461
0.00014131
0.0158007
0.000136715
0.000158048
0.000157748
0.000158754
0.000155877
0.000170186
0.000147518
0.00978179
0.000156759
0.000195656
0.000146684
0.000156053
0.00599429
0.000157089
0.000172521
0.000139363
0.000139195
0.000149633
0.000160817
0.000164226
0.0182063
0.0357961
0.00014058
0.00013511
0.0137302
0.000142444
0.00019326
0.0148711
0.00935961
0.00594613
0.000971153
0.010713
0.000133431
0.00106628
0.000161987
0.000399533
0.000160827
0.000181915
0.00101237
0.000147738
0.000135215
0.000140588
0.000142273
0.00593312
0.00608025
0.000161465
0.000159998
0.000128585
0.000138376
0.000126411
0.000130167
0.000141137
0.000154741
0.000139262
0.000142475
0.000160409
0.00947611
0.00701206
0.000142592
0.000180022
0.000140886
0.00014439
0.000172973
0.000153987
0.000156228
0.00110164
0.000130929
0.00389267
0.000138299
0.000137471
0.000151338
0.00013567
0.0145893
0.0134474
0.000161688
0.000151082
0.000132157
0.000148946
0.000131934
0.000147694
0.000168132
0.000157692
0.000190545
0.00019609
0.000170592
0.000170884
0.000162297
0.00786651
0.000158026
0.000158265
0.000147855
0.000159073
0.000166772
0.00124099
0.000155346
0.000125131
0.000137514
0.000151653
0.0001825
0.000141494
0.000188173
0.000145983
0.000132202
0.000167093
0.0125085
0.000145468
0.000149137
0.0109857
0.000184442
0.00019665
0.000158967
0.0001845
0.00592413
0.000152959
0.000141915
0.0135335
0.000173523
0.000136203
0.00588788
0.000130042
0.0154786
0.000158069
0.000188943
0.000146892
0.000133838
0.000203138
0.000151596
0.000175051
0.0123973
0.000170894
0.00203497
0.000175782
0.0178032
0.00932735
0.000143255
0.000143246
0.000142447
0.0181738
0.0125238
0.0133881
0.013797
0.0147039
0.0140291
0.000144047
0.000147082
0.000140933
0.0200749
0.0155258
0.00015429
0.00894403
0.000144447
0.0132722
0.000145683
0.000148631
0.0109717
0.000146766
0.000146644
0.000195179
0.000155557
0.000152392
0.000148802
0.000152677
0.000177301
0.00636062
0.00014251
0.000140509
0.000187156
0.0122291
0.0017479
0.000141327
0.000148588
0.000172811
0.000136099
0.000166161
0.00583069
0.000160002
0.000179497
8.73115e-05
0.000134494
0.00982843
0.000136266
0.000170197
0.000143833
0.000151858
0.010094
0.000185557
0.000145074
0.000141377
0.00014244
0.000181175
0.000170691
0.000128106
0.0001424
0.000150107
0.000161278
0.00015655
0.000147278
0.000150424
0.000160166
0.000134615
0.0148121
0.000180857
0.00015133
0.000138001
4.20146e-05
5.42506e-06
0.000160689
0.0092713
0.000910292
0.000184012
0.0117684
0.000144263
0.00673155
0.000143181
0.00635288
0.000138342
0.000171259
0.000138006
0.0159487
0.0134779
0.000176188
0.000141428
0.0132685
0.0231537
0.00844974
0.000145759
0.000178315
0.000163423
0.0116856
0.000169897
0.0159133
0.000143783
0.000143089
0.000162238
0.000188062
0.00798454
0.00016036
0.000152803
0.0112653
0.000170022
0.000152303
0.000153111
0.000139911
0.0133313
0.000147186
0.000138421
0.000146264
0.0002512
0.000191959
0.000135209
0.00139037
0.012209
0.000138017
0.000139918
0.000151794
0.000143385
0.00331693
0.000141371
0.000195341
0.0119766
0.0001401
0.000157008
0.00970829
0.0001722
0.000143708
0.000141332
0.0090109
0.00013578
0.000138118
0.000175988
0.00994944
0.000164663
0.00203331
0.000147125
0.00988804
0.000153635
0.000194684
0.000140249
0.000142287
0.0109992
0.00016299
0.00014464
0.0115831
0.000173504
0.0127729
0.0116645
0.00714519
0.000126546
0.000150718
0.000153253
0.000140092
0.000141141
0.000137697
0.00654788
0.00373084
0.0109169
0.000152965
0.000193897
0.000185121
0.000147364
0.00014379
0.000142534
0.000168315
0.0148049
0.000148825
0.00535785
0.00016004
0.000146372
0.000139599
0.000170405
0.00350016
0.000158654
0.000151195
0.0296834
0.000661856
0.000183186
0.000159937
0.000152606
0.000142221
0.0218983
0.000139142
0.00586509
0.000136012
0.000140707
0.0157365
0.000133865
0.000168346
0.000179786
0.00758561
0.000140905
0.000136105
0.0103186
0.000147375
0.000142044
0.000145581
0.000162418
8.0988e-05
0.0208741
0.000143465
0.000138081
0.000166685
0.000481294
0.000145127
0.00549365
0.000143179
0.000172575
0.000163144
0.0268567
0.000143083
0.000139563
0.000151521
0.000143421
0.000167499
0.000164425
0.000139781
0.000142578
0.0156228
0.00486509
0.000139211
0.00013882
0.00013079
0.0133076
0.00015019
0.000151532
0.0108157
0.000184888
0.000143838
0.0112257
0.000156182
0.000147751
0.000166896
0.000145576
0.00013897
0.000142141
0.000139169
0.000135994
0.000143807
0.000138175
0.000151523
0.000136947
0.000146002
0.000114905
0.000172621
0.000173128
0.00014495
0.00368553
0.000145549
0.000156937
0.000147328
0.000143929
0.000170872
0.000178935
0.000142337
0.000135563
0.000162578
0.000166173
0.000145066
0.000474849
0.00847595
0.0129431
0.000345763
0.00013385
0.0129453
0.0104309
0.000192517
0.000169807
0.00869113
0.000151355
0.000147772
0.000139513
0.00014706
0.000148393
0.000142023
0.000159677
0.000141879
0.00013768
0.00795016
0.000169666
0.00016927
0.000139917
0.000172883
0.000154688
0.000142502
0.000143858
0.000136654
0.00014693
0.00014539
0.000146174
0.000172289
0.013046
0.000135721
0.0118767
0.0113388
0.000142767
0.000142298
0.000193109
0.00147875
0.000141762
0.00014265
0.012958
0.000142994
0.000143036
0.00018089
0.00013873
0.000142916
0.000142317
0.000145697
0.021633
0.0100012
0.000147809
0.000142146
0.000142706
0.000140807
0.000132655
0.000141568
0.000142281
0.000149228
0.0121532
0.00457953
0.000146489
0.000167837
0.000295349
0.00015021
0.000195764
0.00015685
0.000146435
0.000139569
0.000138194
0.000136933
0.00015007
0.000278774
0.000143634
0.000178851
0.0089948
0.00823358
0.0179371
0.000141897
0.000156764
0.000155093
0.000183471
0.000157063
0.00014868
0.000153081
0.000198523
0.000145888
0.000152108
0.000184689
0.000386828
0.000170683
0.000153914
0.000142297
0.0127604
0.017362
0.012327
0.000143298
0.000141226
0.000136152
0.00567006
0.0262593
0.000131173
0.000164188
0.000186899
0.000607487
0.000163113
0.000155668
0.000164563
0.000139778
0.000134946
0.000139519
0.000153436
0.00226939
0.00013598
0.000156786
0.000140698
0.000162552
0.031692
0.000179237
0.0113313
0.0105922
0.00329961
0.00615502
0.000149364
0.000163134
0.000143756
0.0157118
0.000141827
0.0064831
0.00015689
0.0106762
0.000174388
0.0109423
0.0134823
0.000158423
0.000140504
0.0106115
0.00728906
0.000141266
0.00894794
0.000153713
0.000142501
0.000156277
0.0160314
0.000139753
8.86838e-05
0.000139994
0.000142958
0.0137766
0.000167254
0.00013961
0.000151882
0.000152397
0.000143317
0.000160441
0.000181377
0.000530614
0.000181397
0.000169485
0.000199131
0.0100426
0.000161935
0.00127027
0.000126611
0.00333434
0.000184178
0.000167936
0.000139571
0.000171279
0.000137396
0.0149108
0.0111965
0.000145339
0.000152893
0.000172721
0.0148256
0.000171481
0.00745549
0.000145533
0.000132731
0.000138748
0.0150254
0.000166474
0.000169592
0.0134428
0.000135022
0.000134305
0.000151366
0.0122749
0.0138684
0.000139248
0.000137737
0.000139744
0.0112228
0.000139174
0.0317215
0.010079
0.000134117
0.000163698
0.000177816
0.000134544
0.000171882
0.000143434
0.0011048
0.000187039
0.000141205
0.000137304
0.000133678
0.0115596
0.000151255
0.000174583
0.0145859
0.00585818
0.000149206
0.014199
0.000755913
0.00325887
0.000186756
0.000174655
0.000143701
0.0100065
0.000168287
0.000143229
0.000125072
0.0133205
0.000169544
0.000144157
0.000169285
0.000133141
0.000144495
0.00014847
0.00013424
0.011601
0.000106065
0.000169636
0.000175344
0.000184047
0.000181644
0.000150026
0.00150318
0.0159953
0.0239014
0.0165362
0.000148433
0.000146889
0.0150437
0.000133186
0.0144357
0.000145682
0.000137459
0.000168069
0.000177286
0.000169042
0.00017789
0.0231454
0.000132218
0.00016948
0.000168977
0.000378298
0.0165285
0.00948089
0.00494891
0.000141551
0.00137852
0.000157776
0.000147345
0.000153625
0.00013434
0.000152968
0.00361629
0.000179079
0.000161051
0.000148187
0.0369142
0.0114559
0.000176996
0.0327127
0.000200076
0.000145337
0.000139259
0.0120715
0.000150718
0.00758846
0.0106733
0.034867
0.000141288
0.00014265
0.000131284
0.000179627
0.000128543
0.00014222
0.000136481
0.00944284
0.000150256
0.000145036
0.00356078
0.000138306