/*--------------------------------*- C++ -*----------------------------------*\
| =========                 |                                                 |
| \\      /  F ield         | OpenFOAM: The Open Source CFD Toolbox           |
|  \\    /   O peration     | Version:  v2012                                 |
|   \\  /    A nd           | Website:  www.openfoam.com                      |
|    \\/     M anipulation  |                                                 |
\*---------------------------------------------------------------------------*/
FoamFile
{
    version     2.0;
    format      ascii;
    class       volScalarField;
    location    "200";
    object      k_0;
}
// * * * * * * * * * * * * * * * * * * * * * * * * * * * * * * * * * * * * * //

dimensions      [0 2 -2 0 0 0 0];


internalField   nonuniform List<scalar> 
15335
(
0.0174536
0.000201287
0.000157843
0.000141911
0.000155236
0.000143274
0.000179873
0.000164276
0.000132484
0.000145622
0.00014948
0.000142585
0.000178286
0.00017222
0.000163083
0.000128531
0.000196763
0.000191668
0.000140936
0.000158265
0.000132588
0.0328738
0.000160621
0.000132748
0.000108667
0.0175047
0.000183678
0.000136773
0.000164929
4.13967e-05
0.000134796
0.000182043
0.000167691
0.000155735
0.000180851
0.000185597
0.000145589
0.000156218
0.000171617
0.000191654
0.000136205
0.00544429
0.000131864
0.000171993
0.00657415
0.000136191
0.000159258
0.000158144
0.000167686
0.000148719
0.000132925
0.000134951
0.000147536
0.000153354
0.0195065
0.00660726
0.000178292
0.000158214
0.000157614
0.00514812
0.000200359
0.000130801
0.000147536
0.000149475
0.000155015
0.0155245
0.0065085
0.000143271
0.000165061
0.000131134
0.000148349
0.000160414
0.000147119
0.00584341
0.000149326
0.00801012
0.000199657
0.000173923
0.000143072
0.000184814
0.0186766
0.000163455
0.000164213
0.000182743
0.000161234
0.015851
0.000149708
0.000183363
0.000143238
0.000152092
0.0105863
0.000182248
0.00538965
0.00371643
0.000157785
0.000182732
0.000131687
0.0157246
0.000134758
0.0158615
0.000131799
0.000152231
0.000194747
0.000128642
0.000149325
0.000131611
0.00719098
0.000146987
0.000149647
0.000174457
0.000185989
0.000169341
0.000130054
0.000168148
0.0001617
0.000136084
0.000174778
0.000148609
0.00418974
0.00947844
0.00015189
0.000180605
0.0051131
0.000140987
0.000180516
0.000136711
0.000141624
0.0272784
0.000181381
0.000149748
0.000136962
0.000180668
0.000152522
0.0173422
0.000135521
0.00389228
0.000145942
0.000131243
0.000173607
0.000154683
0.000149145
0.0119061
0.000140368
0.0181248
0.00509528
0.000150428
0.0109559
0.000154847
0.000147111
0.00017318
0.000144694
0.0153061
0.000128211
0.000156649
0.0123166
0.000145002
0.000183346
0.000146591
0.000135335
0.000160671
0.000139977
0.000152429
0.000147116
0.000169719
0.000150934
0.000141536
0.000135475
0.017271
0.00013516
0.000141655
0.000152688
0.00014345
0.000149487
0.000145222
0.000157582
0.000156217
0.0187894
0.00013523
0.000182272
0.0155993
0.000149279
0.00014546
0.000157857
0.000155831
0.000155835
0.000188856
0.000183359
0.000146354
0.00014756
0.00683518
0.000150253
0.015461
0.000168119
0.000136132
0.000147119
0.00524582
0.000149249
0.000131209
0.00017681
0.000169497
0.000139263
0.000158199
0.000136166
0.000179018
0.0155797
0.000150367
0.00059122
0.000141358
0.000182105
0.0172349
0.000197688
0.000156328
0.000136392
0.000153369
0.000199685
0.000156972
0.000161629
0.000170694
0.000158242
7.17324e-05
0.000156915
0.000171235
0.0114721
0.000182294
0.000168069
0.00644528
0.000178758
0.000148316
0.000179066
0.000195969
0.000145175
0.0001885
0.010999
0.000160853
0.000147642
0.000151978
0.000142164
0.0197814
0.00910332
0.000150074
0.000173362
0.000144924
0.000175369
0.000152663
0.0171541
0.000157424
0.00250202
0.000156888
0.00954424
0.00389607
0.000156306
0.000133704
0.000198669
0.000149032
0.000133292
0.0346397
0.000148856
0.000168389
0.0123233
0.000133171
0.00848021
0.0024588
0.00936176
0.000157558
0.00575791
0.00737444
0.012273
0.000133703
0.000200093
0.000149096
0.000185533
0.000128042
0.0184142
0.000135848
0.000151019
0.00990487
0.00505409
0.000152657
0.000146951
0.0159418
0.000136635
0.000141972
0.000150367
0.000146945
0.000185341
0.000146963
0.000162375
0.000141866
0.000195626
0.000157077
0.0001968
0.000153337
0.000135259
0.000143754
0.00933492
0.000157396
0.000152284
0.000135505
0.000148904
0.000150434
3.57053e-05
0.000174952
0.0126735
0.000138065
0.010249
0.000136684
0.00013681
2.36404e-05
0.00788968
0.000179119
0.00480065
0.000152925
0.000163674
0.0185072
0.000136138
0.000148819
0.000135361
0.00013526
0.000149172
0.000160426
0.000144337
0.00015347
0.0167773
0.0120696
0.000157601
0.00447744
0.000189794
0.000135311
0.000135188
0.000135511
0.000136024
0.018285
0.00108222
0.000156099
0.0001711
0.000131504
0.000148025
0.000155872
0.000173862
0.0055044
0.000162875
0.000173139
0.000183423
0.000163144
0.000187245
0.00757419
0.000176003
0.00927656
0.000153029
0.000153479
0.000176979
0.00013541
0.000151811
0.0167236
0.0039052
0.000153255
0.000148505
0.000135135
0.000144272
0.0149467
0.000143037
0.00013592
0.000157756
0.000143071
0.00135002
0.000147909
0.000150713
0.000149475
0.000168004
0.000142332
0.000147832
0.000143526
0.000160241
0.000144462
0.000134373
0.00013628
0.000130953
0.000127993
0.000143797
0.000177568
0.0109697
0.000181263
0.000164408
0.000176552
0.00649868
0.000164671
0.000136468
0.0141048
0.000141369
0.000143802
0.000149653
0.000168126
0.000134971
0.00015341
0.0200382
0.00015213
0.0001459
0.000128417
0.00014164
0.0134546
0.000163378
0.000244031
0.000179347
0.000133444
0.000142124
0.000174662
0.00013305
0.000148615
0.00017986
0.000145691
0.000133373
0.000145608
0.000150015
0.000152137
0.000174611
0.000136031
0.000142258
0.000157236
0.000144545
0.000144705
0.000175652
0.000139057
0.000199082
0.00014372
0.000159518
0.000158462
0.000140992
0.000144315
0.000136677
0.000197651
0.00866312
0.000160018
0.000175308
0.000218643
0.000129463
0.00013302
0.0171301
0.000175639
0.000139016
0.000164637
0.000131798
0.000145687
0.000142036
0.00930681
0.000153348
0.0125415
0.000165568
0.000144303
0.000157074
0.00315252
0.00015055
0.0167639
0.000140649
0.00535268
0.00014411
0.000146236
0.000164793
0.00965225
0.000147375
0.000147108
0.000146558
0.000159387
0.000150308
0.000152948
0.000178423
0.00701247
0.00017925
0.000198735
0.000153299
0.000151799
0.000140103
0.017707
0.000153252
0.00255604
0.000144192
0.000138857
0.00014204
0.000152614
0.00950855
0.000145488
0.000150181
0.000147777
0.000148219
0.00014057
0.00014341
0.0107637
0.000151163
0.000145741
0.000136148
0.000145952
0.00012575
0.000129474
0.000141682
0.000134212
0.0176863
0.0126391
0.0104313
0.000162844
0.000164479
0.000181539
0.000150525
0.0371974
0.000143266
0.000174491
0.000131316
0.000156017
0.000162303
0.000179324
0.000138946
0.000148052
0.00015137
0.000154299
0.00295379
0.00018455
8.50162e-05
0.000131973
0.000145481
0.000142363
0.000183353
0.013577
0.0053815
0.00592784
0.000153025
0.000134344
0.000656893
0.000142089
0.00396052
0.000150695
0.000135222
0.000144524
0.000150374
0.000176009
0.0192729
0.000141759
0.000181163
0.000164597
0.0281485
0.000162564
0.000133262
0.000152425
0.000163906
0.000176519
0.000141996
0.00819191
0.000143576
0.0109498
0.0167586
0.000148862
0.00017689
0.000166251
0.000170295
0.000142616
0.000131292
0.000134748
0.00881662
0.0088083
0.000139004
0.00015185
0.000144675
0.00921142
0.000165412
0.000144405
0.000163509
0.000142906
0.00196727
0.000151543
0.000163265
0.000158476
0.01759
0.0103845
0.0113821
0.000141318
0.000134215
0.000175198
0.000147487
0.000134151
0.000142855
0.000150063
0.000144314
0.0139457
0.0098445
0.0074581
0.000170589
0.000154287
0.000164638
0.00739518
0.0106795
0.0154858
0.000159779
0.00013529
0.000136975
0.000152777
0.000141593
0.000157576
0.000138918
0.0258434
0.000158254
0.0178659
0.000138696
0.000195721
0.000156629
0.000162686
0.00798526
0.0137062
0.000157605
0.000136145
0.000172255
0.000146372
0.031966
0.000170523
0.0320482
0.00695046
0.000458542
0.000136561
0.000149447
0.000177337
0.000174466
0.0372742
0.000151569
0.000133658
0.00014656
0.000146
0.000143167
0.000153027
0.000180741
0.00013672
0.000132922
0.000128004
0.000142528
0.000161479
0.000150954
0.000184693
0.000136363
0.000156526
0.000171944
0.0154333
0.000195115
0.000144148
0.000136201
0.000162185
0.000176304
0.000141855
0.000143516
0.000174716
0.000144411
0.000178099
0.000171531
0.000132398
0.000165075
0.00977734
0.0236989
0.000144226
0.000135509
0.00013849
0.0131757
0.000147916
0.000454136
0.000145602
0.000152896
0.000147482
0.000140798
0.000164096
0.00018271
0.0104633
0.000135963
0.00472288
0.000149298
0.000146867
7.03848e-05
0.000142224
0.000146253
0.000153347
0.000157533
0.000138901
0.00017415
0.000143844
0.000144017
0.000141452
0.000181004
0.000161972
0.000138916
0.00691273
0.000174413
0.000133307
0.0235206
0.013998
0.000178199
0.000138644
0.00015349
0.000141526
0.000169818
0.000174394
0.000140601
0.000158393
0.000148745
0.0086888
0.000251769
0.000145671
0.000160671
0.00649708
0.000146026
0.0157678
0.000185954
0.000154075
0.000131875
0.00504307
0.000152083
0.000165054
0.000162466
9.9683e-05
0.000140044
0.000150474
5.96771e-05
0.000142529
0.000159509
0.0190985
0.000185166
0.000202541
0.000156434
0.000143896
0.000133483
0.000139967
0.000145767
0.000146249
0.000163753
0.00016185
0.00671642
0.00997385
0.000164784
0.00337513
0.0191009
0.000182387
0.000143341
0.00013644
0.000135803
0.000149506
0.000132872
0.000150545
0.000141395
0.000145283
0.000145813
0.000132893
0.00831978
0.0187046
0.00014136
0.00018317
0.000143892
0.0153693
0.000159304
0.0001816
0.00014059
0.000167394
0.000148811
0.000161565
0.000148642
0.000130527
0.00778826
0.000146996
0.000170039
0.00319934
0.000177747
0.0173485
0.000139914
0.000235141
0.000133144
0.00794783
0.000143839
0.000132816
0.00015831
0.000156717
0.000168549
0.000142192
0.000152505
0.000176391
0.000153215
0.000156146
0.000161735
0.000194589
0.000134154
0.000107784
0.000190474
0.000143616
0.000135924
0.000147699
0.0187957
0.000154369
0.000147532
0.000186638
0.000178505
0.000157983
0.00680885
0.00666872
0.000144164
0.00016922
0.000146854
0.015378
0.000154239
0.00014393
0.000196005
0.000155566
0.000186587
0.000161523
0.00014367
0.000180588
4.21593e-05
0.000147258
0.000161088
0.000149909
0.000144313
0.00668649
0.000163765
0.000164329
0.000175805
0.000159317
0.000147081
0.000197223
0.000135724
0.000152114
0.000145524
0.000177302
0.000147641
0.000146247
0.000143037
0.000178662
0.000144693
0.000152037
0.000135614
0.000172159
0.0136488
0.000153409
0.000201012
0.000136185
0.000139324
0.000135538
0.00313028
0.000134986
0.000133707
0.000136342
0.000132968
0.000150925
0.000177481
0.000142445
0.000165455
0.00013372
0.000142945
0.000139901
0.000128366
0.0161799
0.00015
0.000132424
0.000140676
0.000143525
0.000133399
0.000157886
0.000153315
0.000142428
0.000149691
0.0207029
0.00014304
0.00838768
0.000136233
0.000143042
9.88198e-05
0.000133296
0.000110585
0.00050012
0.00506861
0.0169655
0.000144941
0.000173818
0.000181496
0.000171381
0.000152084
0.000143035
0.000190479
0.000142617
0.000149008
0.000151145
0.000140113
6.02187e-05
0.000150167
4.5533e-05
0.000154266
0.000131058
0.000146485
0.000143544
0.000152241
0.000140634
0.000186125
0.00506109
0.000146621
0.000171822
0.000143644
0.000131234
0.000129699
0.000154626
0.0110974
0.000136397
0.0140514
0.0113957
0.000139834
0.0146644
0.000144886
0.000144136
0.000179055
0.000149794
0.000169138
0.00014173
0.0082671
0.000142735
0.000165808
0.000131315
0.00183668
0.000150078
0.000149712
0.00014062
0.000171296
0.000136303
0.000178563
0.000140625
0.000139829
0.000135531
0.000188239
4.0259e-05
0.00788047
0.000141792
0.0140135
0.00819623
0.000164796
7.46746e-05
0.00279745
0.0155884
0.000177945
0.00104184
0.00699328
0.000134183
0.000135424
0.000163627
0.000142463
0.000148056
0.000175087
0.000171661
0.0162467
0.000146517
0.0135311
0.000145669
0.000182566
0.0157206
0.000162668
0.00013574
0.000194705
0.000153481
0.000147985
0.0105627
0.000153435
0.000148502
0.000140083
0.0139648
0.000131119
0.0101587
0.000143325
0.000175
0.00016568
0.000168641
0.012454
0.000150646
0.0182003
0.000171249
0.0001312
0.000194744
0.000148017
0.000171705
0.000131165
0.000157434
0.000350965
0.0147637
0.000131475
0.000200208
0.0100313
0.00013125
0.00624709
0.000186387
0.000178831
0.0174082
0.0148212
0.000134626
8.628e-05
0.000187553
0.000198949
0.000157627
0.000146354
0.000157221
0.000138533
0.00774563
0.000134708
0.000147952
0.000131549
0.000150628
0.000153778
0.000172517
0.000343935
0.0138083
0.000146283
0.000174278
0.000144714
0.00992221
0.000149685
0.000149442
0.00018558
0.000143276
0.000137759
0.000147614
0.000128931
0.000144373
0.000155141
0.000159812
0.000133327
0.000148476
0.000143394
0.0127209
0.000142087
0.00014084
0.000143292
0.000149445
0.0107135
0.000132487
0.00014007
0.000197881
0.00120082
0.00013245
0.00019538
0.000147443
0.00374595
0.000172874
0.00779599
0.000153344
0.000145771
0.0187395
0.000148147
0.000187225
0.000142856
0.000173564
0.000141083
0.00017649
0.000174204
0.000143151
0.00161687
0.00014603
0.0181033
0.000177706
0.000138713
0.000149644
0.000132999
0.000155423
0.000147511
0.000227881
0.00506281
0.000130567
0.000146512
0.000149486
0.000140079
0.0001428
0.000156228
0.000135342
0.00017676
0.0121803
0.000143724
0.000138519
0.000165813
0.000134819
0.000149038
0.000135234
0.0190261
0.00015133
0.000836988
0.00863256
0.000181386
0.00014321
0.000146363
0.00350187
0.000152152
0.000147491
0.00926545
0.00907794
0.00014979
0.000158083
0.000142165
0.000150806
0.000158461
0.000167708
0.000138466
0.00280331
0.0163609
0.00017081
0.000147233
0.0109932
0.0179617
0.000182058
0.000153685
0.000142731
0.000144266
0.000131893
0.000142318
0.000149157
0.000200943
0.000147469
0.000145498
0.000155657
0.000140147
0.0131269
0.000140708
0.000137366
0.000131956
0.000148746
0.000160911
0.000173239
0.000143349
0.000146862
0.000187681
0.000133456
0.000146077
0.000141087
0.000151038
0.00888488
0.0113881
0.000140764
0.000145365
0.0143663
0.000172538
0.000136612
0.00012876
0.00013108
0.000140666
0.000164337
0.000142112
0.000137478
0.000146344
0.000148025
0.00133379
0.000175146
0.000152222
0.00017009
0.0126146
0.000153853
0.000191196
0.00017426
0.00813586
0.000141348
0.000199031
0.000167743
0.0170755
0.00275262
0.00018396
0.015652
0.00020222
0.000151024
0.000199722
0.000151773
0.0168988
0.017645
0.00768923
0.0140147
0.000131333
0.00457038
0.000146495
0.00013141
0.000168257
0.00960279
0.000155091
0.000167026
0.000143964
0.000131226
0.000152149
0.00014673
0.000152107
0.000132515
0.00674046
0.00017166
0.000163088
0.000139155
0.000135155
0.000164693
0.00014182
0.00016437
0.000146886
0.00014338
0.000132559
0.000147285
0.000148021
0.000145856
0.000141828
0.000131659
0.000178344
0.000140434
0.000175122
0.00887923
0.00223947
0.000106197
0.000189964
0.000135046
0.0177317
0.000147939
0.0128751
0.000135457
0.000131418
0.000142521
0.000106431
0.000144833
0.00014689
0.0125682
0.00019178
0.0105428
0.0189482
0.000199782
0.000272444
0.000143183
0.000147592
0.00939694
0.00252596
0.000142016
0.000142983
0.000138306
0.00030579
0.000147439
0.0087739
0.00538253
0.0192007
0.0120373
0.000159076
0.000157792
0.00576593
0.00990849
0.014205
0.000144621
0.00732108
0.000143091
0.00662999
0.000131733
0.000142539
0.000142908
0.000133066
0.0167589
0.000137948
0.0001738
0.000180911
0.0245294
0.000143914
0.000157751
0.000163356
0.0127589
0.011064
0.000161129
0.000184744
0.00456926
0.000131159
0.000132186
0.000159139
0.000166946
0.000181503
0.00018316
0.000146265
0.000171522
0.00116893
0.000135028
0.000138322
0.00172292
0.00802365
0.000161329
0.00014869
0.000175154
0.0105043
0.000146492
0.000162877
0.0001328
0.000173422
0.000169067
0.0123282
0.0119984
0.000145885
0.000182465
0.00014207
0.000161218
0.000152872
0.000164275
0.000148817
0.000146644
0.0180626
0.000169108
0.000170803
0.000152117
0.000151382
0.000181649
0.00193911
0.000178108
0.000169457
6.88832e-05
0.00291591
0.00021137
0.000152306
0.00016696
0.00827739
0.000132243
0.000141104
0.000170675
0.00803219
0.000134671
0.000138107
0.0018463
0.000182472
0.000140389
0.000163377
0.000143293
0.00017286
0.000254572
0.000132894
0.0111846
0.000774148
0.00013999
0.000146141
0.000138166
0.000133315
0.000134857
0.000173954
0.0106569
0.000134968
0.000148764
0.000180502
0.00389847
0.000128808
8.04984e-05
0.000135809
0.000133302
0.000141255
0.000140143
0.000142769
0.000181229
0.000149608
0.0100215
0.00680261
0.000172426
0.00966845
0.00174766
0.000153295
0.000142731
0.000239323
0.000132918
0.000136457
0.000156422
0.0100355
0.00019594
0.0262409
0.0142139
0.0177134
0.000142422
0.00768949
0.000162729
0.000729507
0.0186092
0.000141973
0.000141408
0.000157034
0.000138424
0.000147251
0.000188305
0.0162275
0.000142712
0.000161508
0.000133494
0.010578
0.000140397
0.0156872
0.000141491
0.00011011
0.0162887
0.000176182
0.000155098
0.00015348
0.000136155
0.000188467
0.000187552
0.000136224
0.0001414
9.8589e-05
0.000170825
0.000187335
0.000181804
0.0123524
0.000152663
0.000155691
0.000144442
0.000145474
0.000162731
0.000143154
0.000138221
0.000138083
0.000144643
0.000140252
0.000142917
0.000986294
0.000146485
0.000141117
0.0015295
0.000113276
0.00014757
0.00017659
0.0115344
0.000155223
0.000149581
0.0156749
0.000149837
0.00238988
0.014113
0.000142358
0.000155919
0.0109907
0.000142362
0.000180069
0.000185419
0.000179816
0.000140115
0.0109404
0.00879689
0.000151946
0.000151793
0.000177932
0.000110576
0.000128017
0.000140169
0.000143215
0.000152551
0.0178135
0.0185938
0.00553475
0.0119269
0.0105021
0.000181782
0.000167381
0.00026554
0.00012965
0.000161543
0.000170259
0.000158437
0.000133726
0.000170418
0.000137601
0.000144864
0.00291739
0.00810659
0.000170353
0.00448779
0.000149436
0.000152229
0.000197328
0.00862029
0.000138294
0.0115791
0.000149663
0.000138006
0.0121028
0.000168208
0.000178989
0.000134471
0.000158463
0.000188687
0.000148052
0.000168552
0.000157726
0.000176037
0.000145347
9.40778e-05
0.000165452
0.000139527
0.00014673
0.000993371
0.000591302
0.000155997
0.000168942
0.0154823
0.0166597
0.00013143
0.000180267
0.00016157
0.000111163
0.000146906
0.00013644
0.000147625
0.000149056
0.006808
0.000153455
0.000197189
0.000142927
0.000146919
0.00862304
0.000142575
0.000146034
0.000168802
0.000155173
0.000145353
0.000143686
0.000150909
0.000168786
0.000112226
0.000158059
0.000170229
0.000148385
0.000142879
0.000146659
0.000145171
0.000239041
0.000151709
0.0176406
0.000151673
0.000143054
0.000170994
0.000146123
0.000153376
0.000150772
0.000142186
0.000143884
0.00014453
0.0163516
0.000142125
0.000163341
0.000149366
0.0354475
0.00533376
0.0284786
0.00014588
0.0050147
0.000144841
0.00016388
0.00014293
0.000141434
0.00854086
0.000168373
0.000146426
0.000174176
0.0141667
0.000152326
0.0124687
0.000150542
0.0012547
0.0127759
0.000145695
0.000142582
0.000146125
0.00016987
0.00013863
0.000137832
0.000142679
0.0101116
0.000557835
0.000186402
0.000149548
0.000143451
0.000777399
0.0144702
0.0241844
0.00691768
0.0155974
0.000139093
0.00199791
0.00014584
0.000164108
0.000710187
0.000135662
0.00014579
0.000149895
0.0101475
0.000651327
0.0180922
0.000140054
0.000151882
0.000153344
0.000185832
0.0149516
0.000156675
0.000172862
0.000146548
0.000160819
0.0001573
0.000134786
0.0165694
0.00520807
0.000149295
0.000153123
0.000153628
0.000151063
0.0153666
0.000154
0.000140888
0.000143317
0.000141202
0.000148877
0.011242
0.000183839
0.000139627
0.000169752
0.000145027
0.000141927
0.000148046
0.00014077
0.000143149
0.0113466
0.000169015
0.00016856
0.000139761
0.000178688
0.000133187
0.000139812
0.000138585
0.000138954
0.000132955
0.000146735
0.01133
0.000137884
0.0144137
0.019939
0.000180398
0.000164858
0.000143368
0.00935275
0.0194882
0.000147089
0.00747882
0.000174691
0.00207307
0.000138711
0.000204209
0.000168744
0.000139972
0.000145431
0.000150492
0.000201383
0.000141993
0.000141888
0.000139448
0.000174938
0.00014742
0.000142113
0.000175573
0.000156684
0.000135929
0.000144123
0.00203201
0.000142341
0.0139385
0.000152755
0.000155495
0.00018125
0.0122962
0.00259834
0.000147548
0.000144373
0.000145271
0.000147612
0.0145001
0.00982919
0.000153561
0.000138082
0.00313445
0.00015101
0.000149004
0.000133099
0.000113851
0.000152241
0.000187084
0.0160918
0.000149939
0.000193356
0.00709616
0.000174038
0.00018015
0.000182982
0.00852996
0.00557723
0.000149971
0.0112275
0.000150772
0.000167195
0.00291145
0.00015556
0.000145771
0.000147466
0.00116919
0.0157371
0.0116624
0.00014939
0.000143166
0.000155965
0.000151727
0.0094365
0.000133097
0.0151974
0.000187095
0.000141214
0.000140041
0.00697467
0.000156144
0.00416075
0.000151745
0.000155711
0.000166808
0.000193357
0.000143135
0.000156738
0.0103911
0.0278645
0.00556824
0.0104957
0.000139933
0.00371595
0.000140277
0.000154317
0.000150092
0.000216156
0.00013334
0.000167789
0.000144523
0.000146515
0.000175719
0.0156085
0.0134226
0.000151002
0.000177315
0.00783156
0.000139425
0.000143143
0.000141838
0.000145028
0.000191863
0.000147715
0.000144871
0.00609673
0.000145327
0.0111517
0.0107536
0.000174532
0.000134547
0.000132118
0.000163025
0.000157132
0.000154641
0.000138963
0.000137888
0.000134519
0.000171438
0.0094572
0.00019468
0.000143922
6.50871e-05
0.000139192
0.000190858
0.0123279
0.00017532
0.000145877
0.000171117
8.51626e-05
0.000139278
0.000151256
0.000181375
0.000145944
0.0195882
0.000186556
0.000135236
0.000403148
0.000173483
0.000146653
0.00014074
0.000136474
0.000143117
0.00014676
0.000134703
0.000145664
0.00013958
0.000155436
0.000143812
0.00014803
0.000141969
0.0042896
0.000151579
0.000135969
0.00530472
0.00019624
0.0151332
0.000135911
0.000140153
0.000144432
0.000134475
0.000135503
0.000145301
0.000182094
0.000184756
0.000151992
0.000141957
0.000142566
0.000152557
0.000169554
0.000148583
0.000135983
0.000187644
0.000146888
0.00014342
0.000184783
0.018074
0.0183165
0.000159732
0.000141959
0.00015964
0.0110562
0.000141217
0.000145286
0.0001552
0.000144923
0.00938245
0.000147027
0.000143676
0.000135863
0.00014333
0.0138651
0.000139817
0.000135462
0.0134853
0.000123921
0.0142129
0.000133459
0.0137476
0.000135166
0.000153461
0.00014131
0.0158005
0.000136715
0.000158048
0.000157748
0.000158754
0.000155877
0.000170186
0.000147518
0.00978177
0.000156759
0.000195647
0.000146684
0.000156053
0.00599385
0.000157089
0.000172521
0.000139363
0.000139195
0.000149633
0.000160817
0.000164226
0.0182062
0.0357961
0.00014058
0.00013511
0.0137301
0.000142444
0.000193262
0.014871
0.00935988
0.00594631
0.000971087
0.0107128
0.000133431
0.00106612
0.000161987
0.000399625
0.000160827
0.000181914
0.00101225
0.000147738
0.000135215
0.000140588
0.000142273
0.00593324
0.00608026
0.000161465
0.000159958
0.000128585
0.000138376
0.000126408
0.000130175
0.000141137
0.000154741
0.000139262
0.000142475
0.000160409
0.00947618
0.00701205
0.000142592
0.000180022
0.000140886
0.00014439
0.000172972
0.000153987
0.000156228
0.00110145
0.000130929
0.0038933
0.000138299
0.000137471
0.000151338
0.00013567
0.014589
0.0134479
0.000161688
0.000151082
0.000132157
0.000148946
0.000131934
0.000147694
0.000168132
0.000157692
0.000190545
0.000196098
0.000170592
0.000170884
0.000162297
0.00786614
0.000158023
0.000158265
0.000147855
0.000159073
0.000166772
0.00124097
0.000155346
0.000125127
0.000137514
0.000151653
0.000182499
0.000141494
0.000188172
0.000145983
0.000132202
0.000167093
0.0125085
0.000145468
0.000149137
0.0109857
0.000184443
0.00019665
0.000158967
0.000184499
0.00592434
0.000152959
0.000141915
0.0135336
0.000173523
0.000136203
0.00588813
0.000130042
0.0154784
0.000158069
0.000188943
0.000146892
0.000133838
0.000203187
0.000151596
0.000175051
0.0123974
0.000170894
0.00203506
0.000175783
0.0178033
0.00932733
0.000143255
0.000143246
0.000142447
0.0181738
0.0125239
0.0133881
0.013797
0.014704
0.0140292
0.000144047
0.000147082
0.000140933
0.0200751
0.0155262
0.00015429
0.00894359
0.000144447
0.0132723
0.000145683
0.000148631
0.0109718
0.000146766
0.000146644
0.000195188
0.000155557
0.000152392
0.000148802
0.000152677
0.000177301
0.00636132
0.00014251
0.000140509
0.000187154
0.0122291
0.00174749
0.000141327
0.000148588
0.000172811
0.000136099
0.000166161
0.0058307
0.000160002
0.000179497
8.72965e-05
0.000134494
0.00982832
0.000136267
0.000170197
0.000143833
0.000151858
0.0100944
0.000185558
0.000145074
0.000141377
0.00014244
0.000181175
0.000170691
0.000128106
0.0001424
0.000150108
0.000161278
0.00015655
0.000147278
0.000150424
0.000160149
0.000134615
0.0148116
0.000180857
0.00015133
0.000138001
4.13761e-05
5.44408e-06
0.000160689
0.0092713
0.000910281
0.000184011
0.0117685
0.000144263
0.00673155
0.000143181
0.00635264
0.000138342
0.000171264
0.000138006
0.0159486
0.0134778
0.000176188
0.000141428
0.0132686
0.0231535
0.0084498
0.000145759
0.000178315
0.000163423
0.0116861
0.000169897
0.0159136
0.000143783
0.000143089
0.000162238
0.000188061
0.00798442
0.00016036
0.000152803
0.011265
0.000170022
0.000152303
0.000153111
0.000139911
0.0133317
0.000147186
0.000138421
0.000146264
0.000251254
0.000191956
0.000135209
0.00139035
0.0122092
0.000138017
0.000139918
0.000151794
0.000143385
0.00331677
0.000141371
0.000195335
0.011976
0.0001401
0.000157008
0.00970841
0.0001722
0.000143708
0.000141332
0.00901094
0.00013578
0.000138118
0.000175988
0.00994948
0.000164663
0.00203315
0.000147125
0.00988808
0.000153635
0.00019467
0.000140249
0.000142287
0.0109993
0.00016299
0.00014464
0.0115831
0.000173467
0.0127733
0.0116645
0.00714519
0.000126619
0.000150718
0.000153253
0.000140092
0.000141141
0.000137697
0.00654788
0.00373096
0.0109164
0.000152965
0.000193902
0.00018512
0.000147364
0.00014379
0.000142534
0.000168315
0.0148041
0.000148825
0.00535787
0.00016004
0.000146372
0.000139599
0.000170404
0.00350078
0.000158654
0.000151195
0.0296833
0.000661874
0.000183187
0.000159936
0.000152606
0.000142221
0.0218985
0.000139142
0.0058651
0.000136012
0.000140707
0.0157364
0.000133865
0.000168346
0.000179786
0.00758556
0.000140905
0.000136105
0.0103192
0.000147375
0.000142044
0.000145581
0.000162418
8.10222e-05
0.020874
0.000143465
0.000138081
0.000166685
0.000481392
0.000145127
0.00549363
0.000143179
0.000172575
0.000163144
0.0268566
0.000143083
0.000139563
0.000151521
0.000143421
0.000167499
0.000164425
0.000139781
0.000142578
0.0156226
0.0048652
0.000139211
0.00013882
0.000130796
0.0133076
0.00015019
0.000151532
0.0108152
0.00018489
0.000143838
0.0112258
0.000156182
0.000147751
0.000166896
0.000145576
0.00013897
0.000142141
0.000139169
0.000135994
0.000143807
0.000138175
0.000151523
0.000136947
0.000146002
0.000114899
0.000172627
0.000173128
0.00014495
0.0036854
0.000145549
0.000156937
0.000147328
0.000143929
0.000170872
0.000178935
0.000142337
0.000135563
0.000162578
0.000166174
0.000145066
0.000474816
0.0084766
0.0129431
0.00034579
0.00013385
0.0129454
0.0104304
0.000192515
0.000169807
0.00869117
0.000151355
0.000147772
0.00013953
0.00014706
0.000148393
0.000142023
0.000159677
0.000141879
0.00013768
0.00795076
0.000169666
0.00016927
0.000139917
0.000172883
0.000154688
0.000142502
0.000143858
0.000136654
0.00014693
0.00014539
0.000146174
0.000172289
0.013046
0.000135721
0.0118765
0.0113388
0.000142767
0.000142298
0.000193108
0.00147864
0.000141762
0.00014265
0.0129585
0.000142994
0.000143036
0.00018089
0.00013873
0.000142916
0.000142317
0.000145697
0.021633
0.0100012
0.000147809
0.000142146
0.000142706
0.000140807
0.000132655
0.000141568
0.000142281
0.000149228
0.0121538
0.00457914
0.000146489
0.000167837
0.000295257
0.00015021
0.000195757
0.00015685
0.000146435
0.000139569
0.000138194
0.000136933
0.00015007
0.000278766
0.000143634
0.000178851
0.00899482
0.00823302
0.017937
0.000141897
0.000156764
0.000155093
0.000183473
0.000157063
0.00014868
0.000153081
0.000198521
0.000145888
0.000152108
0.000184689
0.000386887
0.000170683
0.000153914
0.000142297
0.0127607
0.0173618
0.012327
0.000143298
0.000141226
0.000136152
0.00567007
0.0262591
0.000131173
0.000164188
0.000186897
0.000607623
0.000163113
0.000155668
0.00016456
0.000139778
0.000134946
0.000139519
0.000153436
0.00226951
0.00013598
0.000156786
0.000140698
0.000162559
0.0316919
0.000179237
0.0113319
0.0105916
0.00329961
0.00615503
0.000149364
0.000163134
0.000143756
0.015712
0.000141827
0.00648235
0.00015689
0.0106761
0.000174387
0.0109418
0.0134823
0.000158423
0.000140504
0.0106113
0.00728922
0.000141266
0.0089486
0.000153713
0.000142501
0.000156277
0.0160312
0.000139753
8.87065e-05
0.000139994
0.000142958
0.0137767
0.000167254
0.000139609
0.000151882
0.000152398
0.000143366
0.000160441
0.000181377
0.000530547
0.000181397
0.000169485
0.000199122
0.010042
0.000161935
0.00127002
0.000126684
0.00333438
0.000184177
0.000167933
0.000139571
0.000171279
0.000137397
0.0149108
0.0111966
0.000145339
0.000152893
0.000172721
0.0148254
0.000171481
0.00745548
0.000145532
0.000132731
0.00013875
0.0150255
0.000166474
0.000169592
0.0134431
0.000135022
0.000134305
0.000151366
0.012275
0.0138683
0.000139247
0.000137737
0.000139744
0.0112231
0.000139174
0.0317213
0.010079
0.000134117
0.000163698
0.000177816
0.000134544
0.000171882
0.000143434
0.00110492
0.000187038
0.000141206
0.000137304
0.000133678
0.0115596
0.000151255
0.000174583
0.014586
0.00585796
0.000149206
0.014199
0.000755965
0.00325845
0.000186755
0.000174654
0.000143701
0.0100059
0.000168287
0.000143229
0.00012508
0.0133208
0.000169544
0.000144157
0.000169286
0.000133141
0.000144495
0.00014847
0.00013424
0.0116011
0.000105099
0.000169636
0.000175344
0.000184046
0.000181644
0.000150026
0.00150357
0.0159952
0.0239016
0.0165363
0.000148433
0.000146889
0.0150434
0.000133186
0.0144355
0.000145682
0.000137459
0.000168069
0.000177286
0.000169042
0.00017789
0.0231455
0.000132218
0.00016948
0.000168977
0.000378333
0.016529
0.00948025
0.00494884
0.000141551
0.00137833
0.000157776
0.000147345
0.000153635
0.00013434
0.000152968
0.00361635
0.000179079
0.000161051
0.000148191
0.0369141
0.0114558
0.000176997
0.0327127
0.000200076
0.000145337
0.000139259
0.012072
0.000150718
0.00758862
0.0106736
0.0348669
0.000141288
0.00014265
0.00013129
0.000179626
0.000128543
0.00014222
0.000136481
0.00944347
0.000150256
0.000145036
0.00356096
0.000138306
0.0103276
0.000167888