/*--------------------------------*- C++ -*----------------------------------*\
| =========                 |                                                 |
| \\      /  F ield         | OpenFOAM: The Open Source CFD Toolbox           |
|  \\    /   O peration     | Version:  v2012                                 |
|   \\  /    A nd           | Website:  www.openfoam.com                      |
|    \\/     M anipulation  |                                                 |
\*---------------------------------------------------------------------------*/
FoamFile
{
    version     2.0;
    format      ascii;
    class       volScalarField;
    location    "200";
    object      nut;
}
// * * * * * * * * * * * * * * * * * * * * * * * * * * * * * * * * * * * * * //

dimensions      [0 2 -1 0 0 0 0];


internalField   nonuniform List<scalar> 
15335
(
0.00612611
0.00113242
0.000736835
0.00585293
0.00556583
0.00583051
0.00235457
0.00624517
0.00580981
0.00591211
0.00588911
0.00584528
0.0025859
0.00321836
0.00464178
0.00579623
0.00124012
0.00136157
0.00582988
0.00524989
0.00581078
0.00705034
0.00446809
0.00581508
0.000582695
0.0058121
0.00204768
0.00583978
0.00441148
0.000825294
0.00582626
0.00224422
0.006422
0.00537527
0.00238917
0.00192072
0.00591306
0.00528706
0.00300951
0.00135379
0.00581911
0.0023215
0.00579998
0.00347023
0.0185494
0.00582817
0.00469752
0.0063165
0.00403373
0.00598165
0.00581887
0.0058335
0.00591219
0.00543982
0.00222028
0.0194574
0.00148265
0.00501095
0.00515472
8.48979e-05
0.00116952
0.00584946
0.00591125
0.00581843
0.00518999
0.00584514
0.0182431
0.00585942
0.00388603
0.00579721
0.00558168
0.00437179
0.00591458
0.0162002
0.00585762
0.00471877
0.00117366
0.00649711
0.00595962
0.00201967
0.00627963
0.00463851
0.00453752
0.00230193
0.00495196
0.00155705
0.00581416
0.00209915
0.00583047
0.00556784
0.00197819
0.00251417
0.0148791
0.00176295
0.00530515
0.00230422
0.00580097
0.00590111
0.00582719
0.00591486
0.00580226
0.00566684
0.00129203
0.00579882
0.00610491
0.00580083
0.000484831
0.00588146
0.00560951
0.0026609
0.00654991
0.00383058
0.00528169
0.00629728
0.00622938
0.00583081
0.00268806
0.00605716
0.00181608
0.0014542
0.00569531
0.00239716
0.00220523
0.00583185
0.00241903
0.00584629
0.0058308
0.0057507
0.00233649
0.00562335
0.00585562
0.0023927
0.00614065
0.00612084
0.00585555
0.0110898
0.00590591
0.00579818
0.00320745
0.00548378
0.00589588
0.00534541
0.00582595
0.00604767
0.00206074
0.00586181
0.00597749
0.0048792
0.00590992
0.00301316
0.00602733
0.00428528
0.00578467
0.00543055
0.00540446
0.00590883
0.00225255
0.00588652
0.00582769
0.00500496
0.00583888
0.00546136
0.00591544
0.00372845
0.0052053
0.00584709
0.00583488
0.00450233
0.00585918
0.00582699
0.00575495
0.00589575
0.00588894
0.0059106
0.00528383
0.00548564
0.00627998
0.00585857
0.00233424
0.00589454
0.00589365
0.00571801
0.00613023
0.00550949
0.00507663
0.00146041
0.00225499
0.00578907
0.00592339
0.000552015
0.00617265
0.00585023
0.00399161
0.00581894
0.00591379
0.00217578
0.005894
0.00585606
0.00259767
0.000821277
0.00582078
0.00523489
0.00583961
0.00259009
0.00583238
0.00552923
0.000780123
0.00582898
0.00223833
0.00611219
0.00121747
0.00519224
0.00582464
0.00524503
0.00116617
0.00536269
0.00618869
0.00368615
0.00614974
0.00194797
0.00541351
0.00345125
0.0048534
0.00233449
0.00625373
0.000657098
0.00219815
0.00589206
0.00252463
0.00125125
0.00579554
0.00146153
0.00426033
0.00493437
0.00591303
0.00579003
0.00589949
0.0195863
0.00141473
0.00584049
0.00301726
0.00586378
0.00295153
0.00575575
0.00604737
0.00488307
0.00790884
0.00537977
0.00441729
0.00181819
0.00546274
0.00583424
0.00121018
0.00550577
0.00581816
0.00777198
0.00587583
0.00637984
0.00518768
0.00581626
0.00306844
0.00130753
0.00167959
0.000560612
0.00206259
0.000985864
0.00540484
0.00581405
0.00115658
0.00589747
0.00153664
0.00578335
0.00620373
0.00586308
0.00582818
0.00337241
0.000117795
0.00540932
0.00591372
0.0059076
0.00583429
0.00583688
0.00584878
0.00590928
0.00165275
0.00590953
0.00480053
0.00585013
0.00119854
0.00538394
0.00122316
0.0057088
0.00583082
0.00590063
0.00193518
0.00534304
0.00578001
0.0058335
0.00590208
0.00584358
0.00102576
0.00262118
0.012022
0.00537802
0.0051642
0.00583369
0.00583853
0.000270198
0.00138016
0.00225373
0.00021065
0.00574431
0.00399694
0.00625367
0.00582915
0.00553066
0.00586987
0.00586457
0.00589723
0.00613582
0.00585664
0.00607546
0.0140848
0.00517518
0.0053249
0.00146112
0.00145151
0.00586411
0.00587116
0.00587984
0.00582044
0.0157438
0.000765202
0.00516351
0.00365305
0.00579976
0.00592504
0.00550789
0.00307897
0.00238541
0.00461178
0.00275659
0.00170987
0.00397486
0.00657494
0.00291092
0.00284757
0.0042971
0.00573145
0.00570653
0.002734
0.00586947
0.0060722
0.00563273
0.00512453
0.00571544
0.00570323
0.00587219
0.0058829
0.0207655
0.0058304
0.00581726
0.0051231
0.0058308
0.00575828
0.00561172
0.00584904
0.00588924
0.00400524
0.00583057
0.00573099
0.00599598
0.00499691
0.00589208
0.00582253
0.00583442
0.00584366
0.00578212
0.00584573
0.00274547
0.00504585
0.00233823
0.0047868
0.00286737
0.000458506
0.00416013
0.00582661
0.00556285
0.00588762
0.0058998
0.00588878
0.00401099
0.00583188
0.00571213
0.0181955
0.00572945
0.00589236
0.00578926
0.00583555
0.00532601
0.00461149
0.00219593
0.00264997
0.00582206
0.00583598
0.00313724
0.00580427
0.00590671
0.00164419
0.0058878
0.00582194
0.00590143
0.00596832
0.00578688
0.00265856
0.00583158
0.00582979
0.00507753
0.00591028
0.0058115
0.00307683
0.00582461
0.00115856
0.00584422
0.00515107
0.000705587
0.0058324
0.00590801
0.00584744
0.00115098
0.00313752
0.00498486
0.00658756
0.00208149
0.00580969
0.00580454
0.0058273
0.00307532
0.00582451
0.00444692
0.00579989
0.00591375
0.00592986
0.00272815
0.00571063
0.0053457
0.00355904
0.00585309
0.00538351
0.00954766
0.00549092
0.00567613
0.00582772
9.6512e-05
0.00596461
0.00589079
0.00444494
0.00361028
0.00564294
0.00591014
0.00588763
0.00442402
0.00522808
0.00573799
0.002113
0.0201568
0.00627324
0.00119982
0.0057125
0.00580737
0.00584068
0.0060647
0.00572084
0.00152874
0.00589443
0.00583809
0.00583852
0.00575397
0.00161896
0.0058851
0.00580091
0.005906
0.00589206
0.00582935
0.0058685
0.00493918
0.00578909
0.00591306
0.00584116
0.00589277
0.00489636
0.00529209
0.0058329
0.00590793
0.00609784
0.0041284
0.00207751
0.00468601
0.00445906
0.00200242
0.00524346
0.0093336
0.00585962
0.00309422
0.0057984
0.00548889
0.0047584
0.00231722
0.00581433
0.00589524
0.00577698
0.00540558
0.00165559
0.00170982
0.00293254
0.00580105
0.00589377
0.00601675
0.00213414
0.00561399
0.000316542
0.000293571
0.00573429
0.00582373
0.00102763
0.00589566
0.00198024
0.00581305
0.00583207
0.00590222
0.00586141
0.00263676
0.00630342
0.00589512
0.00206812
0.00408614
0.00895163
0.00511838
0.00582786
0.00576587
0.00413951
0.00233341
0.00582755
0.00133368
0.00584302
0.00473139
0.00596862
0.0059019
0.00289561
0.00332462
0.00374537
0.00587832
0.00579573
0.00582971
0.0014842
0.0017479
0.00581499
0.0057494
0.00585879
0.00249977
0.00345102
0.0058989
0.00459529
0.00585069
0.00371643
0.00581357
0.00465704
0.00457833
0.0059371
0.00314924
0.00451689
0.00582751
0.00579967
0.00304545
0.00591386
0.00579924
0.00588271
0.00597238
0.00587428
0.0054652
0.00433639
0.00114975
0.00368487
0.00541637
0.00443963
0.00150248
0.00245228
0.00588497
0.00507225
0.00582891
0.00585431
0.00568635
0.000199672
0.00610233
0.00581369
0.00723132
0.0052242
0.00313632
0.00583521
0.00120473
0.00505718
0.00470793
0.00107123
0.00562239
0.00529045
0.00582232
0.00275448
0.00589897
0.0148275
0.0037145
0.0137916
0.0198215
0.000584323
0.00583572
0.00588953
0.00282957
0.00308582
0.0106217
0.00582276
0.00581468
0.00604728
0.00591425
0.00585616
0.00573149
0.00225524
0.00585162
0.00580804
0.00578132
0.00582266
0.00465377
0.00597507
0.00193962
0.00583132
0.00496787
0.00343869
0.00586981
0.00122519
0.00587094
0.00586423
0.0047687
0.00295063
0.00583792
0.00586448
0.000622631
0.00585491
0.0027368
0.00362551
0.00580929
0.00623827
0.00160097
0.0132382
0.00585472
0.0058309
0.00583358
0.00444917
0.00614362
0.000716743
0.00590127
0.0057375
0.00591328
0.0058802
0.00453957
0.00184945
0.00991193
0.00585965
0.00203072
0.00589541
0.00590485
0.00200549
0.00589558
0.00574836
0.00570948
0.00533225
0.00581353
0.00285544
0.00598274
0.00586293
0.00582968
0.00642409
0.00511606
0.00583746
0.0192314
0.00651217
0.00582372
0.00775367
0.00397413
0.00251928
0.00583621
0.0056924
0.00582999
0.00350129
0.0031637
0.00582614
0.00527512
0.00607759
0.00141515
0.000733323
0.00588902
0.00615365
0.000425478
0.00591371
0.00543857
0.000420115
0.00606772
0.00580237
0.000243515
0.00545768
0.00416174
0.00476488
0.000750248
0.00581903
0.00597007
0.000822448
0.00590032
0.00613864
0.0062244
0.00219487
0.001142
0.00544584
0.00590553
0.00582978
0.00584277
0.00590263
0.00589027
0.00463113
0.00482465
0.020363
0.00271547
0.00398303
0.00166038
0.0063328
0.00229793
0.00590525
0.00584971
0.00581593
0.00589059
0.00581255
0.00581915
0.00582777
0.00582974
0.00580427
0.00580345
0.00147464
0.0059693
0.00582652
0.0022431
0.00584573
0.00587077
0.00513075
0.00196062
0.00583246
0.00407158
0.00589865
0.0048644
0.00590195
0.00584346
0.00131976
0.00537333
0.00374501
0.00156995
0.00653403
0.00582417
0.00583904
0.000377914
0.00582038
0.0011645
0.00584331
0.00580279
0.00526211
0.00174675
0.00391818
0.00583775
0.00538441
0.00234448
0.00541374
0.00547754
0.00483855
0.00128466
0.00582213
0.00100158
0.00141413
0.00585838
0.00583922
0.00591032
0.00603047
0.00536477
0.00612326
0.00183561
0.00232903
0.00530237
0.00537341
0.0202455
0.0059056
0.00356593
0.00590478
0.00582528
0.00552724
0.00588827
0.00143033
0.00554462
0.00183052
0.00485908
0.00590369
0.00641648
0.00107813
0.00590634
0.00492075
0.00588138
0.00581995
0.0198116
0.00456277
0.0048078
0.00307735
0.00516245
0.00591416
0.00124451
0.00581589
0.0060286
0.00589809
0.00233832
0.00591322
0.00565599
0.00582493
0.00228992
0.00590939
0.00602028
0.00581466
0.00305042
0.00562477
0.00570496
0.0011315
0.00571038
0.00580162
0.00587762
0.00234723
0.00582956
0.00579793
0.00583366
0.00580793
0.00583025
0.00231428
0.00590255
0.00438111
0.00579805
0.00585061
0.00581911
0.0057932
0.00559432
0.00568687
0.0058729
0.00582631
0.00587474
0.00580943
0.00529912
0.00571053
0.00584583
0.00598698
0.0113036
0.00589515
0.00141995
0.00582192
0.00590409
0.00459827
0.00580798
0.0047999
0.00102951
0.00215747
0.0060109
0.00591064
0.00253331
0.00236738
0.00307607
0.00578346
0.00590458
0.00140858
0.00579346
0.0058568
0.00576823
0.00588232
0.00192284
0.00566397
0.00102582
0.00564426
0.00579663
0.0059031
0.00585783
0.00544888
0.00582494
0.00181292
0.00515692
0.00590144
0.00350187
0.00584393
0.00580908
0.00582156
0.00536714
0.00307899
0.00584405
0.00552246
0.00541688
0.00581896
0.0211315
0.00591098
0.00589204
0.00266479
0.00588442
0.00384893
0.00589327
0.00146
0.00590303
0.00342811
0.00580942
0.0012835
0.00586181
0.0058514
0.00588698
0.00351832
0.00582001
0.00263618
0.00588543
0.00584045
0.0058146
0.00658705
0.000384114
0.00149169
0.00589526
0.00567919
0.00138023
0.00447147
0.00237807
0.00864637
0.00523455
0.00224935
0.000654599
0.01954
0.00582117
0.00581342
0.0045755
0.00583296
0.00605001
0.00255079
0.00292485
0.00598632
0.00603173
0.00561429
0.00590572
0.00223793
0.00581403
0.00470741
0.00583583
0.00129523
0.00570845
0.00589899
0.00347743
0.0057033
0.00590811
0.00583017
0.00562426
0.00580214
0.00508541
0.00584671
0.0031039
0.00411867
0.00383457
0.0035557
0.00578757
0.00605797
0.00364925
0.00580278
0.00128686
0.00589359
0.00352855
0.00580532
0.0053494
0.000401768
0.00576611
0.00581918
0.001094
0.00177794
0.00580587
0.00537387
0.00656094
0.00659215
0.0060359
0.00473907
0.00580111
0.00210591
0.00175646
0.00118886
0.00532418
0.0059126
0.00497194
0.00583858
0.0081775
0.00580147
0.00562023
0.00581897
0.00578617
0.00568032
0.00616886
0.000712188
0.0194677
0.00589528
0.00320559
0.00581065
0.00442009
0.00584984
0.00588861
0.00187048
0.00587654
0.00582566
0.00591144
0.00580665
0.00590493
0.00541982
0.00632966
0.00586905
0.00588098
0.00586245
0.00298494
0.00585653
0.00582899
0.00589808
0.00589224
0.00317688
0.0057956
0.00582812
0.00120291
0.000929918
0.00579564
0.00124363
0.00591454
0.00420321
0.00328337
0.00141771
0.00519732
0.00590295
0.012172
0.00603016
0.00163449
0.00584786
0.0030737
0.00588346
0.00254055
0.00326049
0.00589011
0.00154273
0.00561481
0.00304241
0.00248917
0.00585322
0.00587891
0.00581483
0.00527219
0.00591448
0.000309179
0.00212292
0.00583336
0.00575985
0.00589238
0.00582022
0.00582959
0.00547911
0.00581331
0.00279747
0.0080147
0.0058861
0.00582085
0.00610893
0.00588041
0.00590086
0.00581209
0.00602341
0.00575407
0.000623672
0.00157066
0.00206659
0.005815
0.00591218
0.00181065
0.00575688
0.00591033
0.00415691
0.00101673
0.00588452
0.00529747
0.00583931
0.00582839
0.00541251
0.00404118
0.00582071
0.00135189
0.00578548
0.00363387
0.00603754
0.00521582
0.00264798
0.00641828
0.00569583
0.00582871
0.00587676
0.0058335
0.00582779
0.00609215
0.00110673
0.00590858
0.00589445
0.00538125
0.0058286
0.00551087
0.00582508
0.00581022
0.00583294
0.00590385
0.0048921
0.00340421
0.00589227
0.00591374
0.00175658
0.00583123
0.00589025
0.00588487
0.00581689
0.00890683
0.0100312
0.00589645
0.00589244
0.00307102
0.00341684
0.00583192
0.00579577
0.00579908
0.00582389
0.00428498
0.00584028
0.00581033
0.00608668
0.00590381
0.00138027
0.00243636
0.00619323
0.00375284
0.019092
0.00566247
0.00154574
0.00319896
0.00470874
0.000914789
0.00115817
0.00645198
0.00606633
0.00359693
0.00226658
0.00582713
0.00112563
0.00583741
0.00116474
0.00580625
0.00602966
0.00590818
0.0037211
0.0058578
0.00581372
0.00466876
0.00589925
0.00579701
0.0039758
0.00178494
0.00541305
0.00403594
0.0058688
0.00579578
0.00578383
0.00590933
0.00576351
0.00585224
0.0200515
0.00360202
0.00366738
0.0058134
0.005812
0.00440147
0.00591068
0.00447372
0.00591028
0.00589079
0.00585115
0.005909
0.00590326
0.00590987
0.00588776
0.00582591
0.00274705
0.00582941
0.00315998
0.00488924
0.00143635
0.00335222
0.00142285
0.00581082
0.00590462
0.00534101
0.0113896
0.00583926
0.0058137
0.00583326
0.0034527
0.00591028
0.0059078
0.00484654
0.00133613
0.00349688
0.00629493
0.00109378
0.000411361
0.00584531
0.00591314
0.0207107
0.00149826
0.00583485
0.00584559
0.00585717
0.000930912
0.00591011
0.00333804
0.000311006
0.00611936
0.00415143
0.00510998
0.0053215
0.00031858
0.0050515
0.019409
0.00590751
0.000911009
0.00584675
0.0200908
0.00582549
0.00584739
0.00584811
0.00582347
0.00557484
0.00583208
0.00338488
0.00241781
0.0183561
0.00588645
0.00531035
0.00461509
0.00533757
0.00440073
0.00489871
0.00193043
0.00195383
0.00579981
0.00584254
0.00511721
0.00315712
0.00235725
0.00202773
0.00589427
0.00313714
0.000803226
0.00582849
0.00585551
0.00133521
0.00148665
0.00395745
0.0061064
0.00649746
0.00460273
0.00589674
0.0050052
0.00581289
0.00317612
0.00642749
0.00375279
0.00584205
0.00591108
0.00636256
0.00582843
0.00125853
0.00574429
0.00448866
0.00587504
0.00601342
0.00607007
0.00328241
0.00312393
0.00597244
0.00581957
0.0066156
0.0013661
0.00250591
0.0038089
0.000826005
0.00153667
0.000381903
0.0057774
0.00147909
0.000524901
0.00584182
0.00561401
0.00339222
0.00312648
0.00580824
0.00583463
0.00143941
0.00206547
0.00582317
0.00465438
0.00584682
0.00345309
0.000374291
0.00586206
0.00492269
0.00149421
0.0058313
0.00590575
0.00583399
0.00579754
0.00580956
0.00636768
0.00198296
0.00581078
0.00590481
0.00197807
0.00217016
0.00580468
0.00182701
0.00582953
0.00579703
0.00589548
0.00583038
0.00588175
0.00642234
0.00587863
0.00198426
0.00135767
0.00282118
0.00307708
0.00283122
0.00523968
0.00590382
0.000630684
0.00586037
0.00584839
0.00534392
0.0050739
0.000426258
0.011225
0.0126722
0.00584856
0.00590114
0.00116202
0.0038134
0.000628552
0.00623256
0.0058527
0.00562619
0.00540006
0.00583395
0.00590726
0.0065955
0.00545029
0.00588073
0.00486406
0.00582683
0.00334974
0.0058293
0.00556334
0.00583148
0.00511494
0.00590353
0.00301374
0.0060484
0.00568159
0.00581291
0.00150118
0.0016229
0.00584604
0.00582564
0.00417824
0.00315525
0.00252778
0.00234881
0.00538512
0.00575342
0.00552277
0.00585412
0.00591066
0.00446583
0.00584555
0.00583224
0.0058597
0.00585965
0.00581899
0.00577832
0.000854605
0.00590185
0.00585032
0.000961487
0.00129771
0.00591354
0.00298665
0.0194595
0.00604147
0.00583018
0.00546591
0.00588274
0.00136958
0.020145
0.00584954
0.0054953
0.0035224
0.00587292
0.00640441
0.00162204
0.00207705
0.00583268
0.00516184
0.00127709
0.00561424
0.0058026
0.0028193
0.00127258
0.00578335
0.00583268
0.00586124
0.00576231
0.00608393
0.0130916
0.00363319
0.00519276
0.00366736
0.0064251
0.00333326
0.000667502
0.00582139
0.00410406
0.00364235
0.00524412
0.00583256
0.00367863
0.00586059
0.00584944
0.00158002
0.00449341
0.00340183
0.00397545
0.0058793
0.00578581
0.00121914
0.0046764
0.00165326
0.00474524
0.00587173
0.000802416
0.00533863
0.00385505
0.00655939
0.00047594
0.00522899
0.00119183
0.00602636
0.00394253
0.00530958
0.0029906
0.00589286
0.0011988
0.00610771
0.00581605
0.00590872
0.00076263
0.000587746
0.00549924
0.00387446
0.0184707
0.0057114
0.00579956
0.0062674
0.00471377
0.00069616
0.00591511
0.00584013
0.00591395
0.00589924
0.00409658
0.00570301
0.00121853
0.00590349
0.0058889
0.00412996
0.00583065
0.00591268
0.00391794
0.00556998
0.00589304
0.00587222
0.00584995
0.00387082
0.00321366
0.00528311
0.00295176
0.00589175
0.00582943
0.00591407
0.00590939
0.000438807
0.00580492
0.00615231
0.00581226
0.00589609
0.00367692
0.0059056
0.00570755
0.00584439
0.00582695
0.00584311
0.0058577
0.00598571
0.00585604
0.00363841
0.0060486
0.0122532
0.00308279
0.0124165
0.0058869
0.00198823
0.00584878
0.0037768
0.00583236
0.00582671
0.00479958
0.00394196
0.00590995
0.00240432
0.00392455
0.00559978
0.00511288
0.00560202
0.000946154
0.0201418
0.00589916
0.00582803
0.00591354
0.00350097
0.00582159
0.00582559
0.00587512
0.00823572
0.00305812
0.00172586
0.0058906
0.00586429
0.000815397
0.00527787
0.0168148
0.00768136
0.0141738
0.00583657
0.00120452
0.00572296
0.00454514
0.000667901
0.00586244
0.00590064
0.00560407
0.0161539
0.00372685
0.00617671
0.00582579
0.00572256
0.00609324
0.00248486
0.00547466
0.00543587
0.00344685
0.00571855
0.00488462
0.00519592
0.00580956
0.00578385
0.00208042
0.0056363
0.00572536
0.00569061
0.000929617
0.00587555
0.00566229
0.00588584
0.0058381
0.0058902
0.00607525
0.00379803
0.00221874
0.00583859
0.00337866
0.00590735
0.00588207
0.00589814
0.00582883
0.00583021
0.00254456
0.00392689
0.00382644
0.00584069
0.00270889
0.00579861
0.00582995
0.00583773
0.00587509
0.00581682
0.00590452
0.00391859
0.00582872
0.0207146
0.0143144
0.00248451
0.00441939
0.00583088
0.00506084
0.0203318
0.00591568
0.00112404
0.00659456
0.00789798
0.00582274
0.00147027
0.00389343
0.00582519
0.00559712
0.00584409
0.00116319
0.00582667
0.00582479
0.00582739
0.0028344
0.00590786
0.0058924
0.00316186
0.00541781
0.00583732
0.00587178
0.00715542
0.00583705
0.0055831
0.00574813
0.00471305
0.00240032
0.00521649
0.00171968
0.00590971
0.00585618
0.00588918
0.00590356
0.00562756
0.00290302
0.00569327
0.00583015
0.00322839
0.00584516
0.00590007
0.00582206
0.00300111
0.00607798
0.00161636
0.00596113
0.00588127
0.00102455
0.00417309
0.00262877
0.00221037
0.0019714
0.00480773
0.0171645
0.00560813
0.0194047
0.00585526
0.00397171
0.00219707
0.0055329
0.00590645
0.00590896
0.000817643
0.0195145
0.0103665
0.00563608
0.00588904
0.000443423
0.00580663
0.00163912
0.00579784
0.00529278
0.00179499
0.00587473
0.00584247
0.00346466
0.00540487
0.0129429
0.00569177
0.00551915
0.00622405
0.00130223
0.00585842
0.00542508
0.0038618
0.00572613
0.00306025
0.00487704
0.0058312
0.0117376
0.00582009
0.00564434
0.00585975
0.000523614
0.00586805
0.0032427
0.00590043
0.00590039
0.00252457
0.00478475
0.00536717
0.00558106
0.00269531
0.0011675
0.00583681
0.00583069
0.00582661
0.00579395
0.00124551
0.00591293
0.00590549
0.00301405
0.00589611
0.00412307
0.00352186
0.00316797
0.00582535
0.00586979
0.00468025
0.000498786
0.00533188
0.00587357
0.00583258
0.0058294
0.00308621
0.00143587
0.00125887
0.00589656
0.00180969
0.00581437
0.00138193
0.00517566
0.0031056
0.00591179
0.0028985
0.00253487
0.00584473
0.00573023
0.00236466
0.00589168
0.00619878
0.00174163
0.00580431
0.000582342
0.00334882
0.00590514
0.00582395
0.00582429
0.0058287
0.00573644
0.00587735
0.00590802
0.0058163
0.00554412
0.00586002
0.00590311
0.00583133
0.00253286
0.00581649
0.00582617
0.0162569
0.00124948
0.00573057
0.00582692
0.0058194
0.00579788
0.00579735
0.00586008
0.00588072
0.00213841
0.00173299
0.00599469
0.00583299
0.00583112
0.00576492
0.00380889
0.005906
0.00583354
0.00161672
0.00591458
0.0059024
0.00092786
0.00580916
0.0062249
0.00510539
0.00582483
0.00500396
0.00393359
0.00589524
0.0058824
0.00557036
0.00590002
0.00269937
0.00574849
0.00584982
0.00582879
0.00590076
0.0189036
0.00582261
0.00583729
0.0155592
0.00256936
0.00540384
0.00579759
0.00357946
0.00580426
0.0053942
0.00582476
0.00587918
0.00583092
0.00482426
0.00511413
0.00522766
0.00549929
0.0037071
0.00591366
0.0031044
0.0054328
0.00124067
0.00590843
0.00549528
0.00243705
0.00528907
0.00307318
0.00582505
0.00581879
0.00583015
0.00495803
0.00339948
0.00617088
0.0125894
0.00585135
0.00586038
0.0211028
0.00583461
0.00133166
0.00566578
0.00491326
0.0187759
0.000783554
0.00502988
0.0057974
0.00155522
0.00481936
0.000473065
0.00438974
0.00234818
0.000728613
0.00591255
0.00583455
0.00588256
0.00583038
0.018648
0.00359139
0.00486409
0.000667876
0.00579901
0.00583574
0.00470209
0.000475456
0.00583533
0.00560493
0.0058261
0.00585137
0.00499998
0.00241039
0.000710568
0.00586823
0.00247268
0.00588687
0.00586126
0.00272379
0.0056634
0.00548001
0.00074154
0.0058308
0.00230904
0.00581274
0.00587561
0.00583032
0.0058356
0.00518966
0.00546395
0.00484094
0.00600632
0.00580217
0.00588387
0.00585924
0.00590966
0.00613113
0.00524147
0.00145107
0.00121682
0.00372
0.00305811
0.00478069
0.00374895
0.00123756
0.00526495
0.00593011
0.00518996
0.00406561
0.000969359
0.00555198
0.00428656
0.00587523
0.0058098
0.00229945
0.00587986
0.00170703
0.00590914
0.00586154
0.00304187
0.00528907
0.0058862
0.00588444
0.00310902
0.0017323
0.00123166
0.00516857
0.00193208
0.0195911
0.00564549
0.0058274
0.00509362
0.00329737
0.00573874
0.0198732
0.00582446
0.00571722
0.0052162
0.006612
0.00574791
0.00581598
0.000310339
0.00575733
0.00311612
0.00468616
0.00320415
0.0011392
0.00297911
0.0132221
0.000692234
0.00584911
0.00586091
0.00583833
0.00588994
0.0044115
0.00424795
0.00458971
0.00577654
0.00423281
0.00589932
0.00591185
0.00589595
0.00506398
0.00289135
0.00564372
0.00421635
0.0060341
0.00362478
0.00591007
0.00590538
0.00377291
0.00546517
0.00591532
0.0012441
0.00554516
0.00577259
0.00589626
0.005758
0.00232742
0.00361537
0.0058348
0.0058916
0.0018306
0.0139789
0.00123592
0.00582099
0.00590575
0.00338647
0.00580839
0.00427144
0.00309388
0.00497205
0.00506715
0.00261031
0.00580925
0.00339148
0.00581117
0.00357772
0.00584126
0.00580222
0.00504712
0.00185422
0.00590946
0.00589706
0.00583644
0.00657151
0.00369944
0.00579092
0.00586466
0.00566575
0.0049152
0.00544638
0.00590824
0.00585982
0.000595893
0.00581066
0.00632085
0.00239966
0.00561796
0.00585142
0.00097324
8.45914e-05
0.00497078
0.000736866
0.000839248
0.0020863
0.00384032
0.0058534
0.00429834
0.00582798
0.0188774
0.00582001
0.000383694
0.00583731
0.00578078
0.0184049
0.00248767
0.00583146
0.00393909
0.0148821
0.00162604
0.00590536
0.00223377
0.00451353
0.00484171
0.00379238
0.00465487
0.00586684
0.0058292
0.00395523
0.00157932
0.00375512
0.00504883
0.00574816
0.0190715
0.00380483
0.00569838
0.00572627
0.0058234
0.0054877
0.00591347
0.00581293
0.00589747
0.000560928
0.00148758
0.00586569
0.000897943
0.00439292
0.00583044
0.00589139
0.00568855
0.0059019
0.00164414
0.00582163
0.00125986
0.00562059
0.00582707
0.00507465
0.0050274
0.00345594
0.00585899
0.00583041
0.00137949
0.0058076
0.00581159
0.00246621
0.00314159
0.00636801
0.00109143
0.00590906
0.00300943
0.00569178
0.00118495
0.00589285
0.00583344
0.00354423
0.00461252
0.00590675
0.0031251
0.000541149
0.0051925
0.0203618
0.00459074
0.000447198
0.00564866
0.00570707
0.00588332
0.00583491
0.00586826
0.00430328
0.00193418
0.0185048
0.00622247
0.00127534
0.001938
0.00591402
0.00589515
0.00588992
0.00396822
0.00618229
0.00590306
0.00243946
0.0047071
0.00591535
0.00588984
0.00294743
0.00164318
0.00509152
0.005837
0.00579731
0.00108007
0.00214254
0.00502401
0.00576218
0.00585157
0.00331754
0.00563987
0.00327133
0.00580585
0.00582292
0.00589562
0.00579844
0.00402352
0.00218984
0.0205243
0.0058947
0.00580656
0.00447748
0.00591501
0.00585288
0.00591284
0.00459384
0.00300993
0.0161838
0.00583947
0.00581487
0.00397594
0.000544439
0.00589247
0.00249791
0.00582888
0.00646815
0.00443388
0.018024
0.00587511
0.00583885
0.00580947
0.00590196
0.00406829
0.00354008
0.00589107
0.00582724
0.00569904
0.00237906
0.00582598
0.00583462
0.00592857
0.00402446
0.00572604
0.00578243
0.00503342
0.00189103
0.00589686
0.01775
0.00542509
0.00591383
0.0061201
0.00588309
0.00588603
0.00586653
0.00581437
0.00587871
0.00586088
0.0058077
0.00580445
0.00581421
0.00590969
0.00558802
0.00282331
0.00302979
0.00590776
0.00164104
0.00590333
0.00538396
0.00591314
0.00587132
0.00370345
0.00261407
0.00585454
0.00583873
0.00620043
0.00414108
0.00588363
0.000885397
0.00379439
0.0041001
0.000437826
0.00579841
0.00367012
0.00492884
0.00146058
0.00375651
0.00453181
0.00570797
0.00591351
0.000753044
0.00590541
0.00590928
0.00583307
0.00507407
0.00583053
0.00583072
0.00362438
0.00378834
0.0037803
0.00589147
0.00275273
0.0060611
0.00583648
0.00590017
0.00582737
0.00591256
0.00590413
0.00591285
0.00274118
0.00419033
0.00580773
0.00531117
0.0028926
0.00582418
0.00587812
0.00130648
0.00101428
0.00583679
0.00582726
0.00535072
0.0058535
0.00585667
0.0023923
0.00599741
0.00582463
0.00582374
0.0058827
0.0198053
0.00330116
0.00591234
0.00586883
0.00584381
0.00588195
0.00587572
0.00588523
0.00583525
0.00596837
0.00503157
0.00261705
0.0059148
0.0037516
0.000604527
0.00587215
0.00123628
0.00540456
0.00591066
0.00582851
0.00581573
0.00587819
0.00586588
0.000945981
0.00586357
0.00260294
0.00150941
0.00469276
0.00601333
0.00582567
0.00509294
0.00557828
0.00212552
0.00540767
0.0057258
0.00571482
0.00118635
0.00589817
0.00578945
0.00192793
0.0004959
0.00301604
0.00566158
0.00587988
0.00513754
0.00597664
0.00350769
0.00584452
0.00587678
0.00580995
0.000262507
0.0170705
0.00583577
0.00401222
0.00170551
0.000720843
0.00468605
0.00606002
0.00186192
0.00589022
0.00580189
0.00565994
0.00570274
0.00114435
0.005805
0.00532381
0.00585739
0.00124025
0.0061839
0.00262505
0.00474647
0.0182726
0.00164556
0.00333631
0.00585927
0.00462138
0.0058676
0.00511668
0.00582568
0.0165187
0.00534415
0.0171408
0.00321013
0.0188082
0.0188346
0.00518925
0.00585373
0.00506094
0.0032449
0.00582576
0.00394231
0.00569207
0.00583825
0.00542557
0.00584512
0.00582984
0.00396609
0.0057086
0.00583073
0.00452554
0.00407337
0.0057343
0.00579965
0.00506775
0.000396404
0.00435235
0.00245337
0.000487033
0.00242056
0.00353228
0.00116725
0.00482125
0.0046318
0.000789211
0.000338912
0.0017454
0.00197691
0.000535549
0.00583523
0.00300791
0.00575456
0.00579084
0.00422254
0.0059002
0.00564616
0.00334617
0.00540345
0.00363641
0.00416937
0.00570399
0.00586705
0.00580317
0.00505585
0.00622015
0.00319768
0.00560782
0.00585445
0.00580793
0.00582673
0.00337554
0.00526333
0.00571692
0.00583026
0.00582248
0.00514995
0.00588993
0.00684093
0.0051555
0.00580664
0.00624116
0.00622804
0.00582804
0.00293501
0.00584188
0.00422412
0.00170712
0.00570732
0.00583268
0.00586015
0.00509571
0.00583371
0.0031926
0.00468637
0.00293948
0.00570771
0.00493329
0.000760106
0.00196465
0.0016466
0.00658781
0.00587126
0.0047224
0.00395395
0.00584254
0.00579978
0.00555478
0.0038469
0.00586928
0.00332617
0.00587259
0.0059013
0.0059073
0.00580803
0.00443821
0.00162806
0.00362491
0.00310175
0.00202547
0.00659017
0.00587415
0.0012472
0.0059188
0.00315762
0.00415909
0.00590745
0.00591109
0.0115912
0.00581889
0.00162438
0.00589429
0.00587669
0.00372102
0.00286669
0.00319062
0.00273603
0.00435573
0.00580454
0.00313165
0.00390233
0.000611357
0.0032323
0.00455105
0.0031084
0.00588324
0.000889272
0.00524877
0.00591379
0.000484409
0.00582652
0.00573758
0.00186858
0.0062534
0.00448457
0.000388739
0.0100522
0.0200343
0.00272818
0.0154337
0.00118983
0.00571153
0.00582231
0.00494972
0.00585618
0.0040434
0.00493973
0.00824587
0.00582382
0.00582651
0.00569996
0.00213177
0.00579476
0.00582732
0.00587555
0.00409101
0.00585694
0.0059103
0.00237271
0.00581689
0.000810245
0.00408538
0.00479669
0.00222676
0.00455529
0.00246489
0.0012549
0.00503739
0.00196435
0.000874079
0.00588012
0.00316061
0.00341467
0.00583341
0.00629006
0.00535092
0.00452952
0.00582858
0.00590926
0.00580034
0.00573875
0.000646072
0.00590462
0.00586233
0.0012206
0.00588749
0.00572959
0.01785
0.00276777
0.00765151
0.00582515
0.00582478
0.00506252
0.00586759
0.00211614
0.00588317
0.0028564
0.00221261
0.00504088
0.00146315
0.00293577
0.0058238
0.00590957
0.001202
0.00258741
0.00114792
0.00115147
0.0022514
0.000549617
0.0058173
0.00341291
0.00075249
0.00528207
0.000369023
0.00466667
0.00594842
0.00168308
0.00125597
0.0033076
0.00591251
0.00123231
0.00759796
0.00273038
0.00581952
0.0175931
0.00588994
0.00532178
0.00582321
0.00491515
0.00587714
0.000701633
0.00547011
0.00588092
0.00581321
0.00450174
0.00106563
0.00518514
0.0058996
0.00587133
0.00344874
0.00589036
0.00584579
0.00565866
0.00431094
0.00283392
0.00580932
0.00589057
0.00477017
0.00584307
0.00169743
0.00582345
0.00590929
0.00357926
0.0027463
0.00552362
0.00588803
0.00423986
0.00588051
0.00333565
0.00588612
0.00655903
0.00148924
0.00589361
0.0124331
0.00582563
0.000465803
0.00117479
0.00591088
0.00582472
0.00659306
0.00556949
0.00313827
0.00124481
0.0054205
0.0193573
0.00580704
0.00614334
0.00205811
0.00586847
0.00148741
0.0058004
0.000498087
0.0016624
0.00407186
0.00591137
0.00552367
0.00333869
0.00582564
0.00590008
0.00197291
0.00582577
0.00589625
0.00575044
0.0049818
0.00528867
0.00581691
0.005372
0.00586644
0.0055723
0.00438043
0.00523548
0.00589312
0.00330305
0.00123539
0.00590599
0.00120932
0.00582738
0.00119275