/*--------------------------------*- C++ -*----------------------------------*\
| =========                 |                                                 |
| \\      /  F ield         | OpenFOAM: The Open Source CFD Toolbox           |
|  \\    /   O peration     | Version:  v2012                                 |
|   \\  /    A nd           | Website:  www.openfoam.com                      |
|    \\/     M anipulation  |                                                 |
\*---------------------------------------------------------------------------*/
FoamFile
{
    version     2.0;
    format      ascii;
    class       volScalarField;
    location    "200";
    object      omega;
}
// * * * * * * * * * * * * * * * * * * * * * * * * * * * * * * * * * * * * * //

dimensions      [0 0 -1 0 0 0 0];


internalField   nonuniform List<scalar> 
15335
(
2.84907
0.177761
0.214231
0.0242461
0.0278909
0.0245731
0.0725488
0.0263045
0.0228034
0.0246311
0.0253824
0.0243932
0.0689457
0.0486785
0.0351338
0.0221749
0.158657
0.140774
0.0241747
0.0301463
0.0228177
4.66274
0.0322825
0.0228283
0.186515
3.01176
0.0897008
0.0234209
0.0373864
0.0501468
0.0231359
0.0811163
0.0261119
0.0289725
0.0756962
0.0966303
0.0246217
0.0295471
0.0477833
0.141574
0.0234064
2.3453
0.0227352
0.0495625
0.354398
0.0233677
0.0309308
0.0250366
0.0415709
0.0248625
0.0228437
0.0231337
0.0249546
0.0281911
8.78553
0.339568
0.120251
0.0315737
0.0305765
18.8656
0.171334
0.0223613
0.0249585
0.02569
0.0277556
2.65598
0.356743
0.0244514
0.0370282
0.0226201
0.0265779
0.0320791
0.024874
0.360663
0.0254926
1.69741
0.170095
0.0267694
0.0240069
0.0915071
2.97416
0.0352387
0.0361901
0.0793871
0.0325597
10.1801
0.0257489
0.087351
0.0245672
0.0273161
5.35147
0.0724884
0.362181
2.10827
0.0297419
0.0793033
0.0227009
2.66471
0.0231258
2.68166
0.0227151
0.0268635
0.150737
0.0221842
0.0244599
0.0226883
14.8319
0.0249916
0.0266774
0.0540486
0.0283957
0.0442078
0.0246239
0.0267016
0.0259576
0.0233387
0.0557297
0.0245345
2.30704
6.51794
0.0266693
0.0753414
2.31861
0.0241753
0.0746235
0.0233843
0.0242889
4.74349
0.07763
0.0266297
0.0233899
0.0755078
0.0248381
2.8333
0.023144
0.35093
0.0247111
0.0226352
0.0517447
0.0282074
0.0252965
2.22736
0.0240936
2.99699
2.47255
0.0256624
1.83278
0.0317361
0.0248921
0.0574746
0.0240063
3.57174
0.022164
0.0288459
2.27897
0.0245399
0.081395
0.0249029
0.0232228
0.0321023
0.0239733
0.0279104
0.0248698
0.04552
0.0289961
0.0242062
0.0232181
3.83598
0.0230681
0.0243101
0.0265316
0.024331
0.0253844
0.0245697
0.0298235
0.0284775
2.99196
0.0230825
0.0780863
2.64642
0.0253287
0.0254397
0.0257507
0.0282841
0.0282661
0.129316
0.0813126
0.0252819
0.0249113
12.3822
0.0243418
2.64282
0.0421181
0.0233947
0.0248774
2.41109
0.0253223
0.0224057
0.0602758
0.175238
0.0239251
0.0302201
0.0233176
0.0691171
2.67126
0.0271949
0.757847
0.0242509
0.0813575
2.81976
0.16236
0.030108
0.0234164
0.0292409
0.171212
0.0292711
0.0261168
0.0463069
0.0257315
0.0368234
0.0289858
0.0496154
2.36361
0.0780875
0.026875
9.28025
0.0673131
0.0251722
0.0690977
0.156629
0.0250495
0.128973
2.58172
0.0325986
0.0249689
0.0262482
0.0240977
1.00996
6.43467
0.0256954
0.057457
0.0247151
0.0594162
0.0265235
2.83664
0.0293961
0.316274
0.0291627
2.16072
2.14308
0.0286131
0.0229171
0.164169
0.0270683
0.0229096
4.45701
0.0253336
0.0263939
2.37539
0.0228964
2.7634
1.88076
5.57381
0.180453
2.79159
7.48019
2.27077
0.0229965
0.172994
0.0252813
0.0991675
0.0221398
2.96825
0.0231701
0.0259119
2.93704
23.3863
0.0282211
0.0248492
2.69854
0.0234192
0.0243233
0.0257091
0.0248668
0.0992279
0.0248688
0.0338243
0.0242501
0.163219
0.029175
0.1609
0.0268597
0.0231973
0.0243625
4.82377
0.0294581
0.0263468
0.0232288
0.0252291
0.0257435
0.0348087
0.0550327
1.05417
0.0256731
1.98464
0.0234301
0.0234323
0.0874738
5.71651
0.0680655
22.7898
0.0266219
0.0409499
2.95942
0.0233547
0.026908
0.0230604
0.0230639
0.0252953
0.0261458
0.024645
0.0252607
1.19117
2.33214
0.0295969
3.06439
0.13076
0.0230744
0.0230257
0.0230467
0.02337
1.16141
1.41456
0.0302312
0.0468375
0.022674
0.0249829
0.0282997
0.0525656
2.30775
0.0344878
0.0515671
0.0869329
0.0346706
0.0284785
2.60211
0.0576759
2.15884
0.0266998
0.0268953
0.0647323
0.0230702
0.0250011
2.96907
0.761994
0.0268142
0.0260388
0.0230127
0.024524
0.719794
0.0245329
0.0233649
0.029716
0.0245371
0.234386
0.0263572
0.0257671
0.025381
0.0419461
0.0244114
0.0257952
0.023937
0.0319218
0.024518
0.0230781
0.0233579
0.0224094
0.022136
0.0245987
0.0646765
2.17408
0.0775215
0.0343458
0.0615727
11.5316
0.0366053
0.0234214
2.53551
0.0240112
0.0243741
0.0254133
0.0419164
0.0231437
0.0268568
1.10127
0.0265523
0.0247609
0.0221819
0.0242719
2.52617
0.0354284
0.111112
0.0676791
0.0229204
0.0243531
0.0556739
0.0229228
0.0251603
0.10939
0.0247446
0.0229087
0.0246734
0.0251352
0.02629
0.054854
0.0233265
0.0244019
0.0292732
0.0244565
0.0248998
0.0570888
0.023874
0.171849
0.0245919
0.030968
0.224575
0.024174
0.0244269
0.0233738
0.171745
2.7609
0.032101
0.0266121
0.105029
0.0222839
0.0229165
2.93966
0.0571124
0.0238675
0.0370227
0.0227242
0.0246353
0.0239528
3.41141
0.026853
2.34604
0.0381698
0.0246542
0.029177
0.330109
0.027418
2.95344
0.0241344
18.7069
0.0241608
0.0248245
0.0370743
2.67367
0.0261168
0.0248907
0.0248925
0.0310196
0.0287502
0.0266554
0.0656734
0.347892
0.0285738
0.165626
0.0268357
0.026139
0.0239874
2.9197
0.0267883
1.67187
0.0244623
0.0237847
0.0243281
0.0265232
5.87324
0.0247214
0.0258891
0.0250214
0.0251558
0.0241142
0.0244373
2.17932
0.0261117
0.0246473
0.0233083
0.024768
0.0256824
0.0244658
0.0242902
0.0227173
2.90044
3.0615
5.02102
0.0347512
0.0368865
0.0782186
0.0287073
3.98532
0.0244498
0.0551586
0.022647
0.0284242
0.0341088
0.0692044
0.0238971
0.0251138
0.0262022
0.0285444
1.78407
0.0915547
0.0289891
0.0227498
0.0246839
0.0236611
0.0859152
2.41836
15.6178
20.1922
0.026686
0.0230684
0.63922
0.0241006
1.99989
0.0259236
0.0231859
0.0244863
0.0256549
0.0592821
3.05752
0.0240469
0.0772413
0.0365075
3.14458
0.0317612
0.0228663
0.0264357
0.0395956
0.0599445
0.0243664
5.98399
0.0245723
2.31419
2.80781
0.0252227
0.061089
0.0389591
0.0454683
0.0242613
0.0226533
0.0231141
5.94029
5.03931
0.0239044
0.0264114
0.0246936
3.68489
0.0379061
0.0244799
0.0355818
0.0244255
0.529669
0.0260671
0.0350577
0.0302232
2.96275
3.29744
2.5199
0.0242502
0.0231418
0.0568964
0.0249392
0.0231325
0.0242839
0.0251262
0.0245671
2.55171
2.27009
6.48675
0.0462944
0.0284853
0.0370837
3.83515
4.35492
2.63142
0.0315005
0.0232102
0.0233973
0.0268674
0.709008
0.0258223
0.023895
3.57384
0.0302924
5.69627
0.0237687
0.162469
0.028812
0.0345558
7.45429
2.43772
0.0297905
0.0233834
0.0488401
0.0248131
2.15587
0.0459073
2.32375
0.350643
0.784906
0.0234009
0.025375
0.0626728
0.05489
3.50924
0.0260304
0.0229863
0.0242357
0.0246861
0.0244472
0.0266993
0.0754532
0.0233644
0.0228859
0.0221409
0.0244782
0.032838
0.025264
0.0952209
0.0233846
0.0287653
0.049287
2.62928
0.15925
0.0245528
0.0232258
0.0340104
0.0597512
0.0242989
0.0244721
0.280609
0.0246649
0.0650756
0.0473122
0.0227907
0.0264616
6.1071
1.79019
0.0246341
0.0232398
0.0237401
2.96138
0.0240764
0.633767
0.024673
0.0266486
0.0249408
0.0239445
0.0361479
0.0839789
1.05561
0.0232033
2.32573
0.0253244
0.0248722
0.0350985
0.0241237
0.0254425
0.0268583
0.0295435
0.0238926
0.0538771
0.0240432
0.024564
0.0242642
0.0281758
0.0316597
0.0237974
0.359437
0.0267827
0.0228903
3.03357
3.52228
0.064701
0.0237558
0.026964
0.0242755
0.0485016
0.0534632
0.0241328
0.0300264
0.0244743
6.13983
0.343286
0.0247361
0.0261099
15.2701
0.0246928
2.8993
0.442672
0.0253926
0.0227279
17.4098
0.0278659
0.0369772
0.0340965
0.132889
0.0240666
0.0252047
0.0725601
0.0241561
0.0259844
3.06833
0.0843617
0.177381
0.0287254
0.0243663
0.0228968
0.0239556
0.0246952
0.0248289
0.0353593
0.0335465
0.329825
3.67295
0.0367914
2.03304
3.01619
0.0793704
0.0242736
0.0233242
0.0233502
0.0253805
0.0228596
0.0258705
0.0242624
0.0249211
0.0251217
0.0228989
5.64186
3.13344
0.0242616
0.0816596
0.0246149
2.61796
0.0310488
0.0785897
0.0241048
0.0411127
0.0252281
0.0332138
0.0251852
0.0223373
5.90126
0.0273567
0.0454042
2.03816
0.0272033
2.97874
0.0239618
0.622436
0.0228754
6.82506
0.024616
0.0228883
0.0300848
0.08972
0.0430172
0.0243574
0.0283234
0.0598782
0.0283012
0.0285066
0.0334263
0.151477
0.0230421
0.107622
0.134698
0.0245146
0.0232778
0.02499
3.11677
0.0287746
0.0240936
0.101677
0.0663256
0.0297948
1.26711
0.329386
0.0244115
0.0474547
0.0248704
2.6399
0.0279052
0.0244434
0.137039
0.028057
0.101933
0.0332414
0.0243356
0.0281445
0.0390848
0.0249321
0.0325267
0.0254887
0.0247963
0.337492
0.0358915
0.0341792
0.0571287
0.0308606
0.0248693
0.158486
0.0233368
0.0252321
0.0246731
0.061972
0.0249679
0.0258569
0.0245559
0.0664088
0.0244853
0.0252542
0.0233227
0.0487645
2.42648
0.0268905
0.177656
0.0238486
0.0240146
0.02306
1.3337
0.0231555
0.0230611
0.0233716
0.0228942
0.0258865
0.0631419
0.0241328
0.0377656
0.023063
0.0244324
0.0240417
0.0221581
2.89224
0.0263765
0.0225484
0.0241449
0.0244308
0.0229624
0.0297947
0.0268477
0.024364
0.0250028
1.8315
0.024264
5.90701
0.0234001
0.0242275
0.0214943
0.0229505
0.0230423
0.48583
2.34953
2.82247
0.024522
0.0522959
0.0766653
0.0479959
0.0262964
0.0242245
0.13523
0.024617
0.0254419
0.026203
0.0238193
0.0313235
0.0265128
0.0443637
0.0273315
0.0226093
0.0248149
0.0245046
0.0279398
0.0241434
0.102666
0.981382
0.024845
0.0490657
0.0245799
0.0225911
0.022279
0.0275385
3.60424
0.0233394
2.54438
2.10385
0.0240308
0.693969
0.0245114
0.0244628
0.0671927
0.025456
0.0439441
0.0240494
5.66237
0.0241799
0.0383242
0.0226038
1.43077
0.0256027
0.0255857
0.0238866
0.0480126
0.0234197
0.0657848
0.0238938
0.0239414
0.0233088
0.0285771
0.104749
5.28292
0.0240519
2.46746
5.93826
0.036855
0.0313903
0.323482
2.97803
0.0646822
1.59085
0.357893
0.0230508
0.023295
0.0357615
0.0244237
0.0244719
0.0562604
0.0478659
2.71399
0.024291
2.41006
0.0246658
0.0815784
2.70392
0.0345558
0.0232598
0.150318
0.0268867
0.0250864
3.03751
0.0269028
0.0251353
0.0240272
2.4829
0.0225985
1.99765
0.0245139
0.0563807
0.0402265
0.0439791
3.50253
0.0260292
3.00437
0.0469273
0.0226098
0.151323
0.025115
0.0476187
0.0225939
0.0294303
0.873613
2.56042
0.0225934
0.183011
5.64209
0.0226064
1.16249
0.0284085
0.0271278
2.88413
3.12744
0.0232069
0.0410074
0.106779
0.167357
0.0296059
0.0247529
0.0292832
0.0237271
0.947162
0.0232196
0.0263248
0.0226069
0.0260325
0.0270721
0.0279658
0.48285
0.709301
0.0248136
0.054367
0.024905
2.24473
0.0255879
0.0253781
0.0992152
0.0243809
0.0236469
0.0249709
0.0222041
0.0244496
0.0286247
0.0252482
0.022717
0.0252468
0.0244598
4.2617
0.0242613
0.024162
0.0242947
0.025363
3.37232
0.0228599
0.0240335
0.164507
1.29153
0.0228533
0.157105
0.0249288
0.891267
0.051236
5.49901
0.0295041
0.0246946
1.53959
0.0245677
0.114547
0.0244288
0.051837
0.0239796
0.0600341
0.053429
0.0243037
1.04784
0.0260079
5.95025
0.0713913
0.0236986
0.0254545
0.0228725
0.0294794
0.0249407
0.736898
2.38493
0.0223828
0.0254368
0.0253695
0.0240676
0.0244957
0.0285135
0.0232814
0.0631853
1.51981
0.0244175
0.023797
0.0271426
0.0229268
0.025257
0.0232677
3.15864
0.0262996
1.34221
5.49609
0.0770026
0.0246278
0.0247561
1.93385
0.0264296
0.0249547
2.22884
7.24946
0.0254549
0.0298411
0.0243462
0.0258744
0.0292767
0.0414998
0.0237885
2.07377
2.82795
0.0470049
0.0243862
2.10772
6.78312
0.0283655
0.0269819
0.0244876
0.0245486
0.0226096
0.0244206
0.0244835
0.181571
0.0249585
0.0246839
0.0289258
0.0240446
2.38194
0.0241556
0.0236421
0.0226225
0.0251948
0.032892
0.0508896
0.0243283
0.0248341
0.106845
0.0228864
0.0247998
0.0239745
0.0259654
0.997564
1.13527
0.0238726
0.0246697
4.67792
0.0504963
0.0234248
0.0222163
0.0226035
0.0241533
0.0361506
0.0243331
0.0236609
0.0240433
0.0250728
0.966071
0.0556005
0.0245788
0.0453231
0.660706
0.0271706
0.123689
0.0544739
1.72775
0.154518
0.171862
0.0259987
2.81481
0.764981
0.0811603
2.68607
0.179671
0.0258718
0.171484
0.0261397
2.80263
2.98654
2.06653
2.3926
0.0225902
0.978597
0.0248327
0.0226686
0.0423202
5.37987
0.0286514
0.0413847
0.0245304
0.0226417
0.0263059
0.0248302
0.0263915
0.0226436
0.336146
0.0476566
0.034864
0.023937
0.0232544
0.0365174
0.0239939
0.0367413
0.0248527
0.0243397
0.0226552
0.0249255
0.0250745
0.02468
0.0240886
0.0225989
0.0649218
0.0240906
0.0554188
1.81598
1.55896
0.0316818
0.133508
0.0232404
3.00305
0.0276987
1.13041
0.0231976
0.0226048
0.0244325
0.0308283
0.0245052
0.0248638
2.59323
0.143535
3.01492
3.01008
0.182639
0.662303
0.0244954
0.02496
0.453715
1.68573
0.0243393
0.0244601
0.0236131
0.328508
0.0249469
2.62858
17.3068
3.13766
2.89954
0.0311305
0.0296518
18.0988
1.9615
0.731886
0.0244809
7.95627
0.0244736
0.329994
0.0226132
0.0243765
0.0244367
0.0228499
3.0062
0.0236533
0.0513424
0.0748239
1.33631
0.0244484
0.0297064
0.035396
2.3903
2.51414
0.0328922
0.0957012
2.33871
0.0226144
0.0226247
0.0310988
0.0273411
0.0769979
0.0843528
0.0248147
0.0483629
1.45532
0.0231668
0.0236226
1.29007
5.39717
0.0329994
0.0243499
0.0269574
2.28211
0.0248429
0.0325411
0.0228458
0.0523689
0.0263038
3.28507
2.05371
0.02468
0.0286779
0.0243754
0.128096
0.0266129
0.0365979
0.0253304
0.0243861
2.97568
0.043293
0.0469303
0.0254698
0.0260126
0.0274577
1.41925
0.071075
0.0444898
0.08338
1.89767
0.553489
0.0263624
0.112881
6.38426
0.0226373
0.0251344
0.0503141
2.56924
0.0231862
0.0236703
1.28242
0.0824046
0.0241088
0.0351018
0.0245079
0.0500598
0.680183
0.0226702
2.27202
0.518128
0.0240067
0.0247456
0.023683
0.0229951
0.023213
0.0273183
5.3742
0.0232272
0.0251938
0.0738935
1.7967
0.0221903
0.0440623
0.0232967
0.0229948
0.0239599
0.0240367
0.0242733
0.0282185
0.0254495
5.05056
4.60751
0.0501322
3.14209
0.617461
0.0292566
0.024176
0.379407
0.0226808
0.0233323
0.0286991
1.97785
0.459682
2.33771
1.12165
3.02868
0.0241347
6.61732
0.034339
1.16051
2.98582
0.0242576
0.0251339
0.02908
0.0237274
0.024927
0.0285505
2.97739
0.0242677
0.0332043
0.0229102
3.15783
0.0240848
2.81978
0.0242633
0.0215283
2.75917
0.0584597
0.0256428
0.0270135
0.0234228
0.125545
0.115567
0.0233018
0.024272
0.0236003
0.0469995
0.0741035
0.0774032
2.29379
0.0265343
0.0281908
0.0246735
0.0246121
0.0342866
0.0244893
0.0236994
0.0235649
0.0246846
0.0241025
0.0247334
1.15415
0.0248202
0.0241213
1.59092
0.0873173
0.0249546
0.0591263
0.592743
0.025693
0.0256564
2.8678
0.0254706
1.74465
0.70058
0.0243367
0.0283732
3.12019
0.0242404
0.0281163
0.100114
0.0706993
0.0240224
2.11954
6.88821
0.0270645
0.0261595
0.0631121
0.0869215
0.0221354
0.0240317
0.0244343
0.0264739
2.92796
1.42027
1.52341
2.29681
2.86365
0.0282926
0.0273846
0.397736
0.0222713
0.0330763
0.0459724
0.0302123
0.0229274
0.0463264
0.023479
0.0247654
1.84617
1.80399
0.0500768
1.12853
0.0254173
0.0263107
0.161871
1.84325
0.0836267
2.44015
0.0254888
0.171993
2.26705
0.0424269
0.0272874
0.282573
0.0303047
0.131301
0.0245674
0.0427523
0.0297058
0.0580913
0.024665
0.0784421
0.0270891
0.0239901
0.0248328
1.3022
1.00619
0.0283671
0.0436039
0.838211
2.91695
0.0226621
0.0287626
0.0329418
0.159671
0.0248356
0.0233625
0.0249622
0.025267
1.662
0.0269078
0.161831
0.0242105
0.0249484
2.08807
0.0244528
0.0246984
0.0430845
0.0278588
0.0246652
0.0244688
0.0257967
0.0433252
0.0349189
0.0299178
0.0452597
0.0251852
0.02451
0.0247983
0.0245661
0.544772
0.0261346
2.86731
0.0260954
0.0242625
0.0465047
0.0247431
0.0268725
0.0257977
0.0244014
0.0246245
0.0246735
2.73179
0.0242698
0.0350877
0.0246943
2.89293
1.72997
2.29361
0.0247805
2.52168
0.0247643
0.03587
0.0245063
0.0242734
1.77947
0.042713
0.0247762
0.0537152
3.60975
0.0272021
2.43858
0.0268728
1.32625
0.634285
0.0246976
0.0244649
0.0247103
0.0485207
0.023813
0.0236598
0.0242852
1.22767
0.182448
0.108005
0.0253876
0.0244618
0.953164
2.74168
1.43829
0.900544
1.10043
0.0238313
1.65829
0.0254833
0.0361063
1.0635
0.0231408
0.0247074
0.0267474
0.628176
0.174794
2.9291
0.0240404
0.0265409
0.0251663
0.0747853
2.73107
0.0288224
0.0501509
0.0256268
0.0329235
0.029281
0.0232007
2.86479
2.50337
0.0264882
0.0267448
0.0269968
0.162466
2.61536
0.0271974
0.0239367
0.0245486
0.0239723
0.0245055
2.95992
0.0828574
0.0239145
0.0442876
0.0245503
0.0241288
0.0251005
0.0241507
0.024553
4.45912
0.0427866
0.0422163
0.0239289
0.0659633
0.0229687
0.0239816
0.0237395
0.0236514
0.022857
0.0248513
2.89131
0.023656
0.695834
1.39293
0.0726092
0.0373034
0.0245877
1.84797
0.958507
0.0248643
6.65356
0.0264902
0.262551
0.0238223
0.138828
0.0433408
0.0240288
0.025983
0.0257512
0.173149
0.0243696
0.0243593
0.0239297
0.0561108
0.0249532
0.0241181
0.0555287
0.0289201
0.0232862
0.024545
0.284073
0.0243859
2.49649
0.0265747
0.0329917
0.0755111
2.35718
1.5112
0.024967
0.024653
0.0246675
0.0250039
2.57662
3.38583
0.0269724
0.0236842
0.9722
0.025835
0.0252546
0.0228611
0.0379335
0.025048
0.115746
2.69947
0.0254943
0.166219
1.70044
0.0536038
0.0723814
0.084844
1.7743
0.324932
0.0267416
0.578613
0.0257499
0.0406788
1.32495
0.0281154
0.02468
0.0249563
1.42937
0.806431
1.12499
0.026506
0.0243105
0.192919
0.0261299
5.75701
0.0229564
2.8714
0.104231
0.0240376
0.0239694
2.01328
0.0285027
0.321516
0.0266605
0.0282129
0.0268005
0.148479
0.0244324
0.0288914
2.69076
4.8662
1.8196
2.15216
0.0239973
0.316652
0.0241022
0.0273401
0.0256141
0.412759
0.0227231
0.0414721
0.0244936
0.0248313
0.0578368
3.26213
2.50083
0.0270561
0.0657871
6.70795
0.0238872
0.0245499
0.0243431
0.0250309
0.154042
0.0249818
0.0245316
2.02277
0.024648
2.70468
3.05337
0.0550929
0.0230968
0.0225081
0.0348325
0.197292
0.029003
0.0236591
0.0236409
0.0230759
0.0481542
6.58635
0.154646
0.0244077
0.0359056
0.0239393
0.138109
2.38188
0.0564529
0.0246756
0.0471176
0.0336024
0.0238297
0.0263961
0.0767022
0.0247711
3.15997
0.107117
0.0232992
0.692185
0.0518043
0.0248348
0.0241657
0.0234319
0.0245538
0.0255839
0.022919
0.0246554
0.0239982
0.0280362
0.0245412
0.0250767
0.0243459
1.69365
0.0260601
0.0233376
0.326321
0.157042
2.6408
0.0233246
0.0240837
0.0249111
0.023196
0.0231231
0.024708
0.0805315
0.0951805
0.0253545
0.024337
0.0244492
0.0264629
0.0445155
0.0251579
0.0233105
0.116065
0.0248348
0.0242986
0.153173
3.1113
2.94246
0.0312871
0.0243713
0.0311637
2.8107
0.0239543
0.0246985
0.0278618
0.0245631
3.47579
0.0255766
0.0245608
0.023309
0.0242902
0.733475
0.0240128
0.0232062
0.866716
0.0480354
2.63017
0.0230198
3.84069
0.0232874
0.0284492
0.0242602
2.68756
0.0234465
0.0298817
0.0297049
0.030368
0.028345
0.0459082
0.0249454
3.15094
0.0288541
0.157702
0.0248263
0.0283976
2.45965
0.0291467
0.0504012
0.0239248
0.0239216
0.0256654
0.0324357
0.0360302
2.95036
2.84334
0.0240252
0.0230549
0.650633
0.0244137
0.145127
2.62473
1.90497
0.31669
1.23942
2.12987
0.0230156
0.685613
0.0336116
0.844562
0.0322533
0.0774707
1.38945
0.0249872
0.0231748
0.0238992
0.024402
0.318163
1.69301
0.0331954
0.177112
0.0221736
0.0237118
0.0268839
0.273774
0.0241866
0.027608
0.0239031
0.0243491
0.032082
3.93137
8.82112
0.024299
0.0728044
0.0239322
0.0246347
0.0507473
0.0271898
0.0285087
1.48561
0.0224548
1.68584
0.0237923
0.0233969
0.0259571
0.0232487
2.81122
2.46112
0.0334002
0.0251539
0.0227772
0.0253143
0.0225173
0.0249919
0.0274226
0.0300855
0.131314
0.16115
0.0458581
0.0463188
0.0339485
2.09832
0.127692
0.03006
0.024933
0.0306502
0.0410201
1.28022
0.0279803
0.0291916
0.0234056
0.026103
0.0793671
0.0240642
0.110234
0.0247046
0.0225541
0.040354
2.36496
0.0247134
0.0253444
3.53348
0.0927298
0.159663
0.0307564
0.093084
0.302389
0.027094
0.024353
2.65695
0.0526246
0.023734
0.296273
0.0223269
2.70736
0.0299562
0.0285758
0.0255557
0.0230121
0.654569
0.026331
0.056176
2.6455
0.0471617
1.78632
0.0590051
1.34647
13.4743
0.0244918
0.0244409
0.0243985
3.08557
2.8389
3.15165
3.00608
2.54545
3.31438
0.0244176
0.0248792
0.0239034
3.96425
5.36977
0.0273383
2.12127
0.0239385
3.66152
0.0246499
0.0251687
2.90802
0.0268548
0.0247906
0.156883
0.0280528
0.0263992
0.0252367
0.0265156
0.0618317
1.75933
0.024424
0.023849
0.102237
0.874827
1.41424
0.0242789
0.0251599
0.0510299
0.0234315
0.0385728
1.88459
0.0321804
0.0287178
0.0334487
0.0231517
2.89798
0.0234491
0.0475715
0.0246236
0.0261725
1.99995
0.100073
0.0245494
0.0239741
0.0244053
0.0275698
0.0461398
0.022122
0.024281
0.0264938
0.0328121
0.0287439
0.0249275
0.0256705
0.18424
0.0231669
2.34338
0.0753679
0.0269368
0.0235842
0.0431698
0.0641326
0.0323266
12.5821
1.08465
0.0882003
3.06445
0.024646
1.56608
0.0245678
0.336534
0.0237701
0.446343
0.0236421
2.75893
0.732301
0.0597149
0.0242525
3.36842
1.55581
5.19652
0.0246824
0.0657097
0.0362073
2.41352
0.0447995
3.41865
0.0245078
0.0245469
0.0338781
0.119078
2.12631
0.0317618
0.026583
0.590691
0.0446858
0.0267274
0.0267383
0.0240256
2.42929
0.02489
0.0238126
0.0248011
0.44783
0.129041
0.0230508
1.5484
2.77925
0.0236717
0.0237496
0.0266841
0.0242948
2.01743
0.0242838
0.155049
2.13085
0.024043
0.029095
1.93108
0.0498273
0.0245278
0.0242404
6.53205
0.0233797
0.0237659
0.0590719
3.16701
0.0258579
1.86297
0.0248982
3.28568
0.0269924
0.164296
0.0237999
0.0243916
3.10341
0.0350068
0.0244873
3.70647
0.184332
2.45987
0.572862
1.55644
0.282976
0.0266821
0.0268532
0.0238118
0.0241891
0.0234647
1.5216
1.9289
0.589953
0.0245827
0.152036
0.0955217
0.0249178
0.0243913
0.0241997
0.0424158
2.39472
0.0252116
2.19632
0.0314635
0.0247444
0.0237017
0.0458686
2.13012
0.0304763
0.0259028
5.1202
0.61279
0.0854991
0.0318346
0.026484
0.0243048
6.60079
0.0246711
1.79287
0.0234267
0.0241644
2.66918
0.0230864
0.0418405
0.0712406
0.369591
0.0239036
0.0234399
2.30456
0.0249154
0.024269
0.0246212
0.0353557
0.0269069
1.28981
0.0245681
0.0237462
0.0399891
0.884018
0.0246292
2.1993
0.0245637
0.0266807
0.0346494
1.49006
0.0243541
0.0239025
0.0260817
0.0243005
0.0411719
0.0364544
0.0237276
0.0244674
2.7413
2.04496
0.0238948
0.0237924
0.0220609
3.30667
0.0262293
0.0262056
2.14877
0.0977714
0.0243923
0.632437
0.0287888
0.024984
0.0272701
0.0247447
0.0236102
0.0242292
0.0239353
0.0231333
0.0245367
0.0237917
0.0261046
0.0235539
0.0247056
0.0205627
0.0611414
0.0516169
0.0245355
2.24586
0.0246555
0.029149
0.0249155
0.0245138
0.0461385
0.0684508
0.0243122
0.023218
0.0262204
0.040128
0.0246559
0.536312
2.23381
3.15679
0.789727
0.0230839
3.52722
2.11629
0.131808
0.0452035
1.91781
0.0265165
0.0249888
0.149361
0.0249025
0.0251118
0.0243479
0.0314693
0.0243338
0.0236129
2.19352
0.0447865
0.0432337
0.0237491
0.050873
0.0255215
0.0244157
0.0243821
0.0234504
0.0248506
0.0246252
0.0247214
0.0494179
3.11336
0.023369
2.23617
3.91992
0.0245128
0.0242081
0.147809
1.45793
0.0242876
0.0244798
2.42173
0.0244288
0.0244228
0.0756135
0.0231316
0.0245365
0.0244374
0.024767
1.09228
3.02959
0.0250002
0.0242205
0.02442
0.0239388
0.0225769
0.0240548
0.024383
0.0250032
2.4154
1.74988
0.0247665
0.0447374
0.488562
0.0255801
0.158349
0.0290218
0.0247748
0.023946
0.0237621
0.0232952
0.0255836
0.294693
0.024496
0.0687111
5.50788
1.75453
2.98289
0.0243572
0.0289449
0.0278029
0.0863182
0.0290445
0.0259667
0.0267867
0.167339
0.0247344
0.0262733
0.0957966
0.780053
0.0466387
0.0271856
0.0242006
2.48375
2.90497
3.51427
0.0245184
0.0240311
0.0234343
21.5997
1.53829
0.0224774
0.0363682
0.109586
0.842744
0.0348082
0.0256876
0.0883834
0.0237306
0.023259
0.0246503
0.0269056
1.98314
0.0234246
0.0289085
0.0240206
0.131064
5.12493
0.0682796
2.3873
0.579676
2.00516
1.84486
0.0254918
0.0352998
0.0245
3.0707
0.0243451
0.39247
0.0293573
0.622854
0.0543242
0.581782
0.715824
0.0305291
0.0240024
2.09674
2.24631
0.0242485
2.26972
0.0270047
0.0244081
0.0288037
2.74269
0.023972
0.0223605
0.0245233
0.0245181
3.0442
0.0410603
0.0243464
0.0261881
0.030072
0.190583
0.0320713
0.0739297
1.08948
0.0749402
0.0445909
0.170599
2.08298
0.0337865
1.60954
0.373582
1.91036
0.0931647
0.313578
0.0239186
0.0477615
0.0238761
2.57489
2.6516
0.0246329
0.0270791
0.0516174
2.74374
0.0471565
1.78815
0.0255143
0.0226231
0.0239089
2.97189
0.0267636
0.0445905
2.39715
0.0230631
0.0231244
0.0259779
3.63644
2.63491
0.0243571
0.0236246
0.0240007
2.1792
0.0236292
4.63702
1.955
0.0230971
0.0262288
0.0285508
0.0230857
0.0482447
0.0245527
0.261546
0.109564
0.0247411
0.0235405
0.0228114
2.26849
0.0259277
0.0546836
3.11241
1.99293
0.026141
2.87819
0.994485
1.65875
0.113419
0.0265118
0.0244753
2.11894
0.0425618
0.0245149
0.021565
2.39802
0.0440731
0.0245613
0.0508949
0.0226717
0.0244853
0.0251334
0.0231127
2.6139
0.065148
0.0448788
0.0565308
0.0908662
0.0275629
0.02554
1.20524
2.70247
7.56945
3.97591
0.0251264
0.0248497
1.29786
0.0228886
8.88689
0.0247158
0.0233906
0.0451673
0.0618435
0.0437021
0.0650175
5.31377
0.0227785
0.0443524
0.0433015
0.618785
5.11355
2.08323
1.59211
0.02406
1.55017
0.0300595
0.0249155
0.218859
0.0230566
0.0266607
1.93531
0.028637
0.0324904
0.3812
3.67226
0.571817
0.0605216
2.11956
0.168155
0.0254463
0.0239182
2.43883
0.0257365
1.87675
2.16071
4.22842
0.0242604
0.0244829
0.0230324
0.0704376
0.0221826
0.0244058
0.0232287
2.30819
0.0256544
0.0245395
1.50072
0.0237766
12.7463
0.041095
0.0287418
1.41641
4.21897
0.0732386
0.155749
0.0291542
0.09441
1.62756
0.0242553
2.24235
0.051935
0.0245216
2.99179
0.0293294
2.78276
0.0239555
0.0246529
0.0231689
0.0241514
0.877737
0.0243973
0.0242554
0.161307
0.0242733
0.023977
0.585946
1.53342
3.76579
0.0245054
0.0242238
2.83323
0.0229662
0.0824805
0.0242491
1.77442
0.0736948
2.46144
0.113979
0.0474495
0.0239912
0.0238763
0.165048
0.0549324
1.09098
0.0816564
0.0810017
0.203271
0.0240629
2.14402
0.161755
2.48102
0.467221
0.0341098
2.71757
0.111058
0.887429
0.0525203
0.024837
1.13571
4.11178
0.0512711
0.0260392
1.24327
0.0237006
2.62029
0.023931
2.28781
0.0230329
1.06812
0.0285839
0.0235596
0.0235095
2.57541
6.94217
1.91474
0.0242643
0.0242477
0.04995
0.0243671
0.0246123
0.0272228
2.68428
0.0497829
0.02314
0.0244408
2.29338
0.025819
0.109945
0.0244376
0.0248247
2.73513
1.65185
2.48004
0.023655
2.34403
0.0240252
0.0489376
0.0243443
0.0270685
0.129144
0.0242287
2.78786
0.0257888
0.62551
0.169755
0.0245774
0.0243334
0.0285413
0.0278559
2.38731
1.56704
0.0289321
0.250349
0.023148
2.84768
1.31735
0.0245628
0.128949
0.0227602
0.524277
0.112497
2.8103
0.0248499
2.44992
0.0276665
0.024236
0.0247592
0.0783742
0.024644
0.0244559
2.57757
0.0296628
3.73021
2.58875
0.0287096
0.0235003
0.0278309
2.64717
2.5056
0.0247204
0.0527274
0.15891
0.0248028
0.162799
0.0245562
0.0746488
0.0268487
0.0256076
0.0431582
0.499673
0.033971
0.0247317
0.835864
0.0938309
0.0252764
0.024678
0.0251592
0.023934
2.75904
0.0246236
0.0269506
3.25372
0.0265732
1.36332
0.0235385
0.353427
0.0250555
1.31665
0.0423131
0.0287603
0.10438
0.0221461
0.0221279
1.85549
0.0254122
1.10549
0.0231572
0.0635766
0.0462899
0.0244066
0.0980589
0.0330056
5.88852
0.0285711
2.3781
0.127021
0.0236306
0.0245698
2.12963
0.0879021
0.0221773
0.024583
0.0324428
0.0253392
2.90577
0.0243337
0.467966
0.0244885
1.69844
0.190922
0.0604155
0.0476973
0.0248783
2.75766
0.0237504
0.714592
0.0594369
2.00776
0.063451
2.73147
0.0243798
0.0245402
0.107252
0.549908
0.0242745
2.74713
0.0235716
0.173929
0.0517439
2.73304
0.0247766
0.0335058
0.0596051
0.0294682
0.0483374
0.0238123
0.0247696
0.0621093
0.0732695
0.0862465
0.024804
3.2694
2.25482
3.27786
0.0252569
2.7862
0.187546
0.16641
0.0236543
0.0247401
0.024841
0.0283271
2.59651
0.02688
2.77624
0.0246642
2.42654
0.110716
0.0247803
0.104249
0.0248836
2.70132
0.725526
11.9704
0.0340513
0.0251894
0.0285012
0.165351
0.0454865
0.0228818
1.7618
3.45458
0.0249909
3.15893
0.180187
0.204236
1.09019
0.0247026
0.941152
3.07017
0.0253984
0.0453694
0.0347781
2.91455
5.14482
3.88879
2.57152
0.0282555
0.0393823
3.01818
0.0245463
0.0253507
0.0330983
3.43132
0.0252467
3.70134
0.0249758
1.88827
0.0239781
0.0967748
0.0259376
0.0237804
0.0246854
0.0259709
2.84754
0.0294971
2.71702
0.167696
0.0248223
0.0248316
0.101216
0.163401
0.02465
2.72987
0.0415881
0.257467
0.091609
0.0292562
2.60819
0.0257452
0.0316171
0.0246348
0.0560941
0.0473714
0.0247049
0.0557815
0.0261396
0.15846
0.0251885
0.110004
0.119911
0.0288107
0.174972
0.354966
0.0256811
0.0332911
0.0255243
3.17133
0.0252658
2.13895
0.0247065
0.0327022
0.0251995
3.73797
0.0234168
0.0427484
0.023765
0.0226364
2.2475
0.0255345
0.239019
2.5841
0.133354
2.64918
0.0246538
0.0231264
0.0254047
2.06599
0.0242769
0.0249723
0.0257488
0.0262073
0.023894
2.85751
0.0698249
0.0240366
2.68641
0.0254803
0.0277952
2.65479
0.0386125
1.47629
0.0245399
0.0290208
0.0487297
0.026181
2.10404
2.98181
4.86477
0.0243931
1.9086
0.0539148
2.5599
0.025405
0.0695948
0.0547599
0.0247662
0.0231502
0.0247386
0.588018
0.0328023
0.0694111
2.6564
2.8659
0.050624
0.0515344
0.0496171
0.0836279
0.0235117
1.77332
0.200348
0.0590045
1.12832
0.024232
0.0278941
0.0240722
0.146839
0.0293282
0.0278978
0.0350977
0.0252943
0.0705594
0.027579
0.168659
0.0245359
0.0296411
0.024791
2.96917
0.0277633
0.0239754
2.32335
0.0735813
0.0261637
0.024003
0.0248366
0.024363
0.024758
0.108959
3.14744
0.024754
0.0372682
0.045673
0.0247729
0.0248791
3.44624
0.0611043
0.0486152
3.02556
2.67981
0.106173
0.0243934
2.72172
0.0337245
0.0602399
0.156654
0.0325579
0.170769
2.58715
0.0258839
4.60267
0.0740557
0.0694426
0.072745
0.0520345
0.299371
0.0748785
0.443143
8.21059
1.43764
0.391777
0.662463
0.0278379
1.18139
1.43963
0.0268641
0.0529521
0.0276828
0.024452
0.0241622
0.0248228
2.77137
3.09947
0.0252298
2.60967
3.89234
0.0280021
2.97328
0.671268
2.84251
3.03927
0.035107
0.025107
0.0239147
2.92535
0.154013
0.024038
2.86691
3.09996
0.0441478
3.29545
0.0683526
0.0242786
3.08435
0.0248612
3.56582
0.0249059
2.65299
2.08734
0.0343583
2.40937
0.023654
0.0754938
0.0256979
0.0353404
0.159682
0.0247893
0.0248493
0.188905
2.58503
0.217248
0.0235628
0.0279608
0.0360486
0.0499108
0.0251581
0.184939
2.24897
0.0269269
0.025657
0.0460242
1.72076
0.0245251
0.0252381
0.0245357
0.0277162
2.9321
0.032314
0.0591844
0.163092
0.0254284
0.0245251
2.65021
2.18468
0.0248253
4.01157
0.403409
0.0366603
0.226652
0.903369
1.58033
1.84266
0.0319779
2.83519
6.19592
0.169452
0.0267872
2.62672
0.024411
0.0245009
0.176808
0.0329563
0.0456587
0.0981627
0.0258451
0.0238393
0.0247625
0.0247773
0.0246156
0.0422551
0.181466
0.0238402
0.0231327
0.0375541
0.163373
0.0237457
0.0247986
0.0279173
2.73089
0.04376
0.0238663
2.33166
1.61887
0.0325612
1.89695
0.0230429
0.147062
0.0224228
0.437177
0.0989175
0.0323251
1.50768
0.0244285
0.0278665
0.0384398
0.352877
0.0324358
0.0320959
0.0521789
0.0283589
0.02307
0.0255843
0.0245258
0.024686