/*--------------------------------*- C++ -*----------------------------------*\
| =========                 |                                                 |
| \\      /  F ield         | OpenFOAM: The Open Source CFD Toolbox           |
|  \\    /   O peration     | Version:  v2012                                 |
|   \\  /    A nd           | Website:  www.openfoam.com                      |
|    \\/     M anipulation  |                                                 |
\*---------------------------------------------------------------------------*/
FoamFile
{
    version     2.0;
    format      ascii;
    class       volScalarField;
    location    "200";
    object      omega_0;
}
// * * * * * * * * * * * * * * * * * * * * * * * * * * * * * * * * * * * * * //

dimensions      [0 0 -1 0 0 0 0];


internalField   nonuniform List<scalar> 
15335
(
2.84908
0.1778
0.214255
0.0242461
0.0278909
0.0245731
0.0725483
0.0263045
0.0228034
0.0246311
0.0253824
0.0243932
0.0689458
0.0486786
0.0351338
0.0221749
0.158662
0.140775
0.0241747
0.0301464
0.0228177
4.66273
0.0322825
0.0228283
0.186539
3.01175
0.0897014
0.0234209
0.0373864
0.0501435
0.0231359
0.0811165
0.0261119
0.0289725
0.0756958
0.0966309
0.0246217
0.0295471
0.0477834
0.141576
0.0234064
2.34527
0.0227352
0.0495626
0.354397
0.0233677
0.0309308
0.0250366
0.0415709
0.0248625
0.0228437
0.0231337
0.0249546
0.0281911
8.78566
0.339564
0.12025
0.0315736
0.0305766
18.8656
0.171375
0.0223613
0.0249585
0.02569
0.0277556
2.65597
0.356744
0.0244514
0.0370282
0.0226201
0.0265779
0.0320791
0.024874
0.360666
0.0254926
1.69741
0.1701
0.0267694
0.0240069
0.0915067
2.97417
0.0352387
0.0361901
0.0793873
0.0325597
10.1802
0.0257489
0.0873519
0.0245672
0.0273161
5.35143
0.0724868
0.362185
2.10812
0.0297419
0.0793035
0.0227009
2.6647
0.0231258
2.68166
0.0227151
0.0268635
0.150748
0.0221842
0.0244599
0.0226883
14.8318
0.0249916
0.0266774
0.0540486
0.0283957
0.0442077
0.0246241
0.0267016
0.0259576
0.0233387
0.0557298
0.0245345
2.30675
6.51792
0.0266693
0.0753405
2.31861
0.0241753
0.0746233
0.0233843
0.0242889
4.74349
0.0776302
0.0266297
0.0233899
0.075507
0.0248381
2.83332
0.023144
0.350935
0.0247111
0.0226352
0.0517448
0.0282074
0.0252965
2.22733
0.0240936
2.99699
2.47254
0.0256624
1.83278
0.031736
0.0248921
0.0574739
0.0240063
3.57175
0.022164
0.028846
2.27898
0.0245399
0.0813952
0.0249029
0.0232228
0.0321023
0.0239733
0.0279104
0.0248698
0.04552
0.0289961
0.0242062
0.0232181
3.83599
0.0230681
0.0243101
0.0265316
0.024331
0.0253844
0.0245697
0.0298235
0.0284775
2.99197
0.0230825
0.0780863
2.64642
0.0253287
0.0254376
0.0257507
0.0282841
0.0282661
0.129319
0.0813129
0.0252799
0.0249113
12.3821
0.0243418
2.64281
0.0421181
0.0233947
0.0248774
2.41078
0.0253223
0.0224057
0.0602757
0.175248
0.023925
0.0302202
0.0233176
0.0691169
2.67126
0.0271949
0.75783
0.0242509
0.0813576
2.81978
0.162378
0.030108
0.0234164
0.0292409
0.171176
0.0292711
0.0261168
0.0463068
0.0257315
0.0368259
0.0289858
0.0496154
2.36361
0.0780877
0.026875
9.28019
0.067313
0.0251722
0.0690973
0.156651
0.0250495
0.128972
2.58172
0.0325986
0.0249689
0.0262482
0.0240977
1.00996
6.43465
0.0256954
0.0574566
0.0247151
0.0594162
0.0265235
2.83665
0.0293961
0.316293
0.0291627
2.16072
2.14291
0.0286131
0.0229171
0.164169
0.0270683
0.0229096
4.457
0.0253336
0.0263939
2.37539
0.0228964
2.76347
1.88073
5.57379
0.180468
2.79158
7.48019
2.27076
0.0229965
0.172964
0.0252813
0.0991659
0.0221398
2.96826
0.0231701
0.0259119
2.93702
23.3862
0.0282211
0.0248492
2.69854
0.0234192
0.0243233
0.0257091
0.0248668
0.0992269
0.0248688
0.0338244
0.0242501
0.163222
0.029175
0.160901
0.0268598
0.0231973
0.0243625
4.8238
0.0294581
0.0263468
0.0232288
0.0252291
0.0257435
0.0348106
0.0550326
1.05417
0.0256715
1.98464
0.0234301
0.0234323
0.08748
5.71652
0.0680656
22.7898
0.0266219
0.04095
2.95943
0.0233547
0.026908
0.0230604
0.0230639
0.0252953
0.0261458
0.024645
0.0252607
1.19117
2.33214
0.0295969
3.06439
0.13076
0.0230744
0.0230257
0.0230467
0.02337
1.16141
1.41451
0.0302312
0.0468375
0.022674
0.0249829
0.0282997
0.0525657
2.3077
0.0344878
0.0515672
0.0869329
0.0346707
0.0284785
2.60204
0.0576759
2.15884
0.0266998
0.0268953
0.0647329
0.0230702
0.0250011
2.96903
0.762001
0.0268142
0.0260387
0.0230128
0.024524
0.719796
0.0245329
0.0233649
0.029716
0.0245371
0.234407
0.0263572
0.0257671
0.025381
0.0419461
0.0244114
0.0257952
0.0239371
0.0319218
0.024518
0.0230781
0.0233579
0.0224094
0.022136
0.0245987
0.0646773
2.17409
0.0775216
0.0343457
0.0615728
11.5316
0.0366054
0.0234214
2.5355
0.0240112
0.0243741
0.0254133
0.0419164
0.0231437
0.0268568
1.10127
0.0265523
0.0247609
0.0221819
0.0242719
2.52616
0.0354284
0.111126
0.067679
0.0229204
0.0243531
0.0556738
0.0229228
0.0251603
0.109388
0.0247446
0.0229087
0.0246734
0.0251352
0.02629
0.054854
0.0233265
0.0244019
0.0292732
0.0244565
0.0248998
0.0570888
0.023874
0.171847
0.0245919
0.030968
0.224573
0.024174
0.0244269
0.0233738
0.17174
2.76096
0.0321008
0.0266121
0.105046
0.0222839
0.0229165
2.93967
0.0571124
0.0238675
0.0370227
0.0227242
0.0246353
0.0239528
3.41138
0.026853
2.34604
0.0381698
0.0246542
0.029177
0.330119
0.027418
2.95345
0.0241344
18.7069
0.0241608
0.0248245
0.0370743
2.67371
0.0261168
0.0248907
0.0248925
0.0310197
0.0287501
0.0266554
0.0656729
0.347895
0.0285738
0.165658
0.0268357
0.0261391
0.0239874
2.91971
0.0267883
1.67194
0.0244623
0.0237847
0.0243281
0.0265232
5.87321
0.0247214
0.0258891
0.0250214
0.0251558
0.0241142
0.0244373
2.17932
0.0261117
0.0246473
0.0233083
0.024768
0.0256826
0.0244665
0.0242902
0.0227173
2.90046
3.0615
5.02098
0.0347512
0.0368865
0.0782186
0.0287072
3.98531
0.0244498
0.0551585
0.022647
0.0284242
0.0341088
0.0692039
0.0238971
0.0251138
0.0262022
0.0285444
1.78412
0.0915554
0.02899
0.0227498
0.0246839
0.0236611
0.0859153
2.41836
15.6178
20.1921
0.026686
0.0230684
0.639219
0.0241006
1.99993
0.0259236
0.0231859
0.0244863
0.0256549
0.0592822
3.05752
0.0240469
0.0772417
0.0365076
3.14458
0.0317609
0.0228663
0.0264357
0.0395956
0.0599446
0.0243664
5.98403
0.0245723
2.31419
2.80782
0.0252227
0.0610891
0.0389592
0.0454682
0.0242613
0.0226533
0.0231141
5.94032
5.03935
0.0239044
0.0264114
0.0246936
3.6849
0.0379061
0.0244799
0.0355818
0.0244255
0.5297
0.0260671
0.0350577
0.0302232
2.96276
3.29747
2.51989
0.0242502
0.0231418
0.0568963
0.0249392
0.0231325
0.0242839
0.0251262
0.0245671
2.5517
2.27009
6.48671
0.0462944
0.0284853
0.0370837
3.83517
4.35489
2.63141
0.0315005
0.0232102
0.0233973
0.0268674
0.712838
0.0258223
0.023895
3.57381
0.0302924
5.69635
0.0237687
0.162466
0.028812
0.0345558
7.4543
2.43772
0.0297905
0.0233834
0.0488402
0.0248131
2.15585
0.0459073
2.32374
0.350647
0.784883
0.0234009
0.025375
0.0626727
0.0548901
3.50923
0.0260304
0.0229863
0.0242357
0.0246861
0.0244472
0.0266993
0.0754525
0.0233644
0.0228859
0.0221409
0.0244782
0.032838
0.025264
0.0952212
0.0233846
0.0287653
0.0492871
2.62927
0.159253
0.0245528
0.0232258
0.0340104
0.0597513
0.0242989
0.0244721
0.280649
0.0246649
0.0650755
0.0473122
0.0227907
0.0264616
6.10706
1.79019
0.0246341
0.0232398
0.0237401
2.96139
0.0240764
0.633645
0.024673
0.0266486
0.0249408
0.0239445
0.0361479
0.0839791
1.05561
0.0232033
2.32556
0.0253244
0.0248722
0.035096
0.0241237
0.0254425
0.0268583
0.0295435
0.0238926
0.0538771
0.0240432
0.024564
0.0242642
0.0281758
0.0316595
0.0237974
0.359442
0.0267827
0.0228903
3.03358
3.52227
0.0647008
0.0237558
0.026964
0.0242755
0.0485018
0.0534633
0.0241328
0.0300264
0.0244743
6.13984
0.34335
0.0247361
0.0261099
15.2701
0.0246928
2.89932
0.442529
0.0253926
0.0227279
17.4098
0.0278659
0.0369772
0.0340965
0.132912
0.0240666
0.0252047
0.0725608
0.0241561
0.0259844
3.06833
0.0843621
0.177357
0.0287254
0.0243663
0.0228968
0.0239556
0.0246952
0.0248289
0.0353593
0.0335465
0.329825
3.67298
0.0367914
2.03304
3.01619
0.0793704
0.0242736
0.0233242
0.0233502
0.0253805
0.0228596
0.0258705
0.0242624
0.0249211
0.0251217
0.0228989
5.6419
3.13343
0.0242616
0.0816596
0.0246149
2.61795
0.0310488
0.0785899
0.0241048
0.0411127
0.0252281
0.0332138
0.0251852
0.0223373
5.90126
0.0273568
0.0454041
2.03817
0.0272033
2.97875
0.0239618
0.622405
0.0228754
6.82509
0.024616
0.0228883
0.0300848
0.0897233
0.0430172
0.0243574
0.0283235
0.0598783
0.0283012
0.0285066
0.0334263
0.151498
0.0230421
0.107636
0.134701
0.0245146
0.0232778
0.02499
3.11676
0.0287746
0.0240936
0.101678
0.0663258
0.0297948
1.26711
0.329386
0.0244115
0.0474549
0.0248704
2.63989
0.0279052
0.0244434
0.137044
0.028057
0.101933
0.0332414
0.0243356
0.0281445
0.0390788
0.0249321
0.0325267
0.0254887
0.0247963
0.33749
0.0358915
0.034179
0.0571286
0.0308606
0.0248693
0.158504
0.0233368
0.0252321
0.0246731
0.0619724
0.0249679
0.0258569
0.0245559
0.0664089
0.0244853
0.0252542
0.0233227
0.0487645
2.42648
0.0268905
0.177628
0.0238486
0.0240146
0.02306
1.33369
0.0231555
0.0230611
0.0233716
0.0228942
0.0258865
0.0631418
0.0241328
0.0377656
0.023063
0.0244324
0.0240417
0.0221581
2.89226
0.0263765
0.0225484
0.0241449
0.0244308
0.0229624
0.0297947
0.0268477
0.024364
0.0250028
1.83151
0.024264
5.90704
0.0234001
0.0242275
0.0214927
0.0229505
0.0230411
0.485778
2.34947
2.82248
0.024522
0.052296
0.076666
0.047996
0.0262964
0.0242245
0.135233
0.024617
0.0254419
0.0262031
0.0238193
0.0313212
0.0265128
0.0443558
0.0273315
0.0226093
0.0248149
0.0245046
0.0279399
0.0241434
0.102666
0.981384
0.024845
0.0490656
0.0245799
0.0225911
0.022279
0.0275385
3.60424
0.0233394
2.54438
2.10383
0.0240308
0.69397
0.0245114
0.0244628
0.067193
0.025456
0.0439442
0.0240494
5.66241
0.0241799
0.0383242
0.0226038
1.43088
0.0256027
0.0255857
0.0238866
0.0480127
0.0234197
0.0657851
0.0238938
0.0239414
0.0233088
0.0285771
0.104761
5.2829
0.0240519
2.46746
5.9383
0.036855
0.031392
0.323494
2.97804
0.0646822
1.58962
0.357898
0.0230508
0.023295
0.0357615
0.0244237
0.0244719
0.0562604
0.0478659
2.71399
0.0242911
2.41006
0.0246658
0.0815777
2.70392
0.0345559
0.0232598
0.150313
0.0268867
0.0250865
3.03756
0.0269028
0.0251353
0.0240272
2.4829
0.0225985
1.99765
0.0245139
0.0563806
0.0402265
0.0439791
3.50251
0.0260292
3.00438
0.0469272
0.0226098
0.151321
0.025115
0.0476188
0.0225939
0.0294303
0.873468
2.56041
0.0225934
0.183031
5.64205
0.0226064
1.16249
0.0284085
0.0271278
2.88415
3.12744
0.0232069
0.0410115
0.106779
0.167374
0.0296059
0.0247529
0.0292832
0.0237271
0.947167
0.0232196
0.0263248
0.0226069
0.0260325
0.0270721
0.0279658
0.482903
0.709304
0.0248136
0.054367
0.024905
2.24473
0.0255879
0.0253781
0.0992145
0.0243809
0.0236469
0.0249709
0.0222041
0.0244496
0.0286247
0.0252482
0.022717
0.0252468
0.0244598
4.26167
0.0242613
0.024162
0.0242947
0.025363
3.37234
0.0228599
0.0240335
0.164502
1.29133
0.0228533
0.157109
0.0249288
0.891287
0.051236
5.49898
0.0295044
0.0246946
1.53959
0.0245677
0.114547
0.0244288
0.0518371
0.0239796
0.0600338
0.0534288
0.0243037
1.04794
0.0260081
5.95032
0.0713922
0.0236986
0.0254545
0.0228725
0.0294796
0.0249407
0.742029
2.38511
0.0223828
0.0254368
0.0253695
0.0240676
0.0244957
0.0285135
0.0232814
0.0631858
1.5198
0.0244175
0.023797
0.0271426
0.0229268
0.025257
0.0232677
3.15863
0.0262996
1.34153
5.49612
0.077002
0.0246278
0.0247561
1.93389
0.0264296
0.0249547
2.22884
7.24949
0.0254549
0.0298412
0.0243462
0.0258744
0.0292761
0.0414998
0.0237885
2.07357
2.82796
0.0470049
0.0243862
2.10773
6.78322
0.0283655
0.0269819
0.0244876
0.0245486
0.0226096
0.0244206
0.0244835
0.181589
0.0249585
0.0246839
0.0289258
0.0240446
2.38194
0.0241556
0.0236421
0.0226225
0.0251948
0.032892
0.0508896
0.0243283
0.0248341
0.106845
0.0228864
0.0247998
0.0239745
0.0259654
0.997572
1.13527
0.0238726
0.0246697
4.67805
0.0504961
0.0234248
0.0222163
0.0226035
0.0241533
0.0361506
0.0243331
0.0236609
0.0240433
0.0250728
0.96619
0.0556005
0.0245788
0.045323
0.660706
0.0271706
0.123689
0.0544737
1.72776
0.154522
0.171865
0.0259987
2.81483
0.76498
0.0811592
2.68606
0.179704
0.0258718
0.171483
0.0261397
2.80265
2.98654
2.06652
2.39257
0.0225902
0.978609
0.0248327
0.0226686
0.0423202
5.37985
0.0286514
0.0413847
0.0245304
0.0226417
0.0263059
0.0248302
0.0263915
0.0226436
0.336146
0.0476566
0.034864
0.0239369
0.0232544
0.0365174
0.0239939
0.0367414
0.0248527
0.0243397
0.0226552
0.0249255
0.0250745
0.02468
0.0240886
0.0225989
0.064922
0.0240906
0.0554188
1.81598
1.55905
0.03168
0.133512
0.0232404
3.00306
0.0276986
1.13041
0.0231976
0.0226048
0.0244325
0.0308267
0.0245052
0.0248638
2.59324
0.143538
3.01497
3.01008
0.182646
0.662303
0.0244954
0.02496
0.453712
1.68576
0.0243393
0.0244601
0.0236131
0.328531
0.0249469
2.62862
17.3069
3.13765
2.89956
0.0311305
0.0296518
18.0987
1.9615
0.731889
0.0244809
7.95632
0.0244736
0.329992
0.0226132
0.0243765
0.0244367
0.0228499
3.0062
0.0236533
0.0513425
0.0748246
1.33631
0.0244484
0.0297064
0.0353961
2.3903
2.51413
0.0328922
0.0957005
2.33886
0.0226144
0.0226247
0.0310988
0.0273411
0.0769968
0.0843528
0.0248147
0.0483629
1.45539
0.0231668
0.0236226
1.29015
5.39712
0.0329995
0.0243499
0.0269573
2.28211
0.0248429
0.0325419
0.0228458
0.0523689
0.0263038
3.28507
2.05372
0.02468
0.0286779
0.0243754
0.1281
0.0266129
0.0365979
0.0253304
0.0243861
2.97568
0.0432931
0.0469304
0.0254698
0.0260126
0.0274576
1.41928
0.0710765
0.0444898
0.0833889
1.89737
0.553502
0.0263624
0.112878
6.3842
0.0226373
0.0251344
0.0503143
2.56921
0.0231862
0.0236703
1.2825
0.0824046
0.0241088
0.0351018
0.0245079
0.0500599
0.680073
0.0226702
2.27202
0.518105
0.0240067
0.0247456
0.023683
0.0229951
0.023213
0.0273183
5.37415
0.0232272
0.0251938
0.0738931
1.79665
0.0221903
0.0440661
0.0232967
0.0229948
0.0239599
0.0240367
0.0242733
0.0282185
0.0254495
5.05045
4.60751
0.0501323
3.14208
0.617484
0.0292566
0.024176
0.379443
0.0226808
0.0233323
0.0286991
1.97783
0.459696
2.33769
1.12165
3.02867
0.0241347
6.61733
0.034339
1.1606
2.98583
0.0242576
0.0251339
0.02908
0.0237274
0.024927
0.0285505
2.9774
0.0242677
0.0332043
0.0229102
3.15786
0.0240848
2.8198
0.0242633
0.0215271
2.75918
0.0584596
0.0256428
0.0270135
0.0234229
0.125558
0.115565
0.0233018
0.024272
0.0235992
0.0469996
0.0741017
0.0774033
2.29379
0.0265343
0.0281908
0.0246735
0.0246121
0.0342866
0.0244893
0.0236994
0.0235649
0.0246846
0.0241025
0.0247334
1.15414
0.0248202
0.0241213
1.5909
0.0872934
0.0249546
0.0591265
0.592738
0.025693
0.0256564
2.86782
0.0254706
1.74472
0.700584
0.0243367
0.0283732
3.12021
0.0242404
0.0281163
0.100114
0.070699
0.0240224
2.11954
6.88819
0.0270645
0.0261595
0.0631123
0.0868978
0.0221354
0.0240317
0.0244343
0.0264739
2.92797
1.42027
1.52341
2.29681
2.86365
0.0282926
0.0273846
0.397763
0.0222713
0.0330763
0.0459724
0.0302123
0.0229274
0.0463265
0.023479
0.0247654
1.84622
1.80399
0.0500767
1.12851
0.0254173
0.0263107
0.161897
1.84325
0.0836306
2.44014
0.0254888
0.171998
2.26705
0.0424269
0.0272874
0.282618
0.0303047
0.131312
0.0245674
0.0427523
0.0297059
0.0580915
0.024665
0.0784428
0.0270891
0.0239901
0.0248328
1.30232
1.0059
0.0283671
0.0436039
0.838209
2.91696
0.0226621
0.0287626
0.0329418
0.159654
0.0248356
0.0233625
0.0249622
0.025267
1.66198
0.0269078
0.161805
0.0242105
0.0249484
2.08806
0.0244528
0.0246984
0.0430845
0.0278588
0.0246652
0.0244688
0.0257967
0.0433252
0.0349225
0.0299178
0.0452597
0.0251852
0.02451
0.0247983
0.0245661
0.544776
0.0261346
2.86733
0.0260954
0.0242625
0.0465047
0.0247431
0.0268725
0.0257977
0.0244014
0.0246245
0.0246735
2.73179
0.0242698
0.0350877
0.0246943
2.89294
1.72999
2.2936
0.0247805
2.5219
0.0247643
0.03587
0.0245063
0.0242734
1.77946
0.0427131
0.0247762
0.0537152
3.60973
0.0272021
2.43858
0.0268728
1.32624
0.634284
0.0246976
0.0244649
0.0247103
0.0485208
0.023813
0.0236598
0.0242852
1.22767
0.182424
0.10801
0.0253876
0.0244618
0.953288
2.74168
1.43829
0.900551
1.10043
0.0238313
1.65837
0.0254833
0.0361063
1.06338
0.0231408
0.0247074
0.0267475
0.628176
0.17479
2.9291
0.0240404
0.0265409
0.0251663
0.0747841
2.73107
0.0288224
0.0501508
0.0256268
0.0329235
0.029281
0.0232008
2.86481
2.50337
0.0264882
0.0267448
0.0269968
0.162445
2.61535
0.0271975
0.0239367
0.0245486
0.0239723
0.0245055
2.95994
0.0828577
0.0239145
0.0442876
0.0245503
0.0241288
0.0251005
0.0241507
0.024553
4.45908
0.0427866
0.0422164
0.0239289
0.0659637
0.0229687
0.0239816
0.0237395
0.0236514
0.0228571
0.0248513
2.89133
0.023656
0.695836
1.39293
0.0726088
0.0373034
0.0245877
1.84797
0.958507
0.0248643
6.65353
0.0264902
0.26253
0.0238223
0.138851
0.0433408
0.0240288
0.0259832
0.0257512
0.17321
0.0243696
0.0243593
0.0239297
0.0561108
0.0249532
0.0241181
0.0555288
0.0289201
0.0232862
0.024545
0.284058
0.0243859
2.49649
0.0265747
0.0329927
0.0755113
2.35718
1.51109
0.024967
0.024653
0.0246675
0.0250039
2.57661
3.38584
0.0269724
0.0236842
0.97231
0.025835
0.0252546
0.0228611
0.0379373
0.025048
0.115746
2.69947
0.0254943
0.166216
1.70044
0.0536039
0.0723814
0.084844
1.77429
0.324934
0.0267416
0.578612
0.0257499
0.0406789
1.32499
0.0281154
0.02468
0.0249563
1.42967
0.806431
1.12499
0.026506
0.0243105
0.19293
0.0261299
5.75697
0.0229564
2.87142
0.104232
0.0240376
0.0239694
2.01326
0.0285027
0.321514
0.0266605
0.0282129
0.0268005
0.148478
0.0244324
0.0288914
2.69074
4.86617
1.8196
2.15216
0.0239973
0.316647
0.0241022
0.0273401
0.0256141
0.412818
0.0227231
0.0414721
0.0244936
0.0248313
0.0578367
3.26212
2.50082
0.0270561
0.065788
6.708
0.0238872
0.0245499
0.0243431
0.0250309
0.154027
0.0249818
0.0245316
2.02277
0.024648
2.70468
3.05339
0.0550929
0.0230968
0.0225081
0.0348325
0.197304
0.0290031
0.0236591
0.0236409
0.0230759
0.0481542
6.5863
0.154644
0.0244077
0.0359062
0.0239393
0.138095
2.38187
0.0564528
0.0246756
0.0471175
0.0336038
0.0238297
0.0263962
0.0767012
0.0247711
3.15996
0.107119
0.0232992
0.692292
0.0518045
0.0248348
0.0241657
0.0234319
0.0245538
0.0255839
0.022919
0.0246554
0.0239982
0.0280362
0.0245412
0.0250767
0.0243459
1.69366
0.0260601
0.0233376
0.326323
0.157038
2.6408
0.0233246
0.0240837
0.0249111
0.0231959
0.0231231
0.024708
0.0805311
0.0951783
0.0253545
0.024337
0.0244492
0.0264629
0.0445155
0.0251579
0.0233105
0.116065
0.0248348
0.0242986
0.153159
3.11128
2.94247
0.0312871
0.0243713
0.0311637
2.81071
0.0239543
0.0246985
0.0278618
0.0245631
3.47578
0.0255766
0.0245608
0.023309
0.0242902
0.733478
0.0240128
0.0232062
0.866715
0.0480313
2.63016
0.0230198
3.84068
0.0232874
0.0284492
0.0242602
2.68756
0.0234465
0.0298817
0.029705
0.030368
0.028345
0.0459082
0.0249454
3.15093
0.0288541
0.157687
0.0248263
0.0283976
2.45967
0.0291467
0.0504012
0.0239248
0.0239216
0.0256654
0.0324357
0.0360302
2.95037
2.84336
0.0240252
0.0230549
0.650635
0.0244137
0.145124
2.62472
1.90497
0.316694
1.23919
2.12987
0.0230156
0.68559
0.0336116
0.844649
0.0322534
0.0774708
1.38939
0.0249872
0.0231748
0.0238992
0.024402
0.318168
1.69301
0.0331954
0.177119
0.0221736
0.0237118
0.0268832
0.273738
0.0241866
0.027608
0.0239031
0.0243491
0.032082
3.93139
8.82113
0.024299
0.0728042
0.0239322
0.0246347
0.0507472
0.0271898
0.0285087
1.48492
0.0224548
1.68587
0.0237923
0.0233969
0.0259571
0.0232487
2.81124
2.46112
0.0334002
0.0251539
0.0227772
0.0253143
0.0225173
0.0249919
0.0274226
0.0300855
0.131307
0.161156
0.0458582
0.0463189
0.0339485
2.09832
0.127697
0.03006
0.024933
0.0306502
0.04102
1.28022
0.0279803
0.029192
0.0234056
0.026103
0.0793671
0.0240642
0.110234
0.0247046
0.0225541
0.040354
2.36496
0.0247134
0.0253444
3.53349
0.0927279
0.159657
0.0307564
0.093082
0.302392
0.027094
0.024353
2.65696
0.0526246
0.0237341
0.296276
0.0223269
2.70736
0.0299562
0.0285757
0.0255557
0.0230121
0.6545
0.026331
0.056176
2.64552
0.0471617
1.78636
0.059005
1.34647
13.4742
0.0244918
0.0244409
0.0243985
3.08557
2.83891
3.15164
3.00607
2.54544
3.31436
0.0244176
0.0248792
0.0239034
3.96424
5.36988
0.0273383
2.12127
0.0239385
3.6615
0.0246499
0.0251687
2.90803
0.0268547
0.0247906
0.156888
0.0280528
0.0263992
0.0252367
0.0265156
0.0618314
1.75934
0.024424
0.023849
0.102235
0.874826
1.41419
0.0242789
0.0251599
0.0510298
0.0234315
0.0385728
1.88459
0.0321804
0.0287178
0.0334496
0.0231517
2.89793
0.0234491
0.0475715
0.0246236
0.0261725
1.99995
0.100074
0.0245494
0.0239741
0.0244053
0.0275698
0.0461397
0.022122
0.024281
0.0264937
0.0328121
0.0287439
0.0249275
0.0256705
0.184249
0.0231669
2.34338
0.0753682
0.0269368
0.0235842
0.043168
0.0641308
0.0323266
12.5821
1.08465
0.0882005
3.06446
0.024646
1.56608
0.0245678
0.33653
0.0237701
0.446276
0.0236421
2.75893
0.732304
0.059715
0.0242525
3.36841
1.55581
5.19656
0.0246824
0.0657094
0.0362074
2.41352
0.0447995
3.41863
0.0245078
0.0245469
0.0338782
0.119079
2.1263
0.0317618
0.026583
0.590687
0.0446857
0.0267274
0.0267383
0.0240256
2.42929
0.02489
0.0238126
0.0248011
0.447879
0.129043
0.0230508
1.54841
2.77927
0.0236717
0.0237496
0.0266841
0.0242948
2.0175
0.0242838
0.155033
2.13084
0.024043
0.029095
1.93108
0.0498273
0.0245278
0.0242404
6.532
0.0233797
0.0237659
0.0590719
3.16701
0.0258579
1.86325
0.0248982
3.28569
0.0269924
0.164296
0.0237999
0.0243916
3.10343
0.0350068
0.0244873
3.70646
0.184324
2.45987
0.572858
1.55644
0.282955
0.0266821
0.0268532
0.0238118
0.0241891
0.0234647
1.5216
1.92893
0.58995
0.0245827
0.152037
0.0955188
0.0249178
0.0243913
0.0241997
0.0424158
2.3947
0.0252116
2.19631
0.0314635
0.0247444
0.0237017
0.0458685
2.12973
0.0304763
0.0259028
5.12017
0.612791
0.0854996
0.0318345
0.026484
0.0243048
6.60084
0.0246711
1.79287
0.0234267
0.0241644
2.66918
0.0230864
0.0418405
0.0712403
0.369589
0.0239036
0.0234399
2.30456
0.0249154
0.024269
0.0246212
0.0353557
0.026906
1.28981
0.0245681
0.0237462
0.0399892
0.884124
0.0246292
2.1993
0.0245637
0.0266807
0.0346494
1.49005
0.0243541
0.0239025
0.0260817
0.0243005
0.0411719
0.0364544
0.0237276
0.0244674
2.7413
2.04498
0.0238948
0.0237924
0.0220624
3.30666
0.0262293
0.0262056
2.14877
0.0977731
0.0243923
0.632436
0.0287888
0.024984
0.0272701
0.0247447
0.0236102
0.0242292
0.0239353
0.0231333
0.0245367
0.0237917
0.0261046
0.0235539
0.0247056
0.0205621
0.0611449
0.051617
0.0245355
2.24547
0.0246555
0.029149
0.0249155
0.0245138
0.0461386
0.0684508
0.0243122
0.023218
0.0262204
0.040128
0.0246559
0.536297
2.23382
3.15678
0.789715
0.0230839
3.5272
2.1163
0.131802
0.0452035
1.91781
0.0265165
0.0249888
0.149338
0.0249025
0.0251118
0.0243479
0.0314693
0.0243338
0.0236129
2.19353
0.0447865
0.0432338
0.0237491
0.050873
0.0255215
0.0244157
0.0243821
0.0234504
0.0248506
0.0246252
0.0247214
0.0494178
3.11335
0.023369
2.23617
3.91991
0.0245128
0.0242081
0.147796
1.45789
0.0242876
0.0244798
2.42173
0.0244288
0.0244228
0.0756137
0.0231316
0.0245365
0.0244374
0.024767
1.09228
3.02959
0.0250002
0.0242205
0.02442
0.0239388
0.0225769
0.0240548
0.024383
0.0250032
2.4154
1.74988
0.0247665
0.0447375
0.488465
0.0255801
0.158343
0.0290218
0.0247748
0.023946
0.0237621
0.0232952
0.0255836
0.294662
0.024496
0.0687114
5.50792
1.75452
2.9829
0.0243572
0.0289449
0.0278029
0.0863191
0.0290445
0.0259667
0.0267867
0.167336
0.0247344
0.0262733
0.0957942
0.780131
0.0466387
0.0271856
0.0242006
2.48375
2.90499
3.51426
0.0245184
0.0240311
0.0234343
21.5996
1.53829
0.0224774
0.0363682
0.109582
0.842879
0.0348082
0.0256876
0.0883865
0.0237306
0.023259
0.0246503
0.0269056
1.98465
0.0234246
0.0289086
0.0240206
0.13107
5.1249
0.0682798
2.38731
0.579677
2.00516
1.84486
0.0254918
0.0352998
0.0245
3.07066
0.0243451
0.392467
0.0293573
0.622852
0.0543241
0.581783
0.715827
0.0305291
0.0240024
2.09674
2.24632
0.0242485
2.26973
0.0270047
0.0244081
0.0288037
2.74269
0.023972
0.0223609
0.0245234
0.0245181
3.0442
0.0410603
0.0243463
0.0261881
0.0300722
0.19057
0.0320713
0.0739295
1.08964
0.0749402
0.044591
0.170559
2.08298
0.0337865
1.61032
0.373554
1.91038
0.0931631
0.314016
0.0239186
0.0477615
0.0238762
2.57489
2.6516
0.0246329
0.0270791
0.0516175
2.74374
0.0471566
1.78816
0.0255141
0.0226231
0.0239097
2.97189
0.0267636
0.0445905
2.39715
0.0230631
0.0231244
0.0259779
3.63642
2.6349
0.024357
0.0236246
0.0240007
2.17919
0.0236292
4.63699
1.955
0.0230971
0.0262288
0.0285508
0.0230857
0.0482447
0.0245527
0.261562
0.109564
0.0247412
0.0235405
0.0228114
2.26849
0.0259277
0.0546836
3.1124
1.99292
0.0261411
2.87819
0.994495
1.65868
0.113423
0.0265118
0.0244753
2.11894
0.0425617
0.0245149
0.0215668
2.39802
0.044073
0.0245613
0.050896
0.0226717
0.0244853
0.0251334
0.0231127
2.6139
0.0651468
0.0448789
0.0565306
0.0908645
0.0275629
0.02554
1.20534
2.70246
7.56949
3.97592
0.0251264
0.0248497
1.29786
0.0228886
8.88689
0.0247158
0.0233906
0.0451674
0.0618434
0.0437021
0.0650179
5.31377
0.0227785
0.0443524
0.0433015
0.618806
5.11364
2.08324
1.5921
0.02406
1.54941
0.0300595
0.0249155
0.218867
0.0230566
0.0266607
1.93534
0.028637
0.0324904
0.381225
3.67225
0.571815
0.0605219
2.11956
0.168148
0.0254461
0.0239182
2.43883
0.0257365
1.87675
2.16072
4.2284
0.0242604
0.0244829
0.0230332
0.0704381
0.0221826
0.0244058
0.0232287
2.3082
0.0256544
0.0245395
1.50071
0.0237766
12.7463
0.041095
0.0287418
1.41639
4.21896
0.0732389
0.155743
0.0291542
0.0944087
1.6272
0.0242553
2.24236
0.0519352
0.0245216
2.99179
0.0293294
2.78278
0.0239555
0.0246529
0.0231689
0.0241518
0.877756
0.0243973
0.0242554
0.161303
0.0242733
0.0239771
0.585944
1.5334
3.76577
0.0245054
0.0242238
2.83322
0.0229662
0.08248
0.0242491
1.77443
0.0736955
2.46144
0.113977
0.0474495
0.0239912
0.0238766
0.165051
0.0549325
1.09106
0.0816526
0.0810007
0.203281
0.0240629
2.14402
0.161761
2.48102
0.467243
0.0341098
2.71758
0.111057
0.887547
0.0525202
0.024837
1.13565
4.11175
0.051271
0.0260392
1.24327
0.0237006
2.62029
0.023931
2.28781
0.0230329
1.06799
0.0285839
0.0235596
0.0235095
2.57541
6.94215
1.91474
0.0242643
0.0242477
0.04995
0.0243671
0.0246123
0.0272228
2.68429
0.0497829
0.02314
0.0244408
2.29337
0.025819
0.109946
0.0244376
0.0248247
2.73509
1.65187
2.48004
0.023655
2.34404
0.0240252
0.0489376
0.0243443
0.0270684
0.129145
0.0242287
2.78788
0.0257888
0.6255
0.169725
0.0245774
0.0243334
0.0285413
0.0278559
2.3873
1.56701
0.0289321
0.250347
0.023148
2.8477
1.31731
0.0245628
0.128952
0.0227602
0.524199
0.112501
2.81032
0.0248499
2.44992
0.0276666
0.024236
0.0247592
0.0783743
0.0246441
0.0244559
2.57757
0.0296628
3.73018
2.58874
0.0287096
0.0235003
0.0278309
2.64717
2.50559
0.0247204
0.0527274
0.158908
0.0248028
0.162766
0.0245562
0.0746368
0.0268487
0.0256076
0.0431582
0.499622
0.033971
0.0247317
0.836118
0.09383
0.0252764
0.024678
0.0251592
0.023934
2.75906
0.0246236
0.0269506
3.25375
0.0265732
1.36332
0.0235385
0.353488
0.0250555
1.31663
0.0423131
0.0287603
0.104381
0.0221461
0.0221279
1.85548
0.0254122
1.10552
0.0231572
0.0635756
0.0462899
0.0244066
0.0980571
0.0330056
5.88854
0.0285711
2.37811
0.127022
0.0236306
0.0245698
2.1296
0.0879016
0.0221773
0.024583
0.0324428
0.0253392
2.90578
0.0243337
0.467995
0.0244886
1.69846
0.190923
0.0604157
0.0476973
0.0248783
2.75767
0.0237504
0.714577
0.0594318
2.00778
0.0634514
2.73149
0.0243798
0.0245402
0.107259
0.549829
0.0242745
2.74714
0.0235716
0.173938
0.051744
2.73304
0.0247766
0.0335058
0.0596053
0.0294682
0.0483374
0.0238123
0.0247696
0.0621112
0.0732692
0.0862465
0.024804
3.26939
2.25482
3.27787
0.0252569
2.7862
0.187569
0.166406
0.0236543
0.0247401
0.024841
0.0283271
2.59651
0.0268794
2.77625
0.0246642
2.42658
0.110725
0.0247803
0.104252
0.0248836
2.70132
0.725529
11.9704
0.0340513
0.0251894
0.0285012
0.165363
0.0454865
0.0228818
1.76222
3.45457
0.0249909
3.15892
0.180221
0.204223
1.09024
0.0247026
0.941033
3.07017
0.0253984
0.0453695
0.0347781
2.91455
5.1448
3.88878
2.57151
0.0282555
0.0393823
3.01817
0.0245463
0.0253507
0.0330983
3.4313
0.0252467
3.70131
0.0249759
1.88827
0.0239781
0.0967728
0.0259376
0.0237804
0.0246854
0.0259709
2.84755
0.0294972
2.71703
0.167698
0.0248223
0.0248316
0.101216
0.163404
0.02465
2.72993
0.0415881
0.257473
0.0916064
0.0292563
2.60819
0.0257452
0.0316171
0.0246348
0.0560941
0.0473714
0.0247049
0.0557817
0.0261396
0.158456
0.0251885
0.110005
0.119909
0.0288107
0.175013
0.35502
0.0256811
0.0332911
0.0255243
3.17132
0.0252658
2.13896
0.0247065
0.0327022
0.0251995
3.73795
0.0234168
0.0427484
0.0237651
0.0226364
2.2475
0.0255345
0.239004
2.58412
0.133356
2.64918
0.0246538
0.0231264
0.0254047
2.06599
0.0242769
0.0249723
0.0257488
0.0262073
0.023894
2.85753
0.0698248
0.0240366
2.68643
0.0254803
0.0277952
2.65478
0.0386125
1.47629
0.0245399
0.0290208
0.0487297
0.026181
2.10402
2.9818
4.8648
0.0243931
1.90858
0.0539148
2.5599
0.025405
0.0695948
0.05476
0.0247662
0.0231502
0.0247386
0.588047
0.0328023
0.0694115
2.65639
2.86592
0.0506239
0.0515344
0.0496171
0.0836291
0.0235117
1.77331
0.200344
0.0590045
1.12843
0.024232
0.0278942
0.0240722
0.146828
0.0293282
0.0278978
0.0350978
0.0252943
0.0705593
0.027579
0.168652
0.0245359
0.0296411
0.024791
2.96919
0.0277633
0.0239754
2.32336
0.0735809
0.0261637
0.024003
0.0248366
0.024363
0.024758
0.108968
3.14745
0.024754
0.0372682
0.0456731
0.0247729
0.0248791
3.44625
0.061106
0.0486152
3.02556
2.67981
0.106175
0.0243934
2.72172
0.0337245
0.0602398
0.156649
0.0325579
0.170772
2.58715
0.0258839
4.60266
0.0740563
0.0694428
0.0727449
0.0520345
0.299352
0.0748785
0.443179
8.21066
1.4389
0.391745
0.662438
0.0278379
1.18112
1.43959
0.0268641
0.0529523
0.0276828
0.024452
0.0241622
0.0248228
2.77137
3.09947
0.0252298
2.60966
3.89233
0.0280021
2.97328
0.671196
2.84252
3.03927
0.035107
0.025107
0.0239147
2.92536
0.154007
0.024038
2.86691
3.09995
0.0441478
3.29543
0.0683528
0.0242786
3.08434
0.0248612
3.5658
0.0249059
2.653
2.08735
0.0343583
2.40938
0.023654
0.0754929
0.0256979
0.0353404
0.159676
0.0247893
0.0248493
0.188908
2.58503
0.217324
0.0235628
0.0279608
0.0360486
0.049911
0.0251581
0.184947
2.24819
0.0269269
0.025657
0.0460242
1.72077
0.0245251
0.0252382
0.0245357
0.0277162
2.93211
0.032314
0.0591845
0.163108
0.0254284
0.0245251
2.65021
2.1847
0.0248253
4.0116
0.402843
0.0366603
0.226634
0.904101
1.58128
1.84262
0.0319779
2.83521
6.19594
0.169455
0.0267872
2.62672
0.024411
0.0245009
0.176848
0.0329563
0.0456587
0.0981626
0.0258451
0.0238393
0.0247625
0.0247773
0.0246156
0.0422551
0.181454
0.0238402
0.0231327
0.0375541
0.163374
0.0237457
0.0247986
0.0279173
2.73091
0.04376
0.0238663
2.33166
1.61887
0.0325612
1.8969
0.0230429
0.147054
0.0224228
0.437109
0.0989181
0.0323251
1.50761
0.0244285
0.0278665
0.0384399
0.352829
0.0324358
0.0320959
0.0521789
0.0283589
0.02307
0.0255843
0.0245258
0.024686
0.0243709