/*--------------------------------*- C++ -*----------------------------------*\
| =========                 |                                                 |
| \\      /  F ield         | OpenFOAM: The Open Source CFD Toolbox           |
|  \\    /   O peration     | Version:  v2012                                 |
|   \\  /    A nd           | Website:  www.openfoam.com                      |
|    \\/     M anipulation  |                                                 |
\*---------------------------------------------------------------------------*/
FoamFile
{
    version     2.0;
    format      ascii;
    class       volScalarField;
    location    "200";
    object      p;
}
// * * * * * * * * * * * * * * * * * * * * * * * * * * * * * * * * * * * * * //

dimensions      [0 2 -2 0 0 0 0];


internalField   nonuniform List<scalar> 
15335
(
-0.0290908
-0.0251506
-0.00670481
0.00167647
-0.0143249
0.00271161
-0.033057
0.00161239
0.00047593
0.000477335
-0.00863641
0.0019425
0.0097098
-0.0122773
-0.0220772
2.04138e-05
-0.0267181
-0.037778
0.00125037
-0.0190117
0.000475453
-0.0266959
-0.0192265
0.000459577
-0.00531132
-0.0235276
-0.0340432
0.0013642
-0.0230535
0.00182237
0.000847413
-0.0319236
0.000461409
0.00584565
-0.0312418
-0.0290914
0.000647415
0.00585435
-0.0128714
-0.0364955
0.00149453
-0.0296061
0.000449907
0.00810957
0.00015025
0.00133162
-0.0162172
6.26786e-05
-0.024303
0.00184282
0.000473516
0.000787077
-0.00201457
0.00457539
-0.0810685
0.00043413
-0.00896131
0.00154354
0.0060482
-0.0424158
-0.0254873
2.77205e-05
-0.00187361
0.0042471
-0.0139929
-0.035584
2.22932e-05
-0.00101471
-0.00962258
0.00033857
0.00179283
-0.0189933
-0.00276416
0.000141795
0.00197425
0.0137147
-0.0264727
0.000260241
0.00108693
-0.0287567
-0.0250624
-0.0208328
-0.021057
-0.0237783
-0.00481887
-0.0762654
0.00428214
-0.0334685
0.00247196
0.00450478
-0.0241578
0.0101991
0.000269983
-0.0307003
-0.0186511
-0.0240389
0.00040779
-0.036303
0.000824426
-0.0353577
0.000413824
0.00505285
-0.0255379
1.226e-05
0.000518982
0.000381353
-0.0798794
0.00392067
0.00258593
-0.0146948
0.000487598
0.00718193
0.00157144
0.00120587
0.00150368
0.00123461
-0.0290932
0.000997872
-0.0262306
-0.0309116
0.00484842
-0.0334096
-0.0830362
0.00120903
-0.0308009
0.00119812
0.000816144
-0.0282954
-0.0310316
0.00250464
0.00112808
-0.0339109
0.000821751
-0.0283483
0.00064934
0.000557101
0.00342473
0.000347163
-0.0149143
0.00560477
-0.0075844
-0.00741423
0.0017286
-0.0227921
-0.0847807
-0.00817908
0.00787392
0.00185472
-0.00639274
0.00898441
0.000498265
-0.0292036
1.87918e-05
-0.0178429
-0.0654716
0.00319423
-0.0233782
0.00382011
0.00100212
-0.00419209
0.00222363
0.00335391
-0.00254306
0.00660888
0.00175952
0.0017108
0.00094044
-0.0331862
0.000514801
0.00191163
-0.01304
0.00234099
-0.00835606
0.0032353
0.00436559
-0.00499928
-0.0237252
0.000531113
-0.0244759
-0.0386931
-0.00787672
0.00096985
0.00150322
-0.0144165
-0.0142576
-0.0409121
-0.0236252
0.000660978
0.00238534
-0.0797055
0.000104324
-0.0400833
-0.0243906
0.00146087
-0.00572365
-0.0259408
-0.0080626
1.92621e-05
-0.0152533
-0.0414015
2.82423e-05
0.00450412
0.00110387
0.0095121
-0.0359898
0.00244522
-0.000590985
0.00100167
-0.0324231
-0.0315429
-0.0270944
0.004712
0.00147987
0.00340207
-0.0273079
0.00353442
0.0017507
-0.0240272
0.00127126
0.000229488
-0.00497659
0.00774425
-0.0583378
-0.0242204
0.00186935
-0.0720208
-0.0233503
0.00138844
-0.0324168
-0.0252901
0.0017365
-0.0409998
-0.0664803
-0.0206945
-0.00384976
-0.0075069
0.00275211
0.0125463
-0.0301978
0.00155968
0.00865437
-0.00206748
0.00664215
-0.0133998
-0.0298345
-0.0148041
-0.000603472
0.00381268
-0.0575096
-0.0300289
-0.0176017
0.00046284
-0.0362611
0.00190059
0.000562597
-0.029187
0.00177839
0.000891123
-0.0594756
0.000568194
-0.0232572
-0.0346439
-0.0303721
-0.0414062
-0.0836771
-0.0518682
-0.0663208
0.000707517
-0.0276983
-0.00849351
-0.0326568
2.34426e-05
-0.0260032
0.000633008
-0.00373542
-0.0682129
-0.0872989
0.00361032
-0.00548487
-0.0345887
0.00140574
0.000454637
-0.00212434
-0.00621211
-0.0333875
-0.00610965
-0.00474675
0.00173685
-0.0407949
-0.018165
-0.0358702
-0.0118877
0.000924468
0.00237258
-0.0381585
-0.0183005
-0.0130292
0.000960728
-0.00823414
-0.00188731
0.00103643
-0.0211574
0.00799149
0.000989714
-0.0384334
0.00141694
0.00139532
0.00220059
-0.0531949
-0.0227326
-0.0816161
-0.0146038
0.00504184
-0.0254941
0.00129168
0.00180154
0.000405042
0.000457548
-0.00833851
0.00153229
-0.00152391
0.00172502
0.0143672
-0.0627147
-0.0184121
-0.0819722
-0.035726
0.000461055
0.000343416
0.000317166
0.00141166
0.0146599
-0.0346395
0.00479416
-0.0225043
0.00037901
0.00321187
-0.0172437
-0.0123996
-0.0311985
-0.00848011
-0.0277472
-0.0318882
-0.00896815
0.000198926
-0.0300128
-0.0155922
-0.0575687
-0.0133884
-0.015393
0.00961162
0.000406594
0.0015641
-0.00540583
0.00663228
-0.0141481
0.00198349
0.000345272
0.00183751
0.00614156
0.00193212
0.00142184
-0.0172325
0.00212108
0.000213232
0.00172414
-0.0083191
-0.00865241
-0.024627
0.000950452
0.00199351
0.000648379
-0.0202515
0.00171633
0.000775317
0.00124729
-1.38014e-05
1.40195e-05
-0.000146449
0.00968208
-0.0599298
-0.0306618
0.00237302
0.00684528
-0.0738908
-0.00909284
0.00147392
-0.0494747
0.00268337
0.00229634
-0.0105032
0.00601647
0.000812886
-0.0152009
0.0128769
0.00309719
-0.00448012
1.58705e-05
0.00178029
-0.0481955
-0.0223346
-0.000166886
-0.00136147
0.000533944
0.000383365
-0.028732
0.000674298
-0.00802552
-0.00759477
-0.00424942
0.000511643
-0.00343961
0.00186267
-0.0129969
-0.0215365
0.00120807
0.00103968
-0.0150067
0.003057
0.00169638
-0.02494
0.00208035
-0.0300335
9.11135e-07
-0.00435374
0.0116238
0.00124142
0.00302488
0.00116738
-0.0301632
-0.023388
0.00162667
3.08452e-05
0.00048199
1.95938e-05
0.000645519
-0.0285021
-0.0246534
0.0021007
-0.0230991
0.000421344
0.00121408
0.0012286
-0.067217
-0.0144925
-0.0648531
-0.020175
-0.000948126
-0.018133
0.000139637
0.00253029
-0.0272408
0.00140198
-0.0278612
0.00121548
0.0037956
-0.0217407
-0.0300893
0.00161375
-0.0064282
0.00387232
-0.0160656
0.00163322
-0.0115402
-0.0249934
-0.00041637
0.00216703
-0.0260851
-0.0144504
-0.0126243
0.00223571
-0.0283665
-0.0149021
-0.0509497
0.000401792
0.00225046
0.000371855
-0.00698213
-0.0277861
-0.00400184
0.00397697
-0.000459174
0.00116911
0.00172366
0.00179413
-0.0584835
0.0022585
0.00104594
0.00106892
0.00371471
0.000368842
0.000116879
0.00073183
7.80563e-06
-0.0283223
-0.0344996
-0.023455
-0.0212905
-0.0228099
-0.031131
0.00173304
-0.0298001
-0.000950302
-0.028877
0.000359097
-0.016928
-0.0211751
-0.0254093
0.00185293
0.00171264
0.00258405
0.0051601
-0.0514439
-0.0330939
8.35963e-05
0.000464526
-0.00387522
0.000377048
-0.0292639
-0.0575564
-0.04053
-0.0772252
-0.0143168
0.00075255
-0.00121305
0.00175644
-0.0507905
0.00207293
0.000899327
0.0033563
-0.0083387
-0.0298832
-0.022641
0.00171302
-0.0319837
-0.00794433
-0.00319237
0.00184721
0.000433583
-0.00675409
0.00503522
-0.0246219
0.00122474
-0.0438508
3.49099e-05
-0.0595962
-0.0318265
-0.00830951
-0.0270932
-0.0208218
-0.0229576
0.00205983
0.000381625
0.000779643
-0.0350483
-0.0453115
0.00184244
0.00277416
-0.00148485
-0.0550467
-0.0192504
0.000383703
-0.0222954
-0.000599563
0.00594801
-0.00730478
-0.0206682
-0.0157591
-0.0267878
-0.0454707
-0.0663426
0.00105772
0.00109661
-0.0290876
-0.00337738
0.00107713
0.00203752
0.00176473
-0.0023564
-0.0457511
-0.0591014
-0.0623892
-0.0238373
0.00506417
-0.0228529
-0.0831097
-0.028612
-0.0392105
-0.0200709
0.000971088
0.00115343
0.00331483
-0.0226717
0.00215991
0.001853
-0.0635709
0.00421078
-0.0528321
0.00221108
-0.0368765
-0.0145987
-0.0211148
-0.0328927
-0.054615
0.00473429
0.00143203
-0.0139992
0.00356934
0.0184779
-0.0231964
0.0173725
-6.42725e-05
-0.0383108
0.00134037
-0.00750092
0.000179115
-0.028681
-0.0234318
-0.0132822
0.000687705
0.000579687
0.0014776
-0.000883916
-0.00922615
-0.033583
0.00111294
0.000579685
3.01007e-05
0.000797835
-0.00735008
0.00362749
-0.0343392
0.00135439
-0.0147935
-0.0272496
-0.0386765
-0.0406396
-0.00214322
0.000734982
-0.0212934
-0.0270554
0.000532804
0.00189321
-0.00954481
-0.00113441
-0.00122503
-0.022418
0.000442213
0.00138282
-0.0233746
0.0188399
-0.00131569
0.00102334
0.00216228
-0.034855
0.000166783
-0.0360764
-0.00339897
-0.0094267
-0.00326369
0.00254868
-0.0214965
-0.0320844
0.00674073
0.000735709
-0.0267586
-0.00987451
-0.00613778
0.000183367
0.00290657
0.00170733
-0.0143076
-0.0184952
0.0018642
-0.0284596
0.000838171
0.00240112
0.000929612
0.00136546
0.00176797
0.00225405
8.13642e-05
0.000381872
0.000487907
-0.00112507
-0.0206867
-0.015963
0.00220279
-0.00585953
0.000907323
0.00856279
-0.011553
0.00141009
-0.0050008
0.000755592
-0.0325231
0.00973092
-0.00424753
0.00179829
-0.0789558
0.00132259
-0.0290374
-0.0353715
0.00177161
0.000420191
-0.0429877
0.00344977
-0.00723006
-0.0204245
0.00255398
0.00162246
0.00260087
0.00195044
0.00296929
0.00162897
-0.0240475
0.00972026
-0.0282913
-0.0172527
0.0029029
0.000455153
0.00233099
-0.00378209
0.00377497
0.000250935
-0.0207775
-0.000301593
-0.0415509
-0.0102191
-0.0336126
-0.0225093
-0.0253639
0.00308673
0.00102799
0.00139382
-0.0102908
0.000519313
0.00176615
0.00104478
0.00214592
0.0021634
0.000650201
-0.043566
-0.022542
0.00111038
-0.025292
-1.12546e-05
-0.0400634
-0.0196485
-0.0322237
0.00173051
-0.0243838
-0.00462493
0.00371606
-0.00447225
2.48391e-05
-0.0549338
0.00104557
-0.0239284
-0.0332577
0.000516606
-0.026697
0.00225554
-0.0373877
0.00050121
-0.0349994
0.000297863
0.000641492
-0.0187265
0.010885
-0.0252004
0.000286423
0.00321851
-0.0291152
0.00357727
-0.0171764
0.00413575
-0.0258811
0.000715906
0.00201578
-0.0341536
-0.00154467
0.00103023
-0.0073298
-0.0215356
0.00471066
0.00017317
-0.028431
-0.0215764
0.000519139
0.0130902
-0.000158389
0.00329609
0.00833563
-0.00590191
-0.0397703
0.00539186
0.000232132
-0.0393277
-0.00636554
-0.0288329
-0.0209189
0.00287285
0.00116184
0.00100204
-0.00634575
-0.00787437
-0.0108807
0.00160011
0.000102955
-0.0223494
0.00239816
-0.000447338
-0.00494204
-0.000868004
-0.0242792
0.00136015
0.00178106
-0.00357991
-0.0254648
-0.00367179
0.00116779
0.00398754
-0.0208659
0.00205367
0.00182481
0.00134017
-0.0173446
-0.0562106
-0.0147036
-0.0278314
4.72407e-05
0.000281739
0.000332538
0.00761983
0.000860412
0.000976798
0.00128308
0.000602323
-0.00347574
-0.0284462
0.00281231
-0.0212892
0.000970458
-0.000655109
0.00166928
1.68394e-05
-0.0298295
0.00387838
1.21663e-05
0.0013712
0.00174516
0.000685766
-0.0186722
-0.0113587
-2.59435e-05
0.00182171
0.0200289
0.00273969
-0.0354751
0.00145674
0.00301409
2.56819e-06
0.000684062
0.000222308
-0.000952028
-0.0296229
-0.0315204
0.00213102
-0.0163437
-0.0139357
-0.0264917
-0.00728005
0.00298896
-0.0331223
0.000709963
0.00337694
0.00395995
0.00141412
0.000203447
0.00388182
0.000999796
-0.0135932
0.000316045
-0.00546268
-0.00136561
0.00316235
0.00139063
-0.0354811
0.00536061
0.00377748
-0.0267527
-0.00010665
0.000247205
2.71096e-05
-0.0139734
-0.0335244
0.00112812
-0.0457877
0.000272533
0.00169658
0.00399332
0.00245541
0.000235055
-0.011411
-0.0106882
-0.0254473
0.00273259
-0.0411947
0.00292542
-0.0199721
0.0002539
-0.0524113
-0.00259708
0.00194884
0.000979819
-0.0269593
0.00153485
-0.0123671
0.00100995
0.00230696
0.00130933
0.00046145
0.00215518
-0.0591857
0.00271633
-0.0520025
-0.0397289
-0.0211121
0.00230885
-9.68792e-05
-0.0262332
-0.0292452
-0.0230185
0.000247145
0.000740741
0.00128941
-0.0222773
0.000656037
0.000867722
-0.0283392
-0.016816
-0.0346956
0.00079471
-0.0569842
0.0033812
-0.0289024
-0.0342184
-0.0214
0.00101033
-0.0280524
-0.0151769
0.000778064
-0.0534896
-0.0113585
-0.00818832
0.0018721
-0.0513917
0.000280524
-0.0376678
-0.000705041
-0.029177
0.00767117
0.0067721
-0.0275857
0.00402622
-0.0258016
-0.0227216
0.000293033
-0.0284519
0.00149087
-0.00745785
0.000262222
-0.0183574
-0.0325543
-0.0448581
0.000212682
-0.0244506
-0.0265006
0.00027211
0.0116869
0.000925316
-1.81256e-05
-0.0300695
-0.0791963
0.00120546
0.00265623
-0.0272753
-0.0239806
0.000660252
0.00178947
-0.0167511
0.00215659
0.00721526
0.00122586
0.00162847
0.00021856
0.00385872
-0.00624767
0.00189786
0.00961879
0.0033398
-0.00490224
-0.0278244
0.00163639
-0.0600359
0.00164934
-0.00764361
-0.0350128
0.00176393
0.00199212
-0.00228127
2.74582e-05
0.00180952
0.00570377
0.000270922
0.000129558
0.00187664
0.00167438
-0.0207835
0.00110915
0.00131306
0.00276619
-0.0101699
-0.0420738
0.000642602
0.00180375
-0.0309218
-0.0334
0.000625564
-0.035233
-0.0029728
0.00984548
-0.0278833
-0.0619999
0.000988908
-0.00370256
0.0140164
0.00131889
-0.0386464
-0.000525593
-0.0156106
0.00262091
-0.0216872
-3.78151e-05
0.00224503
-0.0177547
0.000220915
-0.081522
0.00861505
0.000290123
-0.00457972
0.000519631
0.00091421
-0.00424607
-0.0228109
-0.0248999
2.27662e-06
0.00163861
-0.010205
0.00161633
0.00188059
-0.00642313
0.00125728
0.00896645
0.0145394
0.00226664
0.00206404
0.00265545
0.000110492
-0.0095338
0.00124221
-0.0219661
0.00394042
-0.0278491
-0.039708
-0.0259196
0.00080225
0.00160934
-0.0512606
-0.000371775
-0.000543675
-0.0591242
-0.0791736
-0.0106203
-0.00552427
0.000869078
-0.00137278
0.00085967
-0.0246483
0.00207171
-0.0280221
-0.0318426
-0.026221
0.000773525
-0.0549239
-0.0790525
0.0017182
-0.0154407
0.00191908
0.00228735
0.00018111
0.00246176
0.000589895
-0.0251566
-0.00682063
-0.00384299
0.00588414
0.00176246
-0.0607403
0.00136161
0.00184673
0.000185792
-0.00847961
0.00614382
-0.00732129
0.0022751
-0.000680465
-0.027661
0.000435727
-0.00446829
0.0026031
-0.00140014
0.00546817
0.0113701
0.00178078
0.00352297
-0.0526873
-0.027027
0.00144303
2.04208e-05
0.000301477
0.00138548
-0.00661866
0.000895912
0.0018596
0.000288897
-0.000989857
-0.0136352
-0.0225748
0.000290423
0.00698928
0.00319853
-0.00166323
-0.00974397
-0.0276989
0.0092075
-0.00047509
-0.0304907
0.000406001
-0.0313042
0.00737126
0.00930878
-0.0353928
-0.0244177
-0.00740307
-0.0308097
-0.010588
-0.0313159
-0.0237233
-0.0544372
0.00041227
0.000225192
0.00926384
-0.00526069
0.000387597
-0.0235046
-0.0292647
0.00577112
0.00792426
-0.00188248
0.00036573
-0.010897
0.00211324
-0.000617233
0.000152171
0.000313212
0.00290153
-0.0185459
2.922e-05
0.00121185
-0.00592196
0.00149126
-0.0228559
-0.00591761
0.00233158
0.000155081
-0.00663
-0.00084688
-0.00232943
0.00283228
0.000192611
-0.0105657
0.00158472
-0.0241039
-0.0130099
-0.0520275
0.000994907
-0.0336915
0.00119598
-0.0261087
0.00114186
0.0105195
0.000862692
0.000237842
0.000657668
0.000748368
0.00251238
-0.00604467
-0.0804812
-0.0347611
-0.0527272
-0.0219644
-0.025375
-0.045821
-0.000576648
-0.00654597
1.45444e-05
-0.0535641
0.000499409
-0.000537222
0.00173366
-0.00285624
-0.0007919
-0.0294899
-0.0301947
-0.0216944
-0.0419271
0.0051382
-0.0184483
-0.0257586
-0.0366675
0.0044717
0.00189912
-0.0375368
-0.000679306
4.71631e-05
0.000203005
-0.00012847
-0.000569605
0.000443159
-0.02627
0.00200025
0.0067396
-0.0131625
0.0135611
7.72433e-05
-0.0174024
-0.0223342
-0.0591042
-0.0668759
-0.0207373
0.00188671
-0.0261706
0.000311032
0.000162718
0.00543057
0.00290692
-0.0281689
-0.0221581
-0.00482049
-0.0270212
-0.0474945
0.000887491
0.00176471
-0.0143276
-0.0764612
-0.0196486
0.000434483
0.000155894
-0.059695
0.00366638
0.00301827
0.000504291
-0.0282307
0.000256867
-0.0317495
0.0101978
-0.00194134
0.0019015
0.0011591
-0.015941
-0.0137181
-0.0228243
0.00151696
0.00106915
-0.0241752
-0.013352
-0.0259572
0.00363085
-0.00756222
0.000469978
-0.0524381
0.0079892
-0.0253794
0.00199717
-0.0290735
-0.0465467
-0.0107821
-0.0103378
-0.0894198
0.000171125
0.000279984
0.00681756
-0.0298733
0.0011064
0.00203795
-0.0193204
-0.023051
0.00170487
0.000528575
-0.000737721
0.00320692
-0.0332112
0.000140321
-0.0616825
0.0117767
0.00195099
-0.00455805
0.00205771
0.000859945
0.00114865
0.00173566
-0.023077
0.00116438
-0.00913335
-0.0249056
-0.0477523
2.3882e-05
0.000121402
0.00115439
0.00086515
0.00172688
0.00183141
0.00168731
0.00122261
-0.0048368
-0.0718057
-0.0779912
-0.0272017
-0.0631512
0.00920058
0.00332526
0.00289968
-0.0159427
0.000143613
0.00105551
-0.0163582
-0.0048207
-0.04668
0.0111822
0.0106833
-0.0222454
0.00284254
-0.0512455
-0.0147415
-0.0493812
-0.0261131
0.0010252
0.000261701
-0.0180155
0.00214625
-0.00642107
0.00023781
-0.0267432
0.00174271
-0.0205724
0.000495112
-0.0454396
0.00162982
-0.0321809
0.000893059
5.24155e-05
-0.0340666
-0.0243306
0.00172108
-0.00147764
9.82396e-05
-0.0394982
-0.0354487
0.00101964
0.00118503
0.000270533
-0.0263016
0.00990746
-0.0257819
-0.0644601
-0.0110857
-0.017112
-0.00094023
0.00316939
-0.00734859
-0.000654189
0.00209919
0.000213359
-0.00166627
0.00156517
0.000700404
-0.0468692
-0.00544999
0.00179773
-0.0382748
0.000672403
-0.00601215
-0.00526276
0.00204408
0.00193041
0.00359269
-0.0301753
-0.0102228
-0.0523102
0.00339708
0.000185631
-0.0170663
-0.045555
0.00198984
0.00125092
-0.0366226
-0.0246185
0.0019441
-0.0558158
-0.030605
0.00482139
-0.00855897
-0.00521029
0.000763515
1.57477e-05
0.00190175
-0.000747052
-0.013045
-0.0251534
0.0154748
0.00859136
-0.0627651
-0.0628212
0.00106247
0.00238217
-0.0181748
2.66838e-05
-0.0147863
-0.0263549
-0.0188861
0.000481058
-0.0259107
0.000222671
0.00215699
-0.0518929
-0.0153945
0.00882273
0.0115307
-0.00255174
-0.0137724
-0.0246307
-0.018947
-9.12136e-05
-0.0673472
-0.00249277
-0.00125786
-0.0635386
-0.0251837
0.000494698
-0.00764948
-0.0190858
-0.0350179
0.00114386
-0.0237812
-0.0175823
-0.0115244
-0.00359607
0.000357609
0.00298523
0.00175047
0.00193532
-0.0520733
-0.0285935
-0.00548409
-0.0254999
0.00487975
-0.0281714
0.000363373
0.00168623
-0.00845639
0.0125446
-0.0035603
0.0012121
-0.006505
-0.00957483
0.000780076
-0.0117958
-0.0287645
0.00281611
0.00380022
-0.0526475
0.00120391
-0.00242888
-0.0236049
-0.00589223
-0.00361446
-0.000984494
-0.0122808
-0.0254957
8.85853e-05
-0.0187271
-0.0168251
0.00097823
0.00202198
-0.000267461
0.00312627
-0.0458314
-0.00875076
-0.0281508
-0.0125851
0.00280969
-0.0222029
-0.00445711
-0.0140576
-0.00703019
0.00235071
0.000484327
-0.00148859
-0.0341954
0.00103396
-0.0151466
0.00123776
0.00200367
-0.0160921
0.0128309
-0.00420892
-0.0230968
0.0022249
-0.0190498
0.00318492
0.00111455
-0.00632349
-0.0252231
0.00212868
-0.0228126
-0.0212455
0.00496382
-0.0541797
0.00347337
-0.0387286
0.00237796
-0.00384868
0.00181249
-0.00208016
0.00847056
0.00208021
0.00200964
0.00145189
0.00970159
0.000546439
-0.0385688
-0.0098485
0.00162073
-0.0517673
-0.0347398
0.0145828
0.00709922
0.00555373
0.000332754
-0.0528288
0.00136475
0.00480974
-0.033708
0.000600943
-0.00406438
0.00290746
0.00202611
-0.000332292
-0.0255608
0.00173818
0.00441451
0.00151931
0.00963882
-0.0341825
-0.0040029
-0.000705403
0.00138289
0.00586263
-0.0135033
0.00111982
-0.0303641
-0.0809862
0.0027621
-0.0137324
-0.0132785
-0.0320474
-0.0392377
-0.00870965
0.0024723
0.00333555
0.00253258
0.000758996
-0.0465359
-0.0231418
0.00230036
-0.0141702
0.000455569
0.00135296
0.000586567
0.00134888
0.00249392
-0.0228306
-0.00549219
-0.00629131
0.00232846
-0.00953717
0.000797215
0.00199478
0.00216912
0.00165024
0.000491942
0.00312147
-0.0480767
0.00200784
0.00384027
0.0119155
-0.0274427
0.00519885
0.00281964
-0.0175044
0.00595201
-0.00384288
-0.0604566
-0.000116745
-0.000244421
0.00209871
0.00189869
-0.0251607
0.00176306
0.000195765
-0.00243253
-0.0247242
0.00132664
0.00151534
0.00205588
-0.028559
0.000668716
0.00289527
0.00755418
-0.0176057
0.00105656
-0.00208859
0.000452696
0.000265899
-0.0502631
-0.0116513
0.00345777
-0.0262041
-0.065552
-0.0458046
-0.00702384
-0.00143713
-0.00364673
0.00078871
-0.0446128
-0.0537149
-0.00547669
0.00205881
0.0108825
-0.0124712
-0.00949313
0.000464668
0.000210996
0.00167815
-0.0209443
-0.0358606
-0.0109285
-0.0392469
-0.00469947
-0.0269344
-0.0213266
-0.0307177
-0.0014238
0.000147531
0.00285441
0.00141711
-0.0121428
-0.0246154
0.0118054
-0.0169937
-0.00295123
-0.00688873
-0.0232917
0.00456973
0.00960117
0.00270836
0.00213355
-0.0455143
-0.0111166
-0.0263403
0.000781282
-0.0299581
-0.0278307
0.00270679
0.00230551
-0.0516997
-0.0163208
0.000174558
0.00503915
-0.0159247
0.0019119
-0.0397461
-0.000798689
-0.0178401
-0.0677314
-0.0688794
-0.0324693
-0.0593986
0.00199007
0.000114877
0.0015511
-0.00917194
-0.00287542
-0.0138046
0.00013373
-0.0225401
0.000516051
-0.00535512
-0.0245738
-0.0208702
-0.0497154
0.00356873
0.00948321
-0.0440024
0.00228826
0.002233
0.00124878
0.00138486
-0.0450286
-0.00438992
0.000398238
-0.0563223
-0.0032242
-0.0575608
-0.0473883
0.00413913
0.000790555
8.56179e-06
-0.0207618
-0.0411561
0.00478889
0.00168518
0.00197872
0.000715635
-0.0267775
-0.0220632
-0.0398276
0.0017598
0.00134948
0.00180081
-0.0420476
-0.0651178
-0.0250058
-0.00174743
-0.0218728
0.00056692
0.00233614
0.00477188
-0.0277801
-0.0045944
-0.0217523
-0.019432
0.00136351
-0.0493326
0.00598963
-0.00574434
0.00136406
0.00150819
0.00273857
0.00202052
0.000115777
-0.00207256
0.00174093
-0.0166503
0.00171421
-0.000606999
0.00070573
-0.0310635
-0.0122855
0.00127244
0.000137039
-0.0277684
-0.0401538
0.00124255
0.00170847
0.00135533
3.66556e-05
0.000602272
-0.00371485
-0.0208444
-0.0313654
0.00221574
0.00059707
0.00105934
-0.014135
0.00467285
-0.0080939
0.00114458
-0.0359749
-0.000446719
0.00297269
-0.046111
-0.0762644
-0.026072
-0.000575731
0.00158955
-0.00825905
-0.0536864
0.0017752
-0.00376507
-0.0167333
0.00345128
-0.0590793
0.00174504
0.00295288
0.00118843
0.00285064
0.00418235
0.00176249
0.000886692
0.0054759
0.00743273
-0.0412531
0.000899545
-0.0207469
0.0013422
0.00372363
0.00124786
-0.0375949
0.00149304
-0.0151447
-0.0176253
-0.00248132
-0.0168479
-0.026006
-0.00664032
-0.0647217
-0.00357176
-0.0298315
-0.00565111
-0.0173767
-0.029844
-0.0130587
-0.0277221
0.00202593
0.00184978
0.00375947
-0.0202456
-0.0147859
-0.0265843
0.000305818
0.00238646
0.000480451
0.00414953
0.000445668
-0.0290613
-0.0414868
-0.0271392
-3.98295e-05
-0.0305986
-0.0559577
0.000881958
0.0128359
-0.0203427
-0.0504113
-0.0101314
-0.0261421
-0.0306163
-0.00690246
0.00084787
0.00238815
0.00229169
0.000282319
-0.0817372
-0.0206619
-0.0398361
5.91295e-06
0.00211926
0.00198969
0.0122457
0.00117866
-0.0135067
0.00207413
6.70988e-05
-0.0203457
-0.0503323
-0.0492066
0.00121377
-0.0310969
0.00244448
0.0031321
-0.0221554
-0.0136261
-0.0175043
-0.0248205
0.000100046
-0.0168387
0.00189347
0.000927909
-0.0122157
9.83371e-05
-0.0321054
-0.0536204
-0.0208774
0.00178914
0.000482487
-0.000194723
7.20075e-05
-0.00728256
0.00224068
0.00540294
-0.0258824
-0.0414346
0.00460444
-0.0145846
-0.0205073
-0.0569409
-0.0197573
-0.0187404
0.00230739
-0.00217959
0.00716153
-0.0458787
-0.0164423
0.000506658
0.000246908
-0.0106613
-0.0256992
0.00275885
-0.0267153
-0.00319488
7.40185e-05
-0.0221217
-0.065083
-0.00403974
-0.00232515
-0.0370036
-0.0357652
-0.0315731
-0.0194836
-0.0224888
0.000404029
0.00484533
0.00118204
-0.0411262
-0.0281461
2.33362e-05
-0.000315179
2.76934e-06
-0.0370762
-0.0183146
4.92211e-05
0.00208454
0.000716821
-0.0299964
0.00321064
-0.0269177
-0.0480183
-0.0265676
-0.0476424
0.00719398
0.0112936
-0.079083
0.00233652
-0.000835462
0.000133674
-0.0233627
-0.0411387
-0.0287916
-0.0298605
-0.0452529
-0.0239662
0.00158286
-0.00621317
0.00200343
-0.0235996
-0.0570279
-0.00505183
-0.0576946
0.000440733
-0.0232002
-0.00154597
-0.0085715
-0.0502287
0.000378833
-0.00251403
-0.041275
-0.0170358
-0.0113236
-0.00398136
-0.0143512
-0.0227482
-0.0155712
0.000488938
0.00204281
-0.026512
0.00525039
-0.0332017
0.00181233
-0.00881591
-0.0268111
0.00160054
-0.00582662
-0.0809932
0.00595987
0.00178823
0.000810472
0.00102779
-0.069543
0.000106237
0.0079039
0.000779536
-0.0110616
-0.0122663
-0.0375962
0.000995933
0.00200417
0.000276537
0.000246747
-0.0227288
1.02343e-06
0.00127637
0.000327003
-0.0200801
-0.00314491
-0.00654459
-0.00690039
-0.0452096
0.00104373
0.00608847
-0.0296556
0.00429328
0.000234824
0.00140674
0.0020952
-0.0203012
-0.0809413
-0.0481387
-0.0292459
-0.0394253
-0.00110889
-0.0820082
0.00318837
0.000218308
0.00206427
-0.0346617
0.00196699
-0.0343978
0.00382037
-0.029188
0.000902825
-0.0271308
0.0142109
-0.0424561
-0.00320228
-0.0256944
0.00728901
-0.0545875
-0.0234969
-0.0200271
-0.00160698
0.00256592
-0.0151215
-0.0349383
-0.0567724
-0.000828931
-0.01344
0.00255113
-0.022044
0.00417501
-0.012931
0.00174473
-0.0574618
-0.00597215
0.00189196
-0.00493461
-0.0176047
-0.019748
0.00042698
-0.0466105
-0.0443435
0.002041
0.00146506
0.00496362
0.00281276
-0.0281284
0.00183386
-0.0293377
0.00332774
0.0017322
-0.0142533
-0.0314552
-0.026665
-0.00161941
0.000978048
-0.0257347
0.00150481
0.00190237
-0.0283503
-0.0578553
0.000421314
-0.029471
0.000742366
-0.0559857
-0.00923392
-0.039226
0.00149347
0.000538891
-0.0446625
-0.0220616
0.00338053
-0.0307257
-0.0375073
-0.0526246
0.00110375
-0.0818045
-0.0323706
0.00416033
-0.00511112
0.00207654
0.00116761
0.000205413
-0.0817594
-0.0504507
0.001596
0.000115394
-0.0403963
-0.0215434
-0.00234423
0.00164664
0.00279053
-0.0239683
0.00137758
-0.00918626
-0.0433278
-0.00886166
-0.000329459
0.00140145
-0.0210603
-0.0241254
-0.0187647
-0.0126391
-0.0660586
0.0105276
-0.00999503
0.00169932
-0.0140499
0.000513318
-0.0777348
0.000185086
-0.0822642
0.00159772
0.00139158
-0.0379022
0.00101307
-0.00492308
-0.0309266
-0.00023069
0.00204827
0.00162269
-0.059707
-0.00374848
0.000933173
0.00274215
0.00705048
0.000124412
0.0117673
0.00143001
0.000183487
-0.0242875
-0.0505659
-0.00295195
-0.0419545
0.00296396
0.000321215
-0.00798934
0.0135145
0.00167906
0.00231637
-0.00598608
0.00291017
-0.0246569
-0.0188075
0.00155078
0.00198216
-0.0354908
-0.0488677
0.00209289
0.00223376
8.81479e-05
-0.0275534
0.00454943
0.000478976
-0.056192
-0.0371427
0.00284487
0.00138725
0.00364131
-0.00630401
0.00228914
0.00289765
0.00127585
0.0018276
0.00180812
0.000304341
-0.0017661
0.000202834
-0.00376368
0.00169601
0.00300775
-0.000173417
0.00997738
-0.0280115
0.00345371
-0.0283589
-0.00284911
0.00184948
-0.00632456
-0.00164331
-0.00524646
-0.0304515
0.000498019
8.99555e-05
0.0015707
0.00781182
-0.0034732
0.0134294
-0.0577171
-0.0309866
-0.0448885
0.00099131
-0.0258817
-0.0548588
-0.0247078
-0.0260762
-0.0312768
0.00487456
-0.00685337
-0.0320289
-0.0061002
-0.00826277
0.000601589
0.00350807
0.000799807
0.00191856
-0.0575804
-0.0241437
-0.00695264
0.0014247
-0.0262173
0.00186947
0.000292361
0.00186608
0.00153498
-0.00569775
-0.00202743
-0.00227457
-0.0224071
-0.031879
0.00148251
-0.0658969
-0.02929
0.0036037
0.00142217
-0.0311719
-0.0300363
0.000628373
0.00213414
-0.0571656
-0.000690517
-0.00068746
-0.0300197
-2.48765e-05
0.00388948
0.00233521
-0.00385804
0.0123851
-0.0599978
-0.00420998
0.00201143
-0.000250482
0.00252818
3.893e-06
0.00278126
0.000386619
0.00165249
-0.0560797
-0.0340806
-0.00253063
0.00822668
-0.0328392
-0.0112895
-0.0385945
-0.0178718
0.00230298
0.00205959
0.0020023
0.00028558
-0.00436774
0.0130292
-0.00148459
-0.0320116
-0.0813408
0.0022985
-0.0266022
0.00140419
-0.0167343
-0.0166218
-0.00888973
-0.00451554
0.00333237
-0.00228378
-0.0314085
-0.00451297
-0.0123149
-0.0354747
-0.0493268
-0.0254636
-0.004694
0.00137624
-0.0503648
-0.0283691
-0.029697
-0.000457877
0.00271847
0.00160254
-0.0755888
0.0152845
0.000103465
-0.0224053
-0.0219651
-0.0511681
0.0013166
0.00168435
0.0106047
0.00158985
0.00129865
0.00016476
-0.013277
-0.0250852
0.00159751
-0.0115729
0.00250404
-0.0172048
-0.0596166
-0.0267383
-0.055963
0.0011326
-0.0411911
-0.0827667
0.00227789
0.00530192
-0.00153323
-0.0134045
0.00135395
0.00041627
0.00463848
0.00242552
-0.0259579
0.00117718
0.00329538
0.00555954
0.00246877
-0.0516607
-0.0501267
0.00118181
-0.0567273
-0.0155972
0.00013716
0.00396681
-0.0349297
0.00202724
2.09353e-05
0.000138011
0.0019594
-0.0801912
0.0074503
8.20925e-05
-0.0119444
0.00241838
-0.0341677
-0.0179706
-0.0236543
-0.028314
-0.0250792
-0.0259053
-0.0287234
-0.0516833
-0.0213692
-0.0267463
-0.0315075
-0.047777
0.00320652
-0.0223711
0.00223595
-0.026094
7.77171e-05
-0.0434757
-0.0596647
-0.00261144
0.00469801
0.00524642
-0.0353047
-0.00443635
-0.0812701
0.000155699
6.5204e-05
7.62051e-05
-0.0274887
0.00191757
-0.0252637
-0.0602593
0.000547787
0.000987824
-0.010785
-0.0265454
-0.0404674
5.20858e-05
0.00194262
0.00179251
-0.0138508
0.00106315
-0.0585415
-0.0332207
0.000947361
0.00120768
0.00168735
0.0007412
-0.0154711
5.93434e-05
0.000365798
-0.0343876
9.32185e-05
0.00172446
0.00024008
-0.0620977
-0.0119303
0.0046567
-0.0258202
-0.054673
0.0034388
-0.0311235
-0.049078
-0.0485789
-0.0182839
0.000128788
-0.00108581
-0.0540029
0.00739316
-0.000253786
-3.7868e-05
-0.0592773
-0.0225065
-0.00226281
0.00770948
6.00224e-05
0.000680179
-0.00822115
0.000961335
-0.0585131
0.00512332
-0.0260266
-0.0253128
0.000833437
7.32038e-05
-0.00813683
-0.0113739
-0.036383
-0.0760481
-0.0808265
-0.00854126
-0.0058784
0.0109263
0.000519426
-0.0722351
-0.00427014
0.000900552
0.00818295
0.00224051
-0.0246822
-0.0312966
-0.074711
0.000469503
-0.0247667
-0.0232711
0.0124441
-0.0480681
-0.0527352
-0.00345681
0.00277588
-0.0254466
0.00564015
-0.00627334
-0.0447665
0.00070733
-0.0144223
-0.0472707
0.00180817
-0.00894552
-0.0479777
-0.0273327
0.00198049
-0.0124729
0.00875878
-0.0230714
0.000122215
0.00197448
-0.0529886
-0.0121263
-0.0295191
-0.024588
-0.0236897
0.00131271
0.0022984
2.65795e-05
-0.0292311
7.87249e-06
0.00144475
0.000145649
-0.0556978
-0.00374966
0.00329316
-0.00553708
0.00201543
-0.0807213
-0.00172022
0.00180072
-0.00149559
-0.0768747
-0.00935901
-0.0322561
-0.0121229
-0.0281655
-0.0296309
0.00215653
-0.050143
0.00687073
0.0011561
-0.0243423
0.00490298
-0.0424863
0.00202813
0.00297532
0.00114147
0.000124826
-0.0495957
0.0025624
0.00143555
-0.0372851
0.00234352
9.08315e-05
0.00137977
-0.000179812
-0.0583391
0.000763915
0.00124993
-0.0320944
0.000329128
-0.0199584
0.00234238
-0.0293833
-0.0330282
-0.0519702
-0.033458
-0.0255346
0.0018456
1.79565e-05
-0.0338864
-0.0269958
-0.00835388
0.00544466
-0.0284918
-0.0446257
0.00163995
-0.0573904
-0.0436993
-0.0515165
-0.0475543
-0.0216057
-0.0348062
-0.0313142
-0.010248
-0.0250633
-0.00531981
-0.0321113
-0.0207087
-0.026989
-0.0116014
0.0112483
0.00135931
-0.0417131
0.00197341
-0.0674165
0.000185192
-0.0439994
-0.0175822
0.00129201
0.000147933
-0.0606162
-0.0589775
-0.0258045
0.00292439
0.00189192
-0.027069