/*--------------------------------*- C++ -*----------------------------------*\
| =========                 |                                                 |
| \\      /  F ield         | OpenFOAM: The Open Source CFD Toolbox           |
|  \\    /   O peration     | Version:  v2012                                 |
|   \\  /    A nd           | Website:  www.openfoam.com                      |
|    \\/     M anipulation  |                                                 |
\*---------------------------------------------------------------------------*/
FoamFile
{
    version     2.0;
    format      ascii;
    class       surfaceScalarField;
    location    "200";
    object      phi;
}
// * * * * * * * * * * * * * * * * * * * * * * * * * * * * * * * * * * * * * //

dimensions      [0 3 -1 0 0 0 0];
oriented        oriented;


internalField   nonuniform List<scalar> 
22766
(
0.0421611
-0.00489083
-0.0372702
0.0792915
0.00454025
-0.0838318
0.215272
-0.0675484
-0.147724
0.693331
-0.342523
-0.350808
0.0430986
0.10174
-0.144838
0.506895
-0.442241
-0.0646534
-0.0443046
-0.0650492
0.109354
-0.647049
0.545959
0.10109
-0.52585
0.639045
-0.113195
0.413303
-0.244579
-0.168724
-0.0282692
0.206988
-0.178719
-0.0779824
0.577445
-0.499463
0.0556721
-0.284197
0.228525
-0.203517
0.0359482
0.167569
0.150203
-0.137797
-0.0124051
0.117887
0.464575
-0.582462
-0.063635
0.0997396
-0.0361046
0.128803
-0.0196686
-0.109134
0.0423191
0.400532
-0.442851
-0.00497693
-0.130783
0.13576
0.124934
-0.650784
-0.0359824
0.0638319
-0.0278495
-0.0877566
-0.0537455
0.141502
-0.493852
0.618786
0.0993756
0.115897
0.029629
-0.0416618
0.0120327
-0.0606344
-0.0299384
0.0905727
-0.592843
0.447469
0.145374
0.134612
-0.148328
0.0137153
-0.123492
-0.375271
0.498763
0.608711
-0.461323
-0.147389
-0.0253355
0.11042
-0.085084
0.465703
0.150849
-0.616552
-0.14837
0.388743
-0.240372
-0.117024
0.0916884
-0.0471942
-0.0501626
0.0973568
0.18619
0.227113
0.00777385
0.310073
-0.317847
-0.191052
-0.0124644
0.0249126
0.10389
0.587992
-0.494739
-0.0932527
-0.0417075
-0.0282932
0.0700007
0.714962
-0.600673
-0.114289
-0.29127
0.0684166
0.222854
0.132727
-0.498941
0.366213
0.619572
-0.496166
-0.123406
0.178464
-0.0351954
-0.143268
-0.118491
-0.456731
0.575222
-0.13407
0.14354
-0.00947086
0.479126
-0.64375
0.164625
-0.558514
0.0646615
-0.653932
0.518692
0.135241
0.284566
-0.288506
0.00394026
-0.175064
-0.272981
0.448044
0.00660442
0.00722252
-0.0138269
-0.330654
0.463382
0.217935
-0.101715
-0.116219
-0.409442
-0.100485
0.509927
0.33325
-0.325477
-0.0247852
0.0247852
-0.0160049
0.0952964
0.105263
0.473154
-0.578418
0.285418
-0.000852195
-0.369423
0.411135
-0.041712
-0.128983
0.172082
-0.0489487
0.0484676
0.00048112
-0.123124
-0.375816
0.405132
-0.150933
-0.254199
0.204398
-0.223086
0.0186872
-0.515952
0.699304
-0.183352
0.429688
0.0318412
-0.46153
0.0612095
-0.148966
0.305315
-0.121423
-0.183892
-0.514916
0.391791
-0.0994377
-0.22836
0.327798
-0.212071
0.0113717
0.200699
-0.092672
0.029037
0.560977
-0.0952747
0.474672
0.132305
-0.606976
0.0562607
-0.103455
-0.0525794
0.0405405
0.0120389
0.0235495
-0.135396
0.111847
-0.093879
0.117428
0.116494
-0.089619
-0.0268752
0.205634
-0.00294602
-0.202688
-0.0317982
0.0384026
-0.0620156
-0.307407
0.033809
-0.0944434
0.430167
0.0767282
-0.478366
0.303302
0.0342975
-0.0294834
-0.00481408
0.274078
-0.218406
-0.14329
-0.371626
0.073554
-0.0524201
-0.021134
-0.137176
0.132199
0.0888568
0.0276375
-0.529945
0.652606
-0.12266
-0.0423136
-0.00663511
0.148128
0.460583
0.0444836
-0.0389444
-0.00553922
-0.659341
0.129396
-0.214764
0.343194
-0.12843
-0.0736455
0.096837
-0.0231915
0.624072
-0.506185
0.593874
0.00360016
-0.597474
0.518122
0.134484
0.0106289
-0.00692089
-0.00370802
0.323129
0.0984983
-0.421627
0.597436
-0.301016
-0.29642
-0.105962
-0.0861828
0.192145
0.589381
-0.589381
0.0627998
-0.296194
0.233394
-0.482574
0.359082
-0.563936
0.0105879
0.553348
-0.1332
-0.430736
-0.426599
0.586917
-0.160318
-0.0118285
0.121581
-0.109752
0.620288
-0.145616
0.0656011
-0.075635
0.0100339
0.0350944
-0.0297907
-0.00530369
-0.377629
0.162865
0.105296
0.00449488
-0.109791
0.00469098
-0.00201696
-0.00267401
0.359053
-0.316734
-0.0874197
-0.0296042
0.599898
-0.188434
-0.411464
0.0960866
0.3517
-0.447787
0.0264028
-0.0623851
-0.127203
0.0397836
0.21928
0.378156
-0.624444
0.493988
0.130456
0.102778
0.00251794
0.0192658
0.383855
-0.403121
0.0410557
0.00110543
0.0789074
-0.512372
0.433465
0.399141
-0.542431
0.0442799
0.336674
-0.380954
-0.634057
0.118104
0.0654975
-0.17146
0.133429
-0.281799
-0.195824
0.247555
-0.051731
-0.000118568
0.11618
-0.116061
-0.729953
0.548817
0.181136
0.0386015
-0.00897249
0.00136052
0.00333045
0.0914416
-0.25117
0.159728
-0.0526511
-0.15942
0.189031
0.30176
-0.490792
0.326702
-0.11291
-0.213792
0.0551067
-0.286045
0.230938
0.0991888
0.494686
-0.100533
0.0902029
0.0103302
0.539644
-0.105372
-0.434272
0.13028
0.0359727
-0.166252
0.00112584
-0.062193
0.0610672
-0.385514
-0.0288281
0.414342
0.123431
-0.100834
-0.0225974
0.451424
-0.128295
0.619904
-0.495925
-0.12398
-0.0303128
0.235947
-0.437616
0.550653
-0.113037
0.127888
-0.503107
0.375219
0.12442
0.180895
-0.126968
0.332901
-0.205933
-0.296469
0.485501
0.268248
0.425083
0.449375
-0.598997
0.149622
-0.0741303
-0.66923
0.281535
0.387695
0.44851
-0.526493
0.0278095
-0.188107
0.160298
-0.270908
-0.142386
0.413294
0.132101
-0.201078
0.0689775
0.0244632
-0.409977
-0.252634
0.331983
-0.0793493
0.0469061
-0.207611
0.160705
-0.0228302
-0.0297492
-0.408128
-0.261103
-0.1048
0.100293
0.00450696
-0.0353492
0.046457
-0.0111079
-0.231351
0.0355269
0.748021
-0.41969
-0.328331
-0.299864
0.625394
-0.32553
0.249282
-0.147542
0.0887426
0.160539
0.126979
-0.0715077
-0.055471
0.0338122
0.4033
0.344721
0.0501619
-0.55238
0.502218
-0.000317326
0.0109462
0.650214
-0.220348
-0.429866
0.0131184
-0.116645
-0.0174241
0.171089
0.416903
0.116718
-0.255932
0.139214
0.0658572
-0.0002561
-0.09925
0.558599
-0.453336
-0.0706574
-0.0808158
0.151473
-0.0594828
-0.0272043
0.086687
-0.120651
0.573724
-0.453073
-0.359109
0.106475
0.626129
-0.486561
-0.139568
-0.223033
0.27814
0.00217004
-0.544941
0.184678
0.360262
-0.198168
0.164615
0.0335533
-0.129341
-0.33841
0.467751
0.0906983
0.0197212
0.027663
0.0133926
0.0284619
0.0712778
-0.461124
0.27466
0.186465
0.245772
0.428109
-0.673881
0.504706
-0.376819
0.0909637
-0.0625018
0.403253
-0.233062
-0.170191
-0.391771
-0.255278
-0.137043
0.100491
0.0365521
0.569324
-0.0233648
0.332662
-0.652756
0.320095
0.224708
-0.177802
-0.22847
0.00794334
0.053748
-0.0616914
-0.0159433
-0.491717
0.191853
-0.0366379
0.0238372
0.0128008
0.148045
-0.0994152
-0.0486296
-0.316541
0.27212
0.0444215
0.0789964
-0.123301
-0.0896504
0.419076
0.0975008
-0.516577
0.0628064
0.0641723
-0.0019182
0.0461469
-0.0442287
0.0168887
-0.127097
0.110208
0.295131
-0.068337
-0.226794
-0.018443
0.204979
-0.186536
-0.401876
-0.0649202
0.466796
-0.13418
0.250406
-0.033275
0.000123349
0.0331516
0.0671348
0.22812
-0.295255
-0.217628
0.358324
-0.218237
-0.055607
0.273844
-0.0210357
-0.179955
0.200991
0.0463173
-0.0186543
-0.186223
0.0424651
0.143758
0.0681458
-0.456562
0.388416
0.158441
0.244812
-0.115477
0.0436504
0.0718264
0.0359635
0.0375905
-0.0244702
0.15475
0.451003
-0.587082
0.136078
-0.00438659
0.0647171
-0.0603306
0.661294
-0.309807
-0.351488
0.170721
0.368877
-0.539598
0.0118547
0.0519771
0.232032
-0.33147
0.532461
-0.513196
-0.0476348
0.0555781
0.515345
-0.344624
0.0703031
-0.0185606
-0.0517425
0.0031984
-0.0548112
0.0516127
-0.0309663
-0.00230869
-0.0861302
0.0266475
0.00373039
-0.00236986
0.0293846
-0.0317013
0.00231679
-0.0461618
0.0472876
0.578536
-0.486988
-0.0915483
0.0300104
0.0609533
-0.0805757
0.231085
-0.150509
-0.148439
0.113296
0.0351432
-0.126878
0.595172
-0.468294
-0.0393413
-0.00485181
0.0441931
0.503931
-0.425024
0.239316
0.0144016
-0.253717
-0.0410288
0.0391106
0.0293073
-0.00622853
-0.0230787
0.479022
-0.0462075
-0.432814
0.269078
-0.152361
-0.00714406
-0.036997
0.0441411
-0.636166
0.198408
0.437758
0.105155
-0.410252
0.305097
0.264308
-0.268352
0.00404382
-0.299179
0.273239
0.0259399
-0.0819432
-0.0664957
-0.235872
-0.0633064
0.182547
-0.185493
0.401813
0.164308
-0.566122
0.0693127
-0.096517
-0.106944
0.142917
-0.0826032
0.0782166
-0.0200445
0.191086
-0.171041
0.61884
-0.169465
-0.440477
0.169569
-0.0288111
0.0338595
-0.00504841
0.1538
-0.0196262
-0.134174
-0.196032
0.174996
-0.146549
-0.452448
-0.242252
0.161676
0.00242936
0.261879
0.0210877
-0.455703
0.434615
-0.177763
0.0381441
0.139619
-0.374805
0.286867
0.0879379
0.424388
-0.122474
0.103903
0.018571
-0.386816
-0.24935
-0.394435
0.43458
-0.496219
0.0616387
-0.000466527
0.0298511
0.12965
0.0183946
0.0116029
0.0177044
0.0407408
0.154444
-0.195185
-0.432524
0.277326
0.155197
-0.0459627
0.00662136
0.159913
0.459658
0.364825
-0.669738
0.285979
0.383759
-0.665583
0.27925
0.386333
0.202816
0.591829
-0.112704
0.253443
-0.390477
0.137034
0.490719
-0.611462
0.120742
0.158575
-0.286997
0.128422
-0.0610407
-0.011976
0.0730167
0.139033
0.014767
-0.003317
0.00130004
0.0819481
-0.0570354
-0.405832
-0.25975
0.67
-0.292054
-0.377947
-0.639958
0.196483
0.443476
-0.115453
-0.462922
0.578375
-0.0947975
0.253373
-0.0582826
0.061481
-0.210978
-0.250146
-0.122841
0.136714
-0.0138727
-0.112968
0.63109
-0.348097
0.637182
-0.289085
-0.171114
0.146643
0.18879
-0.152842
0.0525112
-0.0165477
-0.215816
0.00258648
0.21323
0.00438107
0.117411
-0.121792
-0.0185926
-0.113197
0.13179
-0.0241321
-0.191684
0.0412525
0.548129
-0.0639511
0.0222436
-0.15684
-0.0635007
-0.0519761
-0.15361
0.18142
-0.171771
0.192272
-0.020501
0.403429
-0.21351
-0.189919
-0.408923
-0.260815
0.283212
-0.416412
-0.0859705
0.0858519
-0.357618
0.432809
-0.0751911
-0.182245
0.166922
0.0153223
0.177369
-0.487176
0.24711
0.42289
0.00510285
0.439022
-0.444125
0.318502
-0.0656324
-0.473161
0.439854
0.0333069
0.457577
-0.573029
0.0345698
0.120287
-0.154856
-0.445135
-0.0280264
-0.310113
0.378259
0.518056
-0.0883678
0.223802
-0.13236
0.00590989
0.117011
0.0265293
0.22308
0.193221
-0.416301
-0.302035
0.479404
-0.661228
0.527374
0.133854
-0.122957
0.139846
0.526298
-0.124485
0.592239
-0.488076
-0.104164
-0.639626
0.213027
-0.148783
-0.480991
0.629774
0.0321347
0.507509
0.171736
-0.350405
0.17867
0.298706
0.104723
-0.0992768
0.0837631
0.0155138
-0.0565752
-0.070628
-0.499552
0.323886
0.175666
0.0619492
-0.280186
-0.0250351
0.180266
-0.285524
0.531296
0.0383878
-0.0533692
0.0149814
0.086198
0.40235
-0.488548
-0.159347
-0.28113
0.0661468
0.17586
-0.242007
0.117252
-0.24422
-0.505804
-0.188236
0.0164648
-0.228977
-0.26967
0.025648
0.244022
0.167654
-0.299799
0.132145
-0.553158
0.447786
0.0872006
-0.370087
0.282886
-0.0172848
0.0556725
0.0147859
0.135417
0.718869
-0.310836
-0.408033
0.169122
0.0477996
-0.216922
0.769453
-0.400576
0.114755
0.307917
-0.422672
-0.111368
0.124925
-0.0135572
0.596787
-0.0583573
-0.538429
0.0687538
-0.245463
0.176709
0.150386
0.32139
-0.153737
0.500327
0.269126
0.310195
-0.244897
-0.0652974
-0.471619
0.476722
-0.0270257
-0.169006
-0.16058
-0.0171835
0.437082
0.149836
-0.199565
0.422645
-0.0602117
-0.126011
0.376816
-0.405644
0.528205
-0.109128
-0.116514
0.0927636
0.0237509
0.522583
-0.353448
-0.169135
-0.0486429
0.0792622
-0.0306194
0.377682
-0.205947
-0.213879
0.183566
-0.0499924
0.261165
-0.211172
-0.123667
0.48272
-0.0315218
0.408338
0.190948
0.40895
0.0328143
-0.0814572
0.0113658
0.0589373
-0.570911
0.161469
-0.559402
0.440911
0.368555
0.350314
0.484713
0.0948147
-0.579528
0.523597
0.0731893
-0.0554425
0.00896539
0.0464772
-0.0360173
-0.0804971
0.422733
0.0998499
-0.146149
0.131596
0.0145535
0.251365
0.463597
-0.403586
0.180381
0.223204
-0.62615
0.485915
0.140235
-0.0430204
0.00199162
-0.19923
0.0169852
-0.00683448
-0.0542062
-0.12467
0.166586
-0.0419165
-0.278301
0.412792
-0.134491
0.00961949
0.134563
-0.144183
-0.561747
0.105185
-0.325661
-0.0415142
-0.0139284
-0.135622
-0.325779
0.461401
0.0239325
-0.0239325
-0.330871
-0.295279
0.334214
-0.417574
0.0833596
-0.0148162
0.113907
-0.0990912
-0.0658939
0.0554486
0.0104452
-0.425656
-0.0879361
0.513592
0.0908296
0.335812
0.115613
0.0100497
0.168414
-0.517342
0.416857
0.173491
-0.193536
0.0623064
-0.136102
0.073796
0.346045
-0.4395
0.0934542
-0.11182
0.578717
-0.466896
-0.0256133
-0.0670587
-0.0454837
-0.153746
-0.199788
0.172763
-0.450368
0.0127523
0.048044
-0.0390786
-0.141639
0.18238
-0.0687697
-0.0156453
0.084415
0.0221095
-0.331749
0.309639
0.47041
-0.62104
0.15063
0.395809
-0.290653
0.0843969
0.102821
-0.187218
0.014231
0.0208634
-0.211493
-0.124035
0.335528
-0.233187
-0.11151
0.344697
-0.0745539
-0.207231
0.281785
-0.31523
-0.00131085
-0.461705
0.526223
-0.0556265
0.276829
-0.0544449
-0.222384
-0.237819
-0.165767
0.137055
0.489075
-0.0779441
0.412158
0.5622
-0.162104
-0.400096
0.401123
0.161077
-0.328007
0.424094
0.439861
-0.588644
0.00946528
0.0385787
0.0363143
-0.0027674
-0.0335469
0.0252066
0.00909089
0.0931816
-0.118143
0.0249613
-0.00952658
0.144139
0.00718734
0.110524
-0.117711
0.032877
-0.0210223
0.329261
0.0758707
-0.110859
-0.00692389
0.117783
-0.145642
-0.488415
0.0436769
-0.182432
0.138755
0.119698
-0.0265164
0.127652
-0.0653459
-0.425011
-0.124497
0.549508
-0.345368
0.101007
0.244361
0.0486722
0.228157
0.485924
-0.189247
-0.296678
-0.0699303
0.0810462
-0.0111159
-0.100536
-0.273115
0.605777
-0.572799
-0.0278734
0.315406
-0.0994961
-0.215909
-0.554333
0.4193
0.135033
-0.0245768
-0.0669985
0.0915753
-0.0496276
0.0469653
0.00266232
-0.000729332
-0.0240558
0.011623
-0.0185439
0.0197283
0.159183
-0.178912
0.498528
0.0937111
-0.0952271
-0.102941
0.41335
0.0875132
-0.500863
-0.0887288
0.0187985
-0.278415
0.22397
0.472762
0.146078
-0.163448
-0.27395
0.437398
-0.0543923
-0.196777
-0.101655
0.0898266
0.030344
0.00763535
-0.0379794
-0.101576
0.514926
0.130677
0.00113715
-0.131814
0.199169
-0.0235767
-0.175592
0.0950476
-0.100186
0.0051387
0.39506
0.0765742
-0.471635
-0.464893
-0.090054
0.554947
-0.118621
0.203018
-0.14943
-0.283094
-0.05577
-0.0865695
0.142339
-0.261962
-0.217214
0.479176
-0.0368392
0.000116609
0.0367226
-0.246091
-0.148822
0.394913
0.066279
-0.078255
-0.00884747
-0.038821
0.0476685
-0.173498
0.0724828
0.0248504
-0.0973333
0.04664
-0.17131
0.113689
-0.0972927
-0.0163958
-0.301631
-0.0957734
0.397405
-0.513032
0.636914
-0.123882
-0.0941754
0.612867
-0.0269905
0.0329169
-0.00592649
-0.00207058
-0.017199
0.0192696
0.143479
-0.56849
-0.220998
0.367561
0.00209241
-0.0336541
0.0315617
-0.146574
-0.00561001
0.152184
0.256551
-0.234441
-0.147324
-0.428414
0.163212
0.265202
-0.32619
0.415322
-0.0891312
-0.221221
0.202778
-0.0178933
-0.117503
0.149895
-0.185091
-0.0533848
0.0118706
0.0330452
-0.0351158
0.0502447
-0.00409779
-0.468809
0.339468
0.537716
-0.395925
-0.141792
0.0164865
-0.127854
0.2653
-0.22583
-0.0394693
0.430355
0.107361
0.0862773
-0.387909
-0.00445719
0.486812
-0.482355
0.231812
0.107168
-0.33898
0.0489326
-0.00138473
-0.0475479
0.0770283
-0.0107493
-0.0339766
0.000795913
0.0331807
-0.074174
-0.0628688
0.205731
0.280193
-0.0397991
-0.108529
0.00248313
-0.00057098
-0.00191215
-0.00196858
-0.0278221
-0.0400411
0.0459659
-0.00592482
0.00258042
-0.125537
0.473355
-0.433496
-0.245938
0.271586
-0.0825536
0.0259289
0.0566247
0.333797
-0.445617
0.626999
-0.52111
-0.105888
-0.00148951
-0.200667
0.0543328
-0.0679972
0.0136644
0.56677
-0.0963598
0.0905329
-0.0258158
-0.226089
0.165877
-0.000223731
-0.115927
0.116151
-0.026032
0.0253957
0.00063625
0.053427
-0.01187
-0.041557
0.0983248
0.233658
-0.599198
0.136276
-0.125555
0.355576
-0.311296
-0.0750265
0.103357
0.097737
0.0159516
-0.10809
0.033064
0.340538
-0.453352
0.112814
-0.0687457
-0.00967576
0.0784214
-0.152178
0.599647
-0.27775
0.0814584
0.196291
-0.0536099
0.217865
-0.164255
-0.00323873
0.124819
-0.0380858
0.0385303
0.201646
0.0189492
0.48247
0.0960663
-0.419346
-0.241882
-0.425386
0.161654
0.263732
0.256989
-0.407921
-0.204882
0.0318123
0.17307
0.0377288
-0.097543
0.591531
-0.654534
0.408981
0.245553
0.469121
-0.595999
-0.425986
0.56149
-0.135503
-0.207778
0.0264302
0.181348
-0.521908
0.173811
0.0622578
-0.0921962
-0.648343
-0.137346
0.109247
0.0102237
-0.119471
0.00641591
-0.0180676
0.0873803
0.346514
-0.114703
0.202215
-0.465331
0.263116
-0.0148463
-0.113993
0.12884
-0.0271488
0.0996316
0.328796
0.0648829
-0.393679
-0.0361069
0.613552
-0.0434782
0.179744
-0.136266
-0.382591
0.10429
-0.0405616
0.209683
-0.106167
-0.0166748
0.33581
0.303235
-0.107531
0.59825
-0.0305031
0.00101972
-0.136857
0.210509
-0.0736518
0.360648
-0.107204
0.0637545
-0.559679
-0.442033
0.602691
-0.160659
-0.00362806
0.0399424
0.13653
-0.593261
-0.112858
0.140071
-0.0272122
0.302648
0.00754649
-0.163449
-0.041433
0.249688
0.0156117
-0.396135
0.510651
-0.114516
-0.112644
0.0978277
-0.10601
-0.120046
-0.254759
0.482181
-0.279966
-0.0535831
-0.0220519
-0.192731
-0.0757787
0.268509
-0.266378
-0.0207788
0.287156
0.597559
-0.188058
-0.409501
-0.0259325
-0.392607
0.418539
0.520724
-0.423223
0.189056
-0.0221338
-0.127557
0.502501
-0.0963738
0.100755
-0.651142
0.513021
0.13812
0.528296
-0.478134
-0.477493
0.139083
-0.562964
0.562964
0.398698
-0.00363773
-0.260053
-0.360987
-0.105183
0.445721
0.42924
0.131737
-0.149043
-0.458442
0.607485
-0.013201
0.108249
0.0181308
-0.0363018
0.018171
0.0580832
-0.138899
0.124737
-0.184616
0.235126
-0.0505103
-0.125793
0.296933
0.0380324
-0.334965
0.0372358
0.151555
-0.476132
0.340509
0.0298903
-0.207951
0.17806
0.539404
-0.155549
-0.00127758
-0.0247544
-0.206373
-0.00693952
0.213312
0.109897
0.525934
0.0320051
-0.557939
0.0354602
-0.245005
0.054026
-0.0428201
-0.0112059
0.0107564
-0.123615
0.477758
0.147636
-0.407976
0.0116318
0.0131533
-0.389545
-0.113562
0.175292
0.0238773
0.11982
0.435367
-0.569082
0.133716
0.127163
0.355346
-0.482509
0.0384313
-0.590811
0.514619
-0.0800384
0.295318
-0.32125
0.54103
-0.0150961
0.0461881
-0.0158441
-0.27635
0.061858
0.214493
-0.0908665
0.0158031
0.0750634
-0.106328
0.150005
0.374103
-0.405625
0.575629
-0.124626
0.361536
-0.495494
0.133958
-0.0965189
0.313128
-0.216609
-0.081762
0.24025
-0.00798201
-0.232268
-0.137894
0.13767
0.344785
-0.434279
0.00188634
0.0297005
-0.0315869
-0.149881
-0.0732045
0.0750585
-0.023213
-0.0518455
-0.0336714
0.0413068
-0.0667778
0.100786
-0.0340084
0.360935
0.112658
-0.473592
-0.612488
0.488487
0.124001
0.583578
-0.126001
0.249896
-0.486647
0.617947
-0.1313
-0.21128
-0.135012
-0.333797
-0.155712
-0.316661
0.472373
0.308016
-0.463728
0.278271
0.245326
-0.0325505
-0.00428866
0.0455655
-0.0425835
-0.00298203
-0.477612
0.3426
0.0295757
-0.0963536
-0.110172
0.369028
-0.258856
-0.00783265
-0.0375344
0.045367
-0.12907
0.131651
0.0159095
0.114768
0.544267
0.0045508
0.137026
-0.0200148
0.0562576
0.144133
-0.200391
0.183686
0.0406112
-0.224297
0.21759
-0.161333
0.67099
-0.197836
-0.0303604
0.0324528
0.0783113
0.378527
-0.456838
-0.0262092
0.1267
0.0270031
0.0480554
0.544155
-0.114914
-0.00989788
-0.0434869
0.159836
0.390818
0.0160106
-0.0847563
0.451035
-0.600078
0.000370595
-0.0273611
-0.412642
0.30247
0.533046
-0.254775
-0.0212981
0.142345
-0.121046
0.210521
-0.260514
-0.114019
0.129083
-0.0150638
0.411743
-0.296988
0.150459
-0.401967
0.251508
-0.143371
0.122835
0.0205366
0.089477
-0.165361
0.00635517
0.159006
-0.039113
0.222799
0.0712237
-0.576957
0.0974778
0.479479
0.524952
-0.0895856
0.155144
-0.0765776
-0.0785666
0.154975
-0.296868
0.141893
0.533552
0.0594083
-0.592961
0.217933
-0.304654
0.0867208
0.0469866
-0.00142111
-0.483959
0.528217
0.121996
0.0964233
-0.0229382
-0.0734851
0.16435
-0.0346998
0.239639
-0.262714
0.0230752
-0.325979
0.250986
0.0749934
0.340026
-0.439255
-0.441639
0.278191
-0.0375182
0.334451
0.0354117
-0.301789
0.0403865
-0.0482192
0.308812
-0.175383
0.0852236
-0.343888
0.258665
0.0701328
-0.0898014
0.0224837
0.177028
-0.199512
0.0887396
0.0076837
0.126089
-0.140936
-0.0671039
0.441207
0.532561
-0.521973
-0.612638
0.26346
0.349178
0.303395
-0.115106
-0.19718
-0.0105978
0.233469
-0.167322
-0.441461
-0.0807332
0.522194
0.441216
-0.10119
-0.158112
0.118313
-0.16192
-0.337632
0.144305
-0.197915
-0.183989
0.237379
0.0565398
-0.293919
-0.063338
0.0862983
-0.0229603
0.471428
0.112151
-0.339459
-0.304292
0.241507
-0.338026
0.069925
-0.125695
0.0693005
0.0990468
0.377299
-0.476346
0.383271
0.157042
0.0311512
0.133199
0.0489058
-0.322193
0.273287
0.627211
-0.293414
0.592346
-0.120919
0.081754
0.0720938
-0.153848
0.00379943
0.183561
-0.163833
-0.0608561
-0.569336
0.448685
-0.157523
-0.395669
0.553191
-0.392848
0.00370803
0.176573
-0.180281
-0.624688
0.163365
0.217274
-0.483312
0.266038
-0.479712
-0.224478
-0.430056
0.0409964
0.198319
-0.124174
0.129431
-0.0052573
-0.468316
0.0664399
-0.0422603
0.119259
-0.0769989
0.503272
-0.285998
-0.18161
-0.246804
0.522521
-0.184638
-0.337883
0.670756
-0.206181
0.0425961
0.0114299
0.315224
-0.373824
0.0586005
0.489187
0.0751521
-0.564339
-0.139342
-0.336789
-0.457376
0.452918
0.502487
0.111189
-0.613676
-0.0316108
0.14734
-0.115729
0.174524
-0.181752
0.00722788
-0.215243
-0.172007
0.38725
0.177873
0.449338
0.0684781
-0.205335
-0.341177
0.423152
-0.0819744
0.00410582
0.471184
-0.11025
0.430431
-0.586788
0.156357
-0.0389264
0.541414
0.597561
-0.16713
-0.0270199
0.191635
0.0182247
-0.0706448
-0.0378302
0.0472743
-0.00944408
-0.274738
0.323644
0.157887
-0.178362
0.0204751
0.16358
-0.1825
0.0189194
0.124694
0.00120227
-0.125896
0.218445
-0.0134659
0.361741
0.109444
0.072397
0.0827472
-0.412032
0.554895
-0.142863
0.097337
0.242811
-0.340148
0.196569
-0.3534
0.15683
-0.2035
0.624172
-0.420672
0.443394
0.154165
-0.0776927
0.392916
-0.381768
-0.230871
-0.0230567
-0.16042
0.183477
0.282316
0.416988
-0.308448
0.128263
0.180185
0.309899
-0.154924
-0.24408
0.394539
-0.483918
0.344576
0.0215863
0.0488879
-0.0704742
-0.0373795
-0.320238
0.393907
0.210179
-0.604086
-0.01683
-0.0986049
0.115435
0.131591
-0.717885
0.259622
0.458263
0.601866
-0.413501
-0.188366
-0.15204
0.028672
-0.0314394
-0.584104
-0.00443653
-0.135042
-0.00151053
0.136553
0.126352
0.396169
0.249558
0.44718
-0.310781
-0.136399
-0.246525
-0.172103
0.15772
0.0143832
-0.24216
0.209979
0.0321811
-0.127934
0.013915
0.462897
-0.376699
0.0297586
-0.0278723
0.469687
-0.107946
0.0200126
-0.286843
-0.431042
-0.0732909
0.0863234
-0.0130325
0.14737
0.116908
-0.264278
-0.316045
0.0876853
-0.552363
0.149669
0.402694
-0.0126973
0.121944
-0.109233
-0.385506
-0.022978
-0.149125
-0.395774
-0.156588
0.503398
-0.141861
0.480303
0.112044
0.0147234
-0.498065
0.483342
0.418427
0.106525
0.0352651
-0.00196789
-0.0332972
0.397976
-0.00780778
-0.0396395
0.0474473
-0.0248209
-0.00364631
0.0284672
-0.136139
-0.532337
0.193496
0.338842
-0.162605
-0.0453519
0.0554857
-0.0101338
0.00378676
-0.127961
-0.0787333
0.0254141
0.0533193
-0.107306
-0.0784286
0.601555
-0.121252
-0.0880794
-0.0700325
-0.499017
0.180572
0.318445
0.515868
0.104421
-0.148812
0.0528539
0.0959581
-0.0710437
0.152798
-0.0449238
0.0377797
-0.377867
-0.273275
0.0514545
-0.00448925
0.361137
-0.0889023
0.0643255
0.00439387
-0.0413909
0.00570452
0.597307
0.103751
-0.079426
-0.0243254
-0.11332
-0.0749162
0.147392
-0.307737
0.160345
0.0962577
-0.05158
-0.0446777
0.201713
-0.0271889
0.0691824
-0.249866
0.180684
-0.51651
0.143065
0.373445
-0.050945
0.0431373
-0.720279
0.288844
0.431434
-0.0698049
-0.0526686
0.417985
-0.166424
-0.251561
0.0140665
-0.27821
-0.0661275
0.344337
-0.250733
-0.0454605
-0.0336104
0.0316418
-0.326813
0.0936261
0.0421128
-0.0469646
0.105886
0.0308281
-0.275748
-0.444531
0.0393139
0.0644376
-0.0732481
-0.000597712
0.171959
-0.171362
-0.733405
0.446562
-0.138555
0.0238618
-0.0696458
0.0457841
-0.00472238
0.0465376
-0.0418152
-0.714378
0.25947
0.454908
-0.0150684
-0.0576625
0.0727309
0.0321986
-0.0276187
-0.00457988
-0.444561
-0.0783148
-0.247664
-0.209033
-0.380348
0.547458
0.000424875
-0.547883
-0.0510116
0.0461208
0.00184403
0.00114091
-0.540286
0.43117
0.109115
-0.361086
-0.171251
0.0936983
-0.0272823
-0.0664159
0.0212186
-0.0845566
-0.0175008
0.25714
-0.401004
0.12936
0.271644
-0.129547
0.164117
-0.57111
0.442382
0.128728
-0.375309
0.0961835
0.279125
-0.39952
-0.140766
0.0924
-0.27786
-0.436518
-0.130243
0.0364954
-0.221111
0.000123891
0.490419
-0.490542
-0.00140478
-0.204968
-0.335531
0.0732283
0.262303
0.0824011
-0.306436
0.224034
-0.133054
0.0627693
0.0702851
0.0867441
-0.0780831
0.0123561
0.065727
-0.0879255
-0.0929916
-0.184758
0.0838441
0.183775
-0.539083
0.131648
0.407435
-0.133653
-0.154854
0.54375
-0.527652
-0.0160983
0.0614587
0.29296
-0.354418
-0.289569
0.360851
-0.0712821
0.233028
-0.453376
-0.615896
0.439212
0.176684
0.33304
-0.0931328
0.485102
-0.391969
0.0273252
-0.0091944
-0.430263
0.289271
0.140992
0.522426
-0.121894
-0.408281
0.252426
-0.0765654
-0.00428652
0.033987
0.681084
-0.461346
-0.219738
-0.558657
0.197707
0.36095
-0.0568949
0.0881221
-0.0312272
0.0684379
-0.0445761
0.30998
0.371104
-0.0193654
-0.0632378
0.128265
0.312763
0.112864
-0.10264
-0.0350473
0.00107065
0.443058
-0.364746
0.0682303
-0.0841438
-0.126811
0.210955
-0.465894
0.135023
0.0157403
0.0769217
-0.092662
-0.430741
0.249131
-0.0135728
0.506018
-0.103668
-0.128271
0.166416
-0.106584
0.250889
-0.462512
0.320126
0.160576
-0.148176
-0.0123995
-0.600305
0.163841
0.436464
-0.0119972
0.0117862
0.000210985
0.0877845
-0.313259
0.225475
-0.56212
0.404598
-0.259229
0.18911
0.0701194
0.0997507
-0.586397
0.00434972
0.438708
0.0450402
-0.239328
0.194288
-0.0272715
-0.0552821
-0.065694
0.0676258
-0.00193183
0.632178
-0.147465
0.432788
0.0596952
0.491658
-0.364495
0.301937
-0.428609
0.126673
-0.182798
0.205282
0.467558
0.133997
0.336738
0.173562
-0.257705
-0.142179
-0.328135
0.470315
0.521768
-0.447115
-0.0746526
-0.50515
0.543581
-0.604797
0.427602
0.177195
-0.248725
0.172946
0.600439
-0.132881
0.050286
-0.0416881
-0.00859791
-0.0311526
-0.322247
0.0179153
0.0561278
-0.0740431
0.0331302
0.10437
-0.123867
0.0194967
-0.561076
0.13509
-0.23935
0.0122765
-0.243569
0.258676
-0.0151077
-0.315976
0.241422
-0.0634572
-0.0146259
-0.00113146
0.0036146
-0.182465
-0.0354819
-0.172469
-0.557481
0.122944
0.434537
-0.102758
-0.130377
0.233135
-0.41534
0.0224611
0.114565
0.431465
0.0903029
-0.0812007
0.0529074
0.0410368
-0.0498843
-0.125223
0.108393
0.531831
-0.0159638
0.00706716
0.0719539
-0.079021
-0.00477467
-0.0197183
0.471498
-0.451779
-0.180831
0.0675113
-0.146738
0.448675
0.318916
-0.461095
-0.705105
0.25245
0.452655
0.533893
-0.136067
-0.397825
-0.0365423
0.563917
0.0589236
-0.0543834
-0.125201
0.328865
-0.203664
0.254508
0.0608978
0.0991736
-0.295516
-0.263141
-0.00917292
0.04965
-0.0404771
-0.132254
-0.351664
-0.563375
0.419733
0.143643
-0.268891
-0.436214
0.246071
-0.176888
-0.328822
0.238166
0.0906566
0.166821
-0.167419
-0.639924
0.311788
0.309748
-0.0723686
0.0729957
0.0207026
0.110736
0.113369
0.204631
-0.318
0.109883
-0.23117
0.128412
-0.0713124
0.35818
0.263036
0.00543187
-0.268468
0.119801
-0.514296
0.394496
-0.143957
-0.294708
0.438665
0.0733537
-0.0190209
-0.131525
0.0329206
-0.00711633
-0.3797
-0.458343
-0.724817
0.449069
-0.482299
0.350045
0.214446
-0.0391543
-0.152708
-0.404773
-0.406714
-0.156661
-0.426255
-0.128078
0.256182
-0.277878
0.0216956
-0.139223
-0.0172824
0.156505
-0.121345
-0.0392344
-0.162403
0.581703
0.0821673
-0.264951
0.335352
-0.0704011
0.205458
-0.264681
0.0592227
0.0421413
-0.143856
-0.0748644
-0.0581901
-0.00499032
-0.157319
0.162309
-0.170176
0.183186
-0.0130099
0.0639197
0.0153425
0.491029
-0.653432
0.00848711
-0.397503
-0.188566
0.0051967
0.0656267
-0.0806951
0.0409089
0.172495
-0.213404
0.0192751
-0.07617
0.0244742
-0.202763
0.178289
0.00845324
0.0338049
0.00479664
0.0997686
-0.0875853
-0.0121833
-0.148243
-0.717085
0.439225
0.334155
-0.0831694
0.26789
-0.185488
-0.626
0.130168
-0.118404
-0.0117645
0.0303918
-0.0039873
-0.0264045
0.318691
0.0421603
-0.315728
-0.236404
-0.109133
0.345537
0.491273
0.198836
-0.174362
-0.371967
0.257094
0.114874
-0.249404
0.00583568
-0.698892
0.233174
0.465718
-0.09447
-0.0694281
0.2159
-0.146472
0.00643843
0.14323
-0.149668
0.525706
0.0480186
0.47314
0.127299
0.0327433
0.181703
0.24332
-0.44682
-0.131364
-0.113729
-0.175779
0.289507
-0.279908
-0.360015
-0.263491
-0.435401
0.056924
-0.313703
0.256779
0.26859
-0.0124081
0.0294139
0.275595
-0.305009
0.0717448
0.368318
-0.440062
-0.712001
0.44311
0.18859
-0.0308707
0.494922
-0.192979
-0.301943
0.0299484
0.0818263
-0.111775
-0.134553
0.0194732
0.115079
0.0893481
-0.0732168
-0.0161313
0.602979
-0.40348
-0.199499
-0.0534543
0.125851
0.590925
-0.117785
-0.00668853
0.0488013
0.460944
-0.361898
0.250675
0.0123608
-0.616513
0.489103
0.12741
-0.457463
-0.247824
-0.251193
0.365987
0.236992
0.109477
0.337702
0.172914
-0.285823
-0.000503022
0.00294792
0.0658797
-0.0852451
0.0225439
0.0737138
-0.0426439
0.0780987
-0.019175
0.013201
0.0682233
-0.0814243
-0.290206
0.371894
-0.0816874
0.262629
-0.197692
-0.0649373
0.265254
-0.337789
0.0859362
-0.0944262
0.00849005
-0.123389
0.431306
-0.221779
-0.128075
0.349854
-0.540188
0.145453
0.394736
-0.140025
0.0447977
-0.259436
-0.0158644
-0.0500295
0.0186288
0.00770253
-0.0364838
0.0321973
0.336721
-0.238397
0.117637
-0.138935
-0.00437643
-0.0195561
0.109144
-0.00524107
0.321838
-0.249327
-0.0725106
-0.260734
-0.0278338
0.00301285
0.133903
-0.355682
0.110562
-0.452531
-0.311085
0.0958417
-0.209793
-0.220949
-0.547521
0.457467
-0.0520404
-0.41683
0.57263
-0.1558
-0.156918
-0.231647
0.388565
0.160257
0.00332308
0.108848
-0.161548
-0.0892277
-0.254661
-0.0109485
0.131235
-0.00537583
-0.13547
0.140845
-0.0568077
0.0363525
0.0138921
-0.0154689
0.141558
-0.209884
0.183248
0.0266358
0.000163267
-0.442501
-0.705938
0.442448
0.0881055
0.248616
-0.50515
-0.0943492
0.0252113
0.0691379
-0.149914
0.128242
0.0216721
-0.193067
0.00637354
0.116081
-0.122455
-0.0715539
0.00504315
0.0665107
-0.151925
-0.38874
-0.151448
0.0213527
-0.0268194
0.0396202
0.0804157
-0.134161
0.605851
-0.161662
-0.444188
0.568747
-0.0777181
0.0135711
0.0329676
0.322609
-0.455838
0.319165
0.136673
0.107479
0.510468
0.10594
-0.359804
-0.293628
-0.0322909
0.0295566
0.00273426
-0.126024
0.121033
-0.194308
0.322112
-0.127804
0.0235228
0.452314
-0.475837
-0.43418
0.172218
0.0119988
-0.15134
0.139341
-0.164633
0.12622
-0.287049
-0.105888
0.591803
-0.00349629
0.0373012
-0.16484
0.175908
-0.0110675
0.133542
-0.00884818