/*--------------------------------*- C++ -*----------------------------------*\
| =========                 |                                                 |
| \\      /  F ield         | OpenFOAM: The Open Source CFD Toolbox           |
|  \\    /   O peration     | Version:  v2012                                 |
|   \\  /    A nd           | Website:  www.openfoam.com                      |
|    \\/     M anipulation  |                                                 |
\*---------------------------------------------------------------------------*/
FoamFile
{
    version     2.0;
    format      ascii;
    class       surfaceScalarField;
    location    "200";
    object      phi_0;
}
// * * * * * * * * * * * * * * * * * * * * * * * * * * * * * * * * * * * * * //

dimensions      [0 3 -1 0 0 0 0];
oriented        oriented;


internalField   nonuniform List<scalar> 
22766
(
0.0421611
-0.00489105
-0.0372701
0.0792916
0.00454041
-0.083832
0.215273
-0.0675489
-0.147724
0.693331
-0.342523
-0.350808
0.0430986
0.10174
-0.144838
0.506895
-0.442241
-0.0646534
-0.0443047
-0.0650493
0.109354
-0.647049
0.545959
0.10109
-0.52585
0.639045
-0.113195
0.413303
-0.244579
-0.168724
-0.0282692
0.206988
-0.178719
-0.0779824
0.577445
-0.499463
0.0556723
-0.284197
0.228524
-0.203517
0.0359482
0.167569
0.150203
-0.137798
-0.0124051
0.117887
0.464575
-0.582462
-0.063635
0.0997398
-0.0361048
0.128803
-0.0196684
-0.109134
0.0423191
0.400532
-0.442851
-0.00497693
-0.130783
0.13576
0.124934
-0.650784
-0.0359823
0.0638317
-0.0278494
-0.0877566
-0.0537455
0.141502
-0.493852
0.618786
0.0993764
0.115896
0.0296287
-0.0416614
0.0120327
-0.0606343
-0.0299384
0.0905727
-0.592843
0.447469
0.145374
0.134612
-0.148328
0.0137153
-0.123494
-0.37527
0.498764
0.608711
-0.461323
-0.147389
-0.0253355
0.110419
-0.085084
0.465703
0.150849
-0.616552
-0.14837
0.388743
-0.240372
-0.117024
0.0916884
-0.0471943
-0.0501625
0.0973568
0.18619
0.227113
0.00777378
0.310074
-0.317847
-0.191052
-0.0124644
0.0249125
0.10389
0.587992
-0.494739
-0.0932527
-0.0417071
-0.0282937
0.0700008
0.714962
-0.600673
-0.114289
-0.29127
0.0684166
0.222854
0.132721
-0.498938
0.366217
0.619572
-0.496166
-0.123406
0.178464
-0.0351954
-0.143268
-0.118491
-0.456731
0.575222
-0.13407
0.14354
-0.00947086
0.479126
-0.64375
0.164625
-0.558514
0.0646616
-0.653932
0.518692
0.135241
0.284566
-0.288506
0.00394027
-0.175064
-0.272981
0.448044
0.00660423
0.00722268
-0.0138269
-0.330659
0.46338
0.217935
-0.101716
-0.116219
-0.409441
-0.100485
0.509926
0.33325
-0.325477
-0.0247852
0.0247852
-0.016005
0.0952966
0.105263
0.473154
-0.578418
0.285418
-0.000852199
-0.369423
0.411135
-0.0417119
-0.128983
0.172082
-0.0489488
0.0484676
0.000481148
-0.123119
-0.375819
0.405132
-0.150933
-0.254199
0.204398
-0.223086
0.0186872
-0.515952
0.699304
-0.183352
0.429688
0.0318416
-0.46153
0.0612094
-0.148966
0.305315
-0.121423
-0.183892
-0.514914
0.391794
-0.0994377
-0.22836
0.327798
-0.21207
0.0113719
0.200698
-0.0926722
0.0290372
0.560977
-0.0952747
0.474672
0.132305
-0.606976
0.0562607
-0.103455
-0.052579
0.0405401
0.0120389
0.0235495
-0.135396
0.111847
-0.093879
0.117428
0.116494
-0.0896191
-0.0268752
0.205634
-0.00294603
-0.202688
-0.0317985
0.0384028
-0.0620156
-0.307407
0.0338091
-0.0944434
0.430167
0.0767282
-0.478366
0.303302
0.0342972
-0.0294831
-0.00481407
0.274078
-0.218406
-0.143286
-0.371628
0.0735541
-0.0524199
-0.0211343
-0.137176
0.132199
0.0888568
0.0276375
-0.529945
0.652606
-0.12266
-0.0423136
-0.00663516
0.148128
0.460583
0.0444837
-0.0389444
-0.00553928
-0.659341
0.129396
-0.214764
0.343194
-0.12843
-0.0736455
0.0968372
-0.0231916
0.624072
-0.506185
0.593874
0.00360016
-0.597474
0.518122
0.134484
0.0106289
-0.00692082
-0.00370808
0.323129
0.0984983
-0.421627
0.597436
-0.301016
-0.29642
-0.105962
-0.0861829
0.192145
0.589381
-0.589381
0.0627998
-0.296194
0.233394
-0.482575
0.359081
-0.563936
0.0105879
0.553348
-0.1332
-0.430736
-0.426599
0.586917
-0.160318
-0.0118285
0.121581
-0.109752
0.620288
-0.145616
0.0656014
-0.0756351
0.0100337
0.0350943
-0.0297906
-0.00530365
-0.37763
0.162865
0.105296
0.00449488
-0.109791
0.00469103
-0.00201699
-0.00267404
0.359053
-0.316734
-0.0874197
-0.0296042
0.599898
-0.188434
-0.411464
0.0960866
0.3517
-0.447787
0.0264028
-0.0623851
-0.127203
0.0397835
0.21928
0.378156
-0.624444
0.493988
0.130456
0.102778
0.00251793
0.0192658
0.383855
-0.403121
0.0410556
0.00110556
0.0789074
-0.512372
0.433465
0.399143
-0.542429
0.0442799
0.336674
-0.380954
-0.634057
0.118104
0.0654975
-0.17146
0.133429
-0.281799
-0.195824
0.247555
-0.051731
-0.00011825
0.116179
-0.116061
-0.729953
0.548818
0.181136
0.0386012
-0.00897248
0.00136058
0.00333045
0.0914416
-0.25117
0.159728
-0.0526512
-0.159419
0.189031
0.301761
-0.490792
0.326702
-0.11291
-0.213792
0.0551068
-0.286045
0.230938
0.0991888
0.494685
-0.100533
0.0902028
0.0103305
0.539643
-0.105372
-0.434271
0.13028
0.0359727
-0.166252
0.00112603
-0.0621929
0.0610669
-0.385514
-0.0288281
0.414342
0.123431
-0.100834
-0.0225974
0.451424
-0.128295
0.619904
-0.495925
-0.12398
-0.0303128
0.235947
-0.437616
0.550653
-0.113037
0.127887
-0.503107
0.375219
0.12442
0.180895
-0.126968
0.332901
-0.205933
-0.296469
0.4855
0.268248
0.425083
0.449375
-0.598997
0.149622
-0.0741304
-0.66923
0.281535
0.387695
0.44851
-0.526493
0.0278095
-0.188107
0.160298
-0.270908
-0.142386
0.413294
0.132101
-0.201078
0.0689775
0.0244632
-0.409977
-0.252634
0.331983
-0.0793493
0.0469061
-0.207611
0.160705
-0.0228301
-0.029749
-0.408128
-0.261102
-0.1048
0.100293
0.00450698
-0.0353492
0.0464571
-0.0111079
-0.231351
0.0355269
0.748023
-0.419691
-0.328332
-0.299864
0.625394
-0.32553
0.249282
-0.147542
0.0887426
0.160539
0.126979
-0.0715078
-0.0554711
0.0338122
0.403302
0.344721
0.0501619
-0.55238
0.502218
-0.000317398
0.0109463
0.650213
-0.220348
-0.429866
0.0131185
-0.116645
-0.0174241
0.171089
0.416903
0.116718
-0.255932
0.139214
0.0658572
-0.000255802
-0.09925
0.558599
-0.453336
-0.0706574
-0.0808159
0.151473
-0.0594829
-0.0272041
0.086687
-0.120652
0.573725
-0.453073
-0.359109
0.106475
0.626129
-0.486561
-0.139568
-0.223033
0.27814
0.00217008
-0.544941
0.184678
0.360263
-0.198168
0.164614
0.0335543
-0.129341
-0.33841
0.467751
0.0906983
0.0197212
0.0276628
0.0133928
0.028462
0.0712777
-0.461125
0.27466
0.186465
0.245772
0.428109
-0.673881
0.504706
-0.376818
0.0909638
-0.0625018
0.403253
-0.233062
-0.170191
-0.391771
-0.255278
-0.137043
0.100491
0.0365521
0.569324
-0.0233648
0.332661
-0.652758
0.320097
0.224708
-0.177802
-0.22847
0.00794313
0.0537481
-0.0616913
-0.0159433
-0.491717
0.191853
-0.0366378
0.023837
0.0128007
0.148045
-0.0994152
-0.0486296
-0.316541
0.27212
0.0444215
0.0789965
-0.123301
-0.0896505
0.419076
0.0975009
-0.516577
0.0628065
0.0641724
-0.00191824
0.0461467
-0.0442285
0.0168887
-0.127097
0.110208
0.295131
-0.068337
-0.226794
-0.018443
0.204979
-0.186536
-0.401876
-0.0649202
0.466796
-0.13418
0.250406
-0.033275
0.000123359
0.0331516
0.0671348
0.22812
-0.295255
-0.217628
0.358324
-0.218237
-0.055607
0.273844
-0.0210357
-0.179955
0.200991
0.0463173
-0.0186545
-0.186223
0.0424651
0.143758
0.0681499
-0.456564
0.388414
0.158441
0.244812
-0.115477
0.0436507
0.0718261
0.0359638
0.0375904
-0.0244702
0.15475
0.451003
-0.587082
0.136078
-0.00438655
0.0647171
-0.0603305
0.661294
-0.309807
-0.351487
0.170721
0.368877
-0.539598
0.0118546
0.0519771
0.232032
-0.33147
0.532461
-0.513196
-0.0476349
0.055578
0.515345
-0.344624
0.070303
-0.0185608
-0.0517423
0.00319838
-0.0548112
0.0516128
-0.0309663
-0.00230873
-0.0861302
0.0266473
0.00373046
-0.00236989
0.0293845
-0.0317013
0.00231678
-0.0461615
0.0472875
0.578536
-0.486988
-0.0915483
0.0300106
0.0609532
-0.0805757
0.231085
-0.150509
-0.148439
0.113296
0.0351433
-0.126878
0.595172
-0.468294
-0.039341
-0.00485198
0.0441929
0.503931
-0.425024
0.239316
0.0144016
-0.253717
-0.0410286
0.0391104
0.0293071
-0.00622851
-0.0230786
0.479022
-0.0462075
-0.432814
0.269078
-0.152361
-0.00714414
-0.036997
0.0441412
-0.636166
0.198408
0.437758
0.105155
-0.410252
0.305097
0.264308
-0.268352
0.00404382
-0.299179
0.273239
0.0259399
-0.0819432
-0.0664956
-0.235872
-0.0633064
0.182547
-0.185493
0.401813
0.164308
-0.566122
0.0693128
-0.0965169
-0.106944
0.142917
-0.0826031
0.0782166
-0.0200445
0.191086
-0.171041
0.61884
-0.169465
-0.440477
0.169569
-0.0288112
0.0338596
-0.00504843
0.1538
-0.0196262
-0.134174
-0.196032
0.174996
-0.146549
-0.452448
-0.242252
0.161676
0.00242935
0.261879
0.0210854
-0.455703
0.434618
-0.177763
0.0381441
0.139619
-0.374804
0.286867
0.0879374
0.424387
-0.122474
0.103903
0.0185708
-0.386816
-0.24935
-0.394435
0.43458
-0.496222
0.0616413
-0.000466495
0.029851
0.12965
0.0183945
0.0116028
0.0177043
0.0407408
0.154444
-0.195185
-0.432524
0.277327
0.155198
-0.0459624
0.00662146
0.159913
0.459658
0.364825
-0.669738
0.285979
0.383759
-0.665583
0.27925
0.386333
0.202816
0.591829
-0.112704
0.253443
-0.390477
0.137034
0.490719
-0.611462
0.120742
0.158576
-0.286997
0.128422
-0.0610406
-0.0119759
0.0730166
0.139033
0.0147671
-0.00331703
0.00130004
0.0819479
-0.0570355
-0.405832
-0.25975
0.67
-0.292054
-0.377947
-0.639958
0.196483
0.443476
-0.115453
-0.462922
0.578375
-0.0947971
0.253373
-0.0582826
0.061481
-0.210978
-0.250146
-0.122841
0.136714
-0.0138727
-0.112968
0.63109
-0.348097
0.637182
-0.289085
-0.171114
0.146643
0.188791
-0.152842
0.0525112
-0.0165475
-0.215816
0.00258649
0.21323
0.00438109
0.117411
-0.121792
-0.0185925
-0.113197
0.13179
-0.0241321
-0.191684
0.0412525
0.548129
-0.0639509
0.0222438
-0.15684
-0.0635009
-0.0519758
-0.15361
0.18142
-0.171771
0.192272
-0.020501
0.403429
-0.21351
-0.189919
-0.408923
-0.260815
0.283212
-0.416412
-0.0859701
0.0858519
-0.357618
0.432808
-0.0751909
-0.182245
0.166922
0.0153223
0.177369
-0.487176
0.24711
0.42289
0.00510285
0.439022
-0.444125
0.318502
-0.0656326
-0.473161
0.439854
0.0333069
0.457577
-0.573029
0.0345698
0.120287
-0.154856
-0.445135
-0.0280264
-0.31011
0.37826
0.518056
-0.088368
0.223802
-0.13236
0.00590989
0.117011
0.0265293
0.22308
0.193221
-0.416301
-0.302035
0.479404
-0.661228
0.527374
0.133854
-0.122957
0.139846
0.526298
-0.124485
0.592239
-0.488076
-0.104164
-0.639626
0.213027
-0.148783
-0.480991
0.629774
0.0321348
0.507509
0.171736
-0.350405
0.17867
0.298706
0.104723
-0.0992768
0.0837627
0.0155141
-0.0565752
-0.070628
-0.499553
0.323887
0.175666
0.0619493
-0.280187
-0.0250349
0.180266
-0.285524
0.531296
0.0383878
-0.0533692
0.0149813
0.086198
0.40235
-0.488548
-0.159347
-0.28113
0.0661468
0.17586
-0.242007
0.117252
-0.24422
-0.505804
-0.188236
0.0164648
-0.228977
-0.26967
0.025648
0.244022
0.167654
-0.299799
0.132145
-0.553158
0.447786
0.0872006
-0.370087
0.282886
-0.0172847
0.0556725
0.0147859
0.135417
0.71887
-0.310839
-0.408031
0.169122
0.0477996
-0.216921
0.769453
-0.400576
0.114755
0.307917
-0.422672
-0.111368
0.124925
-0.0135572
0.596787
-0.0583574
-0.538429
0.0687538
-0.245463
0.176709
0.150386
0.321391
-0.153737
0.500327
0.269126
0.310195
-0.244897
-0.0652974
-0.471619
0.476722
-0.0270257
-0.169006
-0.16058
-0.0171835
0.437082
0.149836
-0.199565
0.422645
-0.0602117
-0.126011
0.376816
-0.405644
0.528205
-0.109128
-0.116514
0.0927636
0.0237509
0.522583
-0.353448
-0.169135
-0.0486427
0.0792621
-0.0306195
0.377682
-0.205947
-0.213879
0.183566
-0.0499926
0.261165
-0.211172
-0.123667
0.48272
-0.0315218
0.408338
0.190948
0.40895
0.0328145
-0.0814571
0.0113659
0.0589371
-0.570911
0.16147
-0.559402
0.44091
0.368554
0.350316
0.484713
0.0948147
-0.579528
0.523597
0.0731893
-0.0554425
0.0089656
0.0464769
-0.0360173
-0.0804971
0.422733
0.0998499
-0.146149
0.131596
0.0145535
0.251365
0.463597
-0.403586
0.180381
0.223204
-0.62615
0.485915
0.140235
-0.0430202
0.00199159
-0.19923
0.0169852
-0.00683452
-0.0542061
-0.12467
0.166586
-0.0419166
-0.278301
0.412792
-0.134491
0.00961949
0.134563
-0.144183
-0.561744
0.10518
-0.325661
-0.0415139
-0.0139286
-0.135622
-0.325779
0.461401
0.0239324
-0.0239324
-0.330871
-0.295279
0.334214
-0.417574
0.0833596
-0.0148162
0.113907
-0.0990912
-0.065894
0.0554485
0.0104455
-0.425656
-0.0879361
0.513592
0.0908296
0.335812
0.115613
0.0100497
0.168414
-0.517342
0.416857
0.173491
-0.193536
0.0623064
-0.136102
0.073796
0.346042
-0.439501
0.093459
-0.11182
0.578717
-0.466896
-0.0256135
-0.0670587
-0.0454837
-0.153746
-0.199788
0.172763
-0.450368
0.0127523
0.048044
-0.0390784
-0.141639
0.18238
-0.0687698
-0.0156451
0.0844149
0.0221095
-0.331749
0.309639
0.47041
-0.62104
0.15063
0.395809
-0.290653
0.0843969
0.102821
-0.187218
0.0142309
0.0208634
-0.211493
-0.124035
0.335528
-0.233187
-0.11151
0.344697
-0.0745539
-0.207231
0.281785
-0.31523
-0.00131085
-0.461705
0.526223
-0.0556261
0.276829
-0.0544449
-0.222384
-0.237819
-0.165767
0.137055
0.489075
-0.0779441
0.412158
0.562201
-0.162105
-0.400096
0.401123
0.161079
-0.328007
0.424094
0.439861
-0.588644
0.00946545
0.0385785
0.0363144
-0.00276738
-0.033547
0.0252064
0.00909083
0.0931816
-0.118143
0.0249613
-0.00952658
0.144139
0.0071874
0.110524
-0.117711
0.0328769
-0.0210223
0.329261
0.0758707
-0.110859
-0.0069239
0.117783
-0.145642
-0.488415
0.0436769
-0.182432
0.138755
0.119698
-0.0265164
0.127652
-0.0653459
-0.425011
-0.124497
0.549508
-0.345368
0.101007
0.244361
0.0486722
0.228157
0.485924
-0.189247
-0.296678
-0.0699304
0.0810461
-0.0111157
-0.100536
-0.273116
0.605777
-0.572799
-0.0278734
0.315406
-0.0994961
-0.215909
-0.554333
0.4193
0.135033
-0.0245769
-0.0669985
0.0915753
-0.0496276
0.0469651
0.00266252
-0.000729333
-0.0240559
0.011623
-0.0185438
0.0197283
0.159183
-0.178912
0.498528
0.0937111
-0.0952278
-0.10294
0.41335
0.0875132
-0.500863
-0.0887286
0.0187983
-0.278415
0.22397
0.472762
0.146078
-0.163448
-0.27395
0.437398
-0.0543923
-0.196777
-0.101655
0.0898266
0.0303437
0.00763538
-0.0379791
-0.101576
0.514926
0.130677
0.00113709
-0.131814
0.199169
-0.0235767
-0.175592
0.0950472
-0.100186
0.00513913
0.39506
0.0765754
-0.471635
-0.464893
-0.090054
0.554947
-0.118621
0.203018
-0.14943
-0.283094
-0.05577
-0.0865695
0.142339
-0.261962
-0.217214
0.479176
-0.0368393
0.000116601
0.0367227
-0.246091
-0.148822
0.394913
0.0662789
-0.0782549
-0.00884762
-0.0388209
0.0476685
-0.173498
0.0724828
0.0248505
-0.0973333
0.04664
-0.17131
0.113689
-0.0972928
-0.0163958
-0.301631
-0.0957734
0.397405
-0.513032
0.636914
-0.123882
-0.0941754
0.612867
-0.0269905
0.032917
-0.00592651
-0.00207056
-0.0171991
0.0192696
0.143479
-0.56849
-0.220998
0.367561
0.00209237
-0.0336541
0.0315617
-0.146574
-0.00561002
0.152184
0.256551
-0.234441
-0.147324
-0.428414
0.163212
0.265202
-0.326191
0.415321
-0.0891302
-0.221221
0.202778
-0.0178933
-0.117503
0.149895
-0.185091
-0.0533846
0.0118707
0.0330453
-0.0351158
0.0502444
-0.00409771
-0.468809
0.339468
0.537716
-0.395925
-0.141792
0.0164865
-0.127854
0.2653
-0.22583
-0.0394693
0.430355
0.107361
0.0862773
-0.387909
-0.00445719
0.486812
-0.482355
0.231812
0.107168
-0.33898
0.0489326
-0.00138464
-0.0475479
0.0770282
-0.0107493
-0.0339765
0.000795903
0.0331806
-0.074174
-0.0628689
0.205731
0.280193
-0.0397991
-0.108529
0.00248317
-0.000570946
-0.00191223
-0.00196863
-0.027822
-0.0400411
0.045966
-0.00592485
0.00258042
-0.125537
0.473355
-0.433496
-0.245938
0.271586
-0.0825541
0.0259292
0.0566249
0.333797
-0.445617
0.626999
-0.52111
-0.105888
-0.00148933
-0.200667
0.0543331
-0.0679972
0.0136641
0.56677
-0.0963598
0.0905328
-0.0258158
-0.226089
0.165877
-0.00022373
-0.115927
0.116151
-0.026032
0.0253958
0.000636256
0.0534269
-0.0118699
-0.0415571
0.0983248
0.233658
-0.599198
0.136276
-0.125555
0.355576
-0.311296
-0.0750261
0.103357
0.097737
0.0159516
-0.10809
0.0330642
0.340536
-0.453353
0.112817
-0.0687455
-0.00967583
0.0784213
-0.152178
0.599647
-0.27775
0.0814584
0.196291
-0.0536098
0.217864
-0.164255
-0.00323874
0.124819
-0.0380857
0.0385305
0.201646
0.0189492
0.48247
0.0960663
-0.419346
-0.241882
-0.425386
0.161654
0.263732
0.256989
-0.407921
-0.204882
0.0318123
0.17307
0.0377288
-0.097543
0.591531
-0.654534
0.408981
0.245553
0.469121
-0.595999
-0.425986
0.56149
-0.135503
-0.207778
0.0264302
0.181348
-0.521908
0.173811
0.0622578
-0.0921962
-0.648343
-0.137346
0.109247
0.0102237
-0.119471
0.00641594
-0.0180675
0.0873803
0.346514
-0.114703
0.202215
-0.465331
0.263116
-0.0148463
-0.113993
0.12884
-0.0271488
0.0996316
0.328796
0.0648829
-0.393679
-0.0361069
0.613552
-0.0434786
0.179745
-0.136267
-0.382591
0.10429
-0.0405615
0.209683
-0.106167
-0.0166749
0.33581
0.303235
-0.107531
0.59825
-0.0305029
0.00101972
-0.136857
0.210509
-0.0736521
0.360648
-0.107204
0.0637545
-0.559679
-0.442033
0.602691
-0.160659
-0.0036281
0.0399425
0.13653
-0.593261
-0.112858
0.14007
-0.0272123
0.302648
0.00754649
-0.163449
-0.041433
0.249688
0.0156117
-0.396135
0.510651
-0.114516
-0.112644
0.0978277
-0.10601
-0.120045
-0.254759
0.482181
-0.279966
-0.0535833
-0.0220517
-0.192731
-0.0757787
0.268509
-0.266378
-0.0207788
0.287156
0.597556
-0.188056
-0.4095
-0.0259325
-0.392607
0.418539
0.520724
-0.423223
0.189056
-0.0221338
-0.127557
0.502501
-0.0963738
0.100755
-0.651142
0.513021
0.13812
0.528296
-0.478134
-0.477493
0.139083
-0.562964
0.562964
0.398698
-0.00363848
-0.260053
-0.360987
-0.105186
0.445722
0.42924
0.131737
-0.149043
-0.458442
0.607485
-0.0132017
0.108249
0.0181306
-0.0363014
0.0181708
0.0580832
-0.138899
0.124737
-0.184616
0.235126
-0.0505103
-0.125793
0.296933
0.0380324
-0.334965
0.0372358
0.151555
-0.476132
0.340509
0.0298903
-0.207951
0.17806
0.539404
-0.155549
-0.0012776
-0.0247544
-0.206373
-0.00693923
0.213312
0.109897
0.525934
0.0320051
-0.557939
0.0354601
-0.245005
0.0540261
-0.0428199
-0.0112062
0.0107565
-0.123614
0.477758
0.147636
-0.407976
0.0116319
0.0131534
-0.389545
-0.113562
0.175292
0.0238773
0.11982
0.435369
-0.569084
0.133716
0.127163
0.355346
-0.482509
0.0384313
-0.590811
0.51462
-0.0800401
0.295318
-0.32125
0.54103
-0.0150961
0.0461878
-0.0158441
-0.27635
0.061858
0.214492
-0.0908666
0.0158033
0.0750633
-0.106328
0.150005
0.374103
-0.405625
0.575629
-0.124626
0.361536
-0.495494
0.133958
-0.0965189
0.313128
-0.216609
-0.081762
0.24025
-0.00798204
-0.232268
-0.137894
0.13767
0.344786
-0.434279
0.00188633
0.0297006
-0.031587
-0.149881
-0.0732045
0.0750585
-0.0232129
-0.0518456
-0.0336711
0.0413065
-0.0667778
0.100786
-0.0340084
0.360935
0.112658
-0.473592
-0.612488
0.488487
0.124001
0.583578
-0.126001
0.249896
-0.486647
0.617947
-0.1313
-0.21128
-0.135012
-0.333797
-0.155712
-0.316661
0.472373
0.308016
-0.463728
0.278271
0.245326
-0.0325506
-0.00428866
0.0455653
-0.0425832
-0.00298208
-0.477612
0.3426
0.0295758
-0.0963536
-0.110172
0.369028
-0.258856
-0.00783267
-0.0375344
0.0453671
-0.12907
0.131651
0.0159096
0.114768
0.544267
0.0045508
0.137026
-0.0200149
0.0562576
0.144133
-0.200391
0.183686
0.0406112
-0.224297
0.21759
-0.161333
0.67099
-0.197836
-0.0303603
0.0324527
0.0783114
0.378527
-0.456839
-0.0262092
0.1267
0.027003
0.0480555
0.544155
-0.114914
-0.0098981
-0.0434865
0.159836
0.390818
0.0160106
-0.0847561
0.451035
-0.600078
0.000370597
-0.0273611
-0.412642
0.30247
0.533046
-0.254775
-0.0212981
0.142345
-0.121046
0.210521
-0.260514
-0.114019
0.129083
-0.0150638
0.411743
-0.296988
0.15046
-0.401967
0.251507
-0.143371
0.122835
0.0205366
0.089477
-0.165361
0.00635517
0.159006
-0.0391131
0.222799
0.0712237
-0.576957
0.0974778
0.479479
0.524955
-0.0895863
0.155144
-0.0765775
-0.0785664
0.154975
-0.296868
0.141893
0.533552
0.0594083
-0.592961
0.217933
-0.304654
0.0867208
0.0469863
-0.00142104
-0.483959
0.528217
0.121996
0.0964234
-0.0229382
-0.0734851
0.16435
-0.0346998
0.239639
-0.262714
0.0230752
-0.325979
0.250986
0.074993
0.340029
-0.439254
-0.441639
0.278191
-0.0375182
0.334451
0.0354117
-0.301789
0.0403865
-0.0482192
0.308812
-0.175383
0.0852236
-0.343889
0.258665
0.0701328
-0.0898012
0.0224837
0.177028
-0.199512
0.0887396
0.00768376
0.126089
-0.140936
-0.0671039
0.441207
0.532561
-0.521973
-0.612636
0.263458
0.349177
0.303395
-0.115106
-0.19718
-0.0105978
0.233469
-0.167322
-0.441461
-0.0807332
0.522194
0.441216
-0.101186
-0.158112
0.118313
-0.16192
-0.337633
0.144305
-0.197915
-0.183989
0.237379
0.0565398
-0.293919
-0.063338
0.0862985
-0.0229605
0.471428
0.112151
-0.339459
-0.304292
0.241507
-0.338026
0.0699249
-0.125695
0.0693005
0.0990465
0.3773
-0.476346
0.383271
0.157042
0.0311512
0.133199
0.0489058
-0.322193
0.273287
0.627211
-0.293414
0.592346
-0.120919
0.081754
0.0720938
-0.153848
0.00379929
0.183561
-0.163833
-0.060856
-0.569336
0.448684
-0.157523
-0.395669
0.553192
-0.392848
0.00370721
0.176574
-0.180281
-0.624688
0.163365
0.217274
-0.483312
0.266038
-0.479712
-0.224478
-0.430056
0.0409964
0.198319
-0.124174
0.129431
-0.00525733
-0.468316
0.0664399
-0.0422603
0.119259
-0.0769989
0.503272
-0.285998
-0.18161
-0.246804
0.522521
-0.184638
-0.337883
0.670756
-0.206181
0.0425959
0.0114302
0.315224
-0.373824
0.0586004
0.489187
0.0751524
-0.564339
-0.139342
-0.336789
-0.457376
0.452918
0.502487
0.111189
-0.613676
-0.0316108
0.14734
-0.115729
0.174524
-0.181752
0.00722788
-0.215243
-0.172007
0.38725
0.177873
0.449338
0.0684785
-0.205336
-0.341177
0.423152
-0.0819744
0.00410584
0.471184
-0.11025
0.430432
-0.58679
0.156358
-0.0389264
0.541414
0.597563
-0.167131
-0.0270206
0.191635
0.018225
-0.0706449
-0.03783
0.0472743
-0.00944424
-0.274738
0.323644
0.157887
-0.178362
0.020475
0.16358
-0.1825
0.0189194
0.124694
0.00120228
-0.125896
0.218445
-0.0134659
0.361741
0.109444
0.0723968
0.082747
-0.412032
0.554895
-0.142863
0.097337
0.242811
-0.340148
0.196569
-0.3534
0.15683
-0.2035
0.624172
-0.420672
0.443393
0.154163
-0.0776926
0.392916
-0.381768
-0.230868
-0.0230567
-0.16042
0.183477
0.282316
0.416988
-0.308448
0.128263
0.180185
0.309899
-0.154924
-0.24408
0.394539
-0.483918
0.344576
0.0215863
0.0488879
-0.0704742
-0.0373798
-0.320238
0.393907
0.210179
-0.604086
-0.01683
-0.0986049
0.115435
0.131591
-0.717885
0.259622
0.458262
0.601866
-0.413501
-0.188366
-0.15204
0.0286721
-0.0314395
-0.584104
-0.00443661
-0.135042
-0.00151149
0.136553
0.126352
0.396169
0.249558
0.44718
-0.310781
-0.136399
-0.246525
-0.172103
0.15772
0.0143832
-0.24216
0.209979
0.0321811
-0.127934
0.013915
0.462897
-0.376699
0.0297587
-0.0278724
0.469687
-0.107946
0.0200127
-0.286843
-0.431042
-0.073291
0.0863234
-0.0130324
0.14737
0.116908
-0.264278
-0.316046
0.0876853
-0.552363
0.149669
0.402694
-0.0126973
0.121944
-0.109233
-0.385506
-0.022978
-0.149125
-0.395774
-0.156588
0.503398
-0.141861
0.480303
0.112044
0.0147234
-0.498065
0.483342
0.418428
0.106527
0.035265
-0.00196786
-0.0332971
0.397976
-0.00780764
-0.0396396
0.0474473
-0.024821
-0.00364631
0.0284673
-0.136139
-0.532339
0.193496
0.338843
-0.162601
-0.0453516
0.0554856
-0.0101341
0.0037868
-0.127961
-0.0787336
0.0254144
0.0533192
-0.107311
-0.0784286
0.601555
-0.121252
-0.0880794
-0.0700325
-0.499017
0.180572
0.318445
0.515868
0.104421
-0.148812
0.0528539
0.0959581
-0.0710437
0.152798
-0.0449239
0.0377797
-0.377867
-0.273275
0.0514545
-0.00448938
0.361137
-0.0889023
0.0643255
0.00439393
-0.041391
0.00570452
0.597307
0.103751
-0.0794259
-0.0243256
-0.11332
-0.0749162
0.147392
-0.307737
0.160345
0.0962581
-0.0515801
-0.044678
0.201713
-0.0271889
0.0691824
-0.249866
0.180684
-0.51651
0.143065
0.373445
-0.050945
0.0431374
-0.720279
0.288844
0.431434
-0.0698054
-0.0526687
0.417985
-0.166424
-0.251561
0.0140665
-0.27821
-0.0661275
0.344337
-0.250733
-0.0454605
-0.0336102
0.0316416
-0.326813
0.0936261
0.0421125
-0.0469644
0.105886
0.0308281
-0.275748
-0.444531
0.039314
0.0644375
-0.0732481
-0.000597693
0.171959
-0.171362
-0.733405
0.446562
-0.138555
0.0238618
-0.0696457
0.0457839
-0.00472233
0.0465376
-0.0418153
-0.714378
0.25947
0.454908
-0.0150685
-0.0576626
0.0727311
0.0321984
-0.0276185
-0.0045799
-0.444561
-0.0783145
-0.247665
-0.209033
-0.380348
0.547458
0.000424873
-0.547883
-0.0510116
0.0461206
0.00184403
0.00114075
-0.540286
0.43117
0.109115
-0.361088
-0.171251
0.0936983
-0.0272824
-0.0664159
0.0212188
-0.0845568
-0.0175008
0.25714
-0.401004
0.12936
0.271644
-0.129547
0.164117
-0.57111
0.442382
0.128728
-0.375308
0.0961828
0.279125
-0.39952
-0.140766
0.0924002
-0.27786
-0.436518
-0.130243
0.0364954
-0.221111
0.000123891
0.490419
-0.490542
-0.00140538
-0.204968
-0.335533
0.0732314
0.262302
0.0824011
-0.306436
0.224034
-0.133054
0.0627693
0.0702851
0.0867441
-0.0780831
0.0123562
0.0657269
-0.0879255
-0.0929916
-0.184758
0.0838441
0.183775
-0.539084
0.131648
0.407435
-0.133653
-0.154854
0.54375
-0.527652
-0.0160982
0.0614587
0.29296
-0.354418
-0.289569
0.360851
-0.0712821
0.233028
-0.453376
-0.615896
0.439212
0.176684
0.33304
-0.0931328
0.485102
-0.391969
0.0273249
-0.00919429
-0.430263
0.289271
0.140992
0.522426
-0.121894
-0.408281
0.252426
-0.0765654
-0.00428651
0.0339871
0.681084
-0.461346
-0.219738
-0.558657
0.197707
0.36095
-0.0568947
0.088122
-0.0312273
0.0684379
-0.044576
0.30998
0.371104
-0.0193653
-0.0632378
0.128265
0.312764
0.112864
-0.10264
-0.0350471
0.00107067
0.443058
-0.364747
0.0682303
-0.0841444
-0.126811
0.210955
-0.465894
0.135023
0.0157402
0.0769218
-0.092662
-0.430741
0.249131
-0.0135728
0.506018
-0.103668
-0.128271
0.166416
-0.106584
0.250889
-0.462512
0.320126
0.160576
-0.148177
-0.012399
-0.600306
0.163842
0.436464
-0.0119972
0.011786
0.000211158
0.0877845
-0.313259
0.225475
-0.562121
0.404598
-0.259229
0.18911
0.0701194
0.0997507
-0.586397
0.00435018
0.438708
0.0450402
-0.239328
0.194288
-0.0272717
-0.0552823
-0.0656942
0.0676257
-0.00193155
0.632178
-0.147465
0.432788
0.0596952
0.491658
-0.364495
0.301937
-0.428609
0.126673
-0.182798
0.205282
0.467558
0.133997
0.336738
0.173561
-0.257705
-0.142179
-0.328136
0.470315
0.521768
-0.447116
-0.0746526
-0.50515
0.543581
-0.604797
0.427602
0.177195
-0.248725
0.172946
0.600439
-0.132881
0.0502857
-0.0416878
-0.00859786
-0.0311526
-0.322247
0.0179157
0.0561276
-0.0740433
0.0331303
0.10437
-0.123867
0.0194967
-0.561076
0.13509
-0.23935
0.0122763
-0.243569
0.258676
-0.0151078
-0.315976
0.241422
-0.0634571
-0.014626
-0.00113138
0.00361455
-0.182465
-0.0354819
-0.172469
-0.557481
0.122944
0.434537
-0.102758
-0.130377
0.233135
-0.415341
0.0224611
0.114565
0.431465
0.0903029
-0.0812008
0.0529071
0.0410367
-0.0498843
-0.125223
0.108393
0.531831
-0.0159638
0.0070674
0.0719538
-0.0790212
-0.00477451
-0.0197183
0.471498
-0.451779
-0.180831
0.0675113
-0.146738
0.448675
0.318916
-0.461095
-0.705105
0.25245
0.452655
0.533893
-0.136067
-0.397825
-0.0365423
0.563916
0.0589238
-0.0543834
-0.125201
0.328865
-0.203664
0.254508
0.0608978
0.0991736
-0.295516
-0.263141
-0.00917275
0.0496499
-0.0404772
-0.132254
-0.351664
-0.563375
0.419733
0.143643
-0.268891
-0.436214
0.246071
-0.176888
-0.328822
0.238166
0.0906566
0.166821
-0.167419
-0.639924
0.311788
0.309748
-0.0723686
0.0729957
0.0207027
0.110736
0.113369
0.204631
-0.318
0.109883
-0.23117
0.128412
-0.071312
0.358179
0.263036
0.00543176
-0.268468
0.119801
-0.514296
0.394496
-0.143957
-0.294708
0.438665
0.0733539
-0.0190208
-0.131525
0.0329206
-0.00711634
-0.3797
-0.458343
-0.724817
0.449069
-0.482299
0.350045
0.214446
-0.0391543
-0.152708
-0.404772
-0.406714
-0.156661
-0.426255
-0.128078
0.256182
-0.277878
0.0216956
-0.139223
-0.0172822
0.156506
-0.121345
-0.0392344
-0.162403
0.581703
0.0821674
-0.26495
0.33535
-0.0704
0.205458
-0.264681
0.0592226
0.0421412
-0.143857
-0.0748644
-0.05819
-0.00499119
-0.157319
0.16231
-0.170176
0.183186
-0.0130103
0.0639197
0.0153424
0.491029
-0.653432
0.00848723
-0.397503
-0.188566
0.00519675
0.0656268
-0.0806953
0.0409089
0.172495
-0.213404
0.0192752
-0.0761699
0.0244742
-0.202763
0.178289
0.00845335
0.0338045
0.00479667
0.0997688
-0.087585
-0.0121838
-0.148243
-0.717085
0.439225
0.334155
-0.0831688
0.26789
-0.185488
-0.626
0.130168
-0.118404
-0.0117645
0.0303918
-0.00398734
-0.0264045
0.318691
0.0421603
-0.315728
-0.236404
-0.109133
0.345537
0.491273
0.198836
-0.174362
-0.371967
0.257094
0.114874
-0.249404
0.00583569
-0.698892
0.233174
0.465718
-0.0944683
-0.0694281
0.2159
-0.146472
0.00643844
0.14323
-0.149668
0.525706
0.0480191
0.47314
0.127299
0.0327433
0.181703
0.24332
-0.44682
-0.131364
-0.113729
-0.175779
0.289507
-0.279908
-0.360015
-0.263491
-0.435401
0.056924
-0.313703
0.256779
0.26859
-0.0124081
0.0294139
0.275595
-0.305009
0.0717448
0.368318
-0.440062
-0.712001
0.44311
0.18859
-0.0308707
0.494922
-0.192979
-0.301943
0.0299484
0.0818263
-0.111775
-0.134552
0.0194729
0.115079
0.0893481
-0.0732169
-0.0161312
0.602978
-0.403478
-0.199499
-0.0534542
0.125851
0.590925
-0.117785
-0.00668874
0.0488012
0.460945
-0.361898
0.250675
0.0123608
-0.616513
0.489103
0.12741
-0.457463
-0.247824
-0.251193
0.365985
0.236993
0.109477
0.337702
0.172914
-0.285823
-0.00050315
0.00294793
0.0658797
-0.085245
0.0225438
0.0737143
-0.0426436
0.0780988
-0.019175
0.0132008
0.0682234
-0.0814242
-0.290206
0.371894
-0.0816874
0.262629
-0.197692
-0.0649373
0.265259
-0.337786
0.085936
-0.0944264
0.0084904
-0.123389
0.431306
-0.221779
-0.128075
0.349854
-0.540188
0.145453
0.394736
-0.140025
0.0447971
-0.259436
-0.0158647
-0.0500293
0.0186288
0.00770249
-0.036484
0.0321974
0.336721
-0.238397
0.117637
-0.138935
-0.00437642
-0.019556
0.109144
-0.00524074
0.321839
-0.249326
-0.0725129
-0.260734
-0.0278338
0.00301286
0.133903
-0.355682
0.110557
-0.452531
-0.311085
0.0958417
-0.209793
-0.220949
-0.547521
0.457467
-0.0520403
-0.41683
0.57263
-0.1558
-0.156918
-0.231647
0.388565
0.160257
0.00332309
0.108848
-0.161548
-0.0892277
-0.254661
-0.0109484
0.131235
-0.00537582
-0.13547
0.140845
-0.0568076
0.0363524
0.013892
-0.0154689
0.141558
-0.209883
0.183248
0.0266356
0.000162992
-0.442501
-0.705938
0.442448
0.0881055
0.248616
-0.50515
-0.0943492
0.0252114
0.0691379
-0.149914
0.128242
0.021672
-0.193067
0.00637355
0.116081
-0.122455
-0.0715538
0.00504295
0.0665108
-0.151925
-0.38874
-0.151448
0.0213523
-0.0268192
0.03962
0.0804157
-0.134161
0.605851
-0.161662
-0.444188
0.568747
-0.0777181
0.0135711
0.0329676
0.322609
-0.455837
0.319165
0.136672
0.107479
0.510468
0.10594
-0.359804
-0.293628
-0.0322909
0.0295566
0.0027343
-0.126024
0.121033
-0.194308
0.322112
-0.127804
0.0235228
0.452314
-0.475837
-0.43418
0.172218
0.0119986
-0.15134
0.139342
-0.164633
0.12622
-0.287049
-0.105888
0.591803
-0.00349636
0.0373009
-0.16484
0.175908
-0.0110675
0.133542