/*--------------------------------*- C++ -*----------------------------------*\
| =========                 |                                                 |
| \\      /  F ield         | OpenFOAM: The Open Source CFD Toolbox           |
|  \\    /   O peration     | Version:  v2012                                 |
|   \\  /    A nd           | Website:  www.openfoam.com                      |
|    \\/     M anipulation  |                                                 |
\*---------------------------------------------------------------------------*/
FoamFile
{
    version     2.0;
    format      ascii;
    class       volVectorField;
    location    "200";
    object      U;
}
// * * * * * * * * * * * * * * * * * * * * * * * * * * * * * * * * * * * * * //

dimensions      [0 1 -1 0 0 0 0];


internalField   nonuniform List<vector> 
15335
(
(0.778193 0.0130742 2.42748e-21)
(1.05189 0.0142207 -9.80036e-21)
(1.0382 -0.0328143 0)
(1.02282 -0.000232433 5.38578e-22)
(1.04541 -0.00417593 2.83571e-21)
(1.0229 0.00341581 -1.09849e-21)
(1.0621 -0.00432162 0)
(1.01871 -0.000235978 1.32711e-22)
(1.02656 0.000141892 3.39135e-22)
(1.02978 -0.0031535 0)
(1.03949 -0.000669664 1.56278e-21)
(1.0227 6.04319e-05 0)
(1.02142 -0.00702515 -1.18125e-21)
(1.04249 -0.0195495 0)
(1.05253 0.00139106 0)
(1.02684 -9.44384e-05 5.38963e-24)
(1.05503 0.0134206 5.18658e-21)
(1.06474 -0.0227779 0)
(1.02511 -0.000514894 -2.9979e-22)
(1.0498 0.00252222 -5.11804e-21)
(1.02671 0.000152774 -2.29245e-22)
(0.436728 -0.0473304 1.04686e-20)
(1.04983 -0.00523064 6.5343e-21)
(1.02702 0.000172057 0)
(1.03769 -0.0326821 -1.09135e-21)
(0.680162 0.0134674 0)
(1.06267 0.00313271 0)
(1.02694 0.00052675 2.32024e-22)
(1.05336 0.00214194 -3.64624e-21)
(1.03752 0.00234312 0)
(1.02698 0.000365584 -1.45712e-22)
(1.06089 0.0039673 0)
(1.01959 -0.000196048 0)
(1.02589 -0.00301382 0)
(1.06033 0.00374939 0)
(1.05801 0.00924719 -8.02859e-21)
(1.02962 -0.00313572 0)
(1.02586 -0.00152543 2.00062e-21)
(1.04321 -0.0190127 -2.21502e-21)
(1.06384 -0.023347 0)
(1.02531 0.000320055 8.83999e-22)
(1.01514 0.0152097 -2.04662e-21)
(1.02579 7.3713e-05 -6.19292e-23)
(1.02285 -0.0091057 -1.15207e-21)
(0.882738 -0.00133281 -8.40655e-23)
(1.02634 0.000439319 2.19878e-22)
(1.04707 -0.00731723 -6.24156e-21)
(1.02075 -1.43456e-05 9.29886e-24)
(1.0544 0.00265772 7.95709e-21)
(1.0219 -0.000343924 0)
(1.02718 0.000188575 -1.11665e-22)
(1.02748 0.000390915 2.38357e-22)
(1.03271 -0.00399242 -2.08603e-23)
(1.02719 0.000444802 9.2639e-22)
(0.2291 -0.00241943 -4.37692e-20)
(0.854748 -0.000919926 2.06994e-24)
(1.03706 -0.0316664 0)
(1.0297 0.00146161 0)
(1.02559 -0.00148098 1.87195e-21)
(0.393997 0.0144126 1.1274e-20)
(1.05288 0.0139641 9.47552e-21)
(1.02933 -7.50959e-05 0)
(1.0326 -0.0041165 -3.01546e-22)
(1.02732 -0.00264101 -1.74873e-22)
(1.04505 -0.00404599 2.31953e-21)
(0.770313 0.0138155 3.56217e-21)
(0.892417 -0.00167749 -1.3253e-23)
(1.02923 -6.25923e-05 5.75295e-22)
(1.04041 -0.0158052 1.57593e-21)
(1.02584 2.99469e-05 0)
(1.03012 0.00144413 9.59687e-22)
(1.04963 -0.00491211 -4.87069e-21)
(1.03326 -0.00331518 1.04069e-22)
(0.929433 -0.00190398 -2.01596e-23)
(1.02938 -0.00496497 8.68725e-22)
(0.895075 -0.0220491 0)
(1.05414 0.0137701 2.76393e-21)
(1.01646 7.32455e-05 -1.20407e-23)
(1.023 -0.000158653 -3.76649e-23)
(1.05767 0.00905418 7.56768e-21)
(0.753448 0.0119315 -8.48237e-21)
(1.05131 0.00693844 -6.42043e-21)
(1.05149 0.00699303 0)
(1.05317 0.0102796 5.87589e-23)
(1.03595 -0.0137031 1.99247e-21)
(0.429242 -0.0203662 1.54336e-20)
(1.02731 -0.00277696 -4.32828e-22)
(1.06214 0.00325362 0)
(1.02318 0.00332932 6.432e-22)
(1.02725 0.000301824 -1.18174e-21)
(0.595769 0.0170462 -1.29266e-23)
(1.01879 -0.00712926 -1.38196e-21)
(0.939923 -0.00193847 9.59264e-23)
(1.0348 0.0156203 6.08926e-21)
(1.04948 0.00252437 4.92895e-21)
(1.0534 0.0103116 -7.43372e-21)
(1.02602 6.98889e-05 0)
(0.778074 0.0138267 8.67317e-21)
(1.02708 0.000365304 0)
(0.773055 0.0137233 1.16318e-20)
(1.02618 8.36901e-05 5.69215e-23)
(1.02669 -0.00300238 2.04305e-21)
(1.05441 0.0133055 0)
(1.02709 -9.02719e-05 1.05725e-25)
(1.02197 -4.72351e-05 0)
(1.02612 6.7849e-05 5.43264e-23)
(0.171595 0.0122823 -9.50958e-21)
(1.02737 -0.00124342 0)
(1.029 0.0014456 -3.30434e-22)
(1.04463 -0.0205794 0)
(1.00644 4.09156e-05 0)
(1.02396 -0.00945326 -1.07703e-21)
(1.02853 0.00171354 0)
(1.01824 -7.59675e-05 0)
(1.01991 -0.000255071 -2.76215e-22)
(1.02665 0.000456775 -4.31491e-22)
(1.05862 -0.00456491 1.27868e-21)
(1.02203 -1.27975e-05 -1.33224e-22)
(1.03013 0.0157149 9.87206e-21)
(0.602045 0.0180338 -1.67439e-21)
(1.0269 -0.00307018 -1.30064e-21)
(1.06233 -0.00252431 1.34887e-20)
(-0.0191384 0.0725088 -1.76862e-20)
(1.02529 -0.000551642 0)
(1.05992 0.00422496 3.47867e-21)
(1.02746 0.000555372 -2.1873e-22)
(1.02541 5.70977e-05 0)
(0.552214 -0.0438035 0)
(1.06007 0.0048072 -3.77924e-21)
(1.02907 0.00147699 2.58344e-22)
(1.02793 0.000591943 3.63032e-22)
(1.06274 -0.00296919 -1.81115e-20)
(1.02152 -0.000154457 -4.5791e-22)
(0.769761 0.0130002 0)
(1.02854 0.000411584 2.06067e-22)
(0.976701 -0.00119731 -1.5084e-22)
(1.02753 -0.00183629 -2.95738e-22)
(1.02599 4.0362e-05 -5.15069e-23)
(1.04492 -0.0197625 0)
(1.02615 -0.00306452 3.66666e-22)
(1.03838 -0.00160875 0)
(0.801073 -0.0406129 2.10879e-21)
(1.02288 -0.000225096 0)
(0.698506 0.0122216 8.16935e-23)
(-0.019757 0.077542 -2.05084e-20)
(1.03919 -0.00334143 3.68774e-21)
(0.866868 -0.0224553 2.28546e-21)
(1.0306 0.00156565 6.77749e-22)
(1.03632 0.00391939 -9.60416e-22)
(1.02206 -0.00865233 -2.42592e-21)
(1.02285 -9.838e-05 3.63805e-23)
(0.711517 -0.0472771 -4.71211e-21)
(1.02482 -0.000103921 1.26316e-23)
(1.04874 0.00462649 0)
(0.872667 -0.011714 1.21917e-20)
(1.02743 -0.00158658 -8.08271e-22)
(1.05273 0.0105142 -2.89721e-21)
(1.02739 -0.00117815 0)
(1.02682 0.000413031 0)
(1.03539 -0.0133425 -1.7357e-21)
(1.02531 -0.000545173 6.89523e-22)
(1.02824 0.00131605 -7.08901e-22)
(1.03305 -0.00340846 -1.25326e-22)
(1.02452 -0.0108927 0)
(1.03059 0.00161066 -3.52006e-22)
(1.02287 -0.000234306 5.67455e-22)
(1.02731 0.00044105 -1.55535e-22)
(0.681817 -0.0490464 1.30945e-20)
(1.0288 0.000350587 0)
(1.02267 0.000113379 0)
(1.04412 -0.000572838 -4.31978e-21)
(1.02741 -0.00174027 3.60819e-22)
(1.03924 -0.0012365 -2.36085e-21)
(1.02748 -0.00169788 9.51913e-22)
(1.02724 -0.00742935 -5.16505e-23)
(1.03636 -0.0104105 -7.31611e-22)
(0.758186 0.0108523 0)
(1.02881 0.000358818 0)
(1.05384 0.0100635 -3.85084e-21)
(0.791126 0.0128977 1.29414e-20)
(1.03873 -0.00159906 0)
(1.02817 0.00130639 -3.05957e-22)
(1.02075 -0.000344691 0)
(1.04552 -0.00448366 -2.81618e-21)
(1.04536 -0.00485029 2.37303e-21)
(1.06923 -0.0031357 0)
(1.05296 0.0105653 1.25448e-20)
(1.02772 0.00122637 -5.18242e-22)
(1.02185 7.19143e-05 0)
(0.10004 0.0199718 5.10912e-20)
(1.02205 -0.000175981 -4.94543e-23)
(0.773237 0.0143824 -1.32674e-20)
(1.05448 0.00302633 -1.1508e-20)
(1.02541 0.00032845 -4.58437e-22)
(1.0359 0.000341987 -4.29927e-23)
(1.01424 0.0143638 -8.11237e-21)
(1.03886 -0.00122548 1.80571e-21)
(1.02961 -7.40956e-05 0)
(1.04506 -0.0221082 3.60021e-21)
(1.06816 0.0063805 -4.074e-21)
(1.03114 -4.23373e-05 -1.6819e-23)
(1.02709 -0.00786575 -5.56308e-22)
(1.02731 0.00050636 3.51047e-22)
(1.02157 -0.00862646 0)
(0.76298 0.0136778 -1.57626e-20)
(1.02935 0.00163809 -5.50551e-22)
(1.0266 -0.0328167 -2.98819e-22)
(1.02503 -7.53407e-05 -2.39168e-22)
(1.0613 0.00362383 2.54861e-21)
(0.773143 0.0131416 -1.18296e-20)
(1.05526 0.0134422 0)
(1.02683 0.00069457 2.88577e-21)
(1.02582 0.00038227 4.10739e-22)
(1.02833 0.00143108 7.39898e-22)
(1.05422 0.0137785 -5.87019e-21)
(1.02813 -0.00814587 1.69006e-21)
(1.01974 -0.00014041 0)
(1.05398 0.00608293 4.69561e-21)
(1.02102 -0.000278029 3.66962e-22)
(1.03937 0.000249703 -3.89216e-23)
(1.03634 -0.0108703 6.88073e-22)
(1.02322 -0.00961638 3.46008e-21)
(0.93724 -0.00104005 3.33487e-21)
(1.05362 0.0100322 0)
(1.0186 -0.000335417 0)
(0.674567 -0.00125409 -1.64262e-20)
(1.0528 -0.0200674 0)
(1.02979 -0.00463849 -3.05822e-22)
(1.06145 -0.00408113 0)
(1.05383 0.0135913 0)
(1.02983 0.0012438 -8.2904e-22)
(1.06942 -0.00383937 0)
(0.773995 0.00718375 0)
(1.05133 0.000520526 5.60992e-21)
(1.03445 -0.00311361 0)
(1.03876 -0.00592016 -1.89153e-21)
(1.02745 0.000341101 8.36042e-22)
(0.631526 -0.00422048 0)
(0.605757 0.017726 -3.80651e-21)
(1.02988 -0.00559485 3.55585e-23)
(1.02235 -0.00919278 1.18849e-21)
(1.03054 0.0063612 6.31178e-24)
(1.02404 -0.0140704 -1.59885e-21)
(1.04448 0.000523635 3.62656e-21)
(0.794365 0.0120266 9.64233e-21)
(1.04578 -0.00657163 1.51623e-21)
(1.00402 7.48007e-05 -1.60756e-23)
(1.02784 -0.00790916 0)
(0.958576 -0.0220416 0)
(1.03342 0.0156284 -2.54262e-21)
(1.04852 0.00429462 3.79364e-21)
(1.02804 0.000243278 -2.78008e-24)
(1.06222 0.00946139 4.68196e-21)
(1.03008 0.00158009 0)
(1.02703 0.00021238 0)
(0.401527 -0.0458927 -1.09104e-20)
(1.02951 -0.0047899 3.70863e-22)
(1.0188 -6.07108e-05 -1.62329e-23)
(0.912091 -0.000854091 -2.70159e-20)
(1.02682 0.000213505 0)
(0.986281 0.0140897 0)
(1.0515 0.0152815 6.25763e-22)
(0.625963 0.017429 -1.73102e-21)
(1.0698 0.00712969 -4.66846e-21)
(-0.0192244 0.0748251 0)
(0.665376 0.0221431 -1.06972e-20)
(0.849849 -0.0109555 1.56145e-20)
(1.0264 0.000243079 -1.85316e-22)
(1.05437 0.0137846 6.0126e-21)
(1.03922 -7.79657e-05 1.94778e-21)
(1.06141 -0.0202943 1.4667e-20)
(1.02575 -9.53907e-05 1.18672e-23)
(0.779406 0.012155 9.2917e-21)
(1.02879 0.000430751 -2.00868e-22)
(1.03505 -0.00665703 -7.04414e-22)
(0.756227 0.00863411 -2.09968e-20)
(0.411131 0.0333807 0)
(1.028 0.00116488 0)
(1.03554 0.000406622 -2.15341e-21)
(0.765945 0.0138203 8.94139e-21)
(1.02658 0.000482114 1.13694e-22)
(1.0263 3.42337e-05 1.51135e-22)
(1.03343 -0.00629466 2.61021e-23)
(1.03612 0.00315832 -1.17092e-21)
(1.062 -0.0192094 3.84598e-21)
(1.03602 0.00337589 2.06813e-21)
(1.03585 -0.0142664 0)
(1.02286 -0.000196934 -2.95291e-22)
(1.06611 0.00592287 0)
(1.04903 0.00456741 4.51161e-21)
(1.06307 0.00912256 0)
(1.04305 -0.00393488 0)
(1.02713 0.000415733 4.56947e-22)
(1.02753 -0.00185752 -8.58142e-22)
(0.652979 0.0216261 8.73279e-21)
(1.04915 0.00145431 -1.11758e-21)
(1.04408 0.000691559 7.12638e-21)
(1.02721 0.000439047 -1.6393e-22)
(1.03891 0.000137631 -1.73641e-21)
(1.0332 -0.00642972 3.18116e-22)
(1.03607 0.00155912 1.67054e-22)
(1.05085 -0.0180144 0)
(0.86557 -0.00451054 1.22439e-21)
(1.02962 0.00154765 3.11826e-22)
(0.858356 -0.0427278 -6.29982e-21)
(1.02653 0.000476832 -1.50738e-22)
(1.02684 0.000519546 0)
(1.0435 0.00267572 -9.21218e-23)
(0.691811 0.0213379 0)
(1.05213 -0.0209733 0)
(0.467365 0.0209031 -1.68275e-20)
(1.04561 0.00529233 -2.26852e-23)
(1.02706 0.00123357 -2.39726e-21)
(0.762105 0.0123399 -9.5098e-21)
(1.02645 0.000446282 4.2381e-22)
(1.03017 0.00155245 0)
(1.02934 0.000309234 -1.19926e-22)
(1.02908 0.000330798 -1.62448e-22)
(1.03912 -0.000477592 4.42094e-22)
(1.02 -7.69854e-05 -2.06579e-22)
(1.0296 0.00480674 -2.90126e-22)
(1.02138 -0.000282927 0)
(0.805641 -0.00306933 0)
(0.912576 -0.00531533 6.58278e-21)
(1.04925 0.00109438 0)
(-0.0146987 0.0744201 5.41137e-20)
(1.06357 -0.0226865 0)
(1.02909 0.000337735 -1.7469e-22)
(1.0295 0.000275525 -2.20094e-22)
(1.02984 0.00027085 -5.20803e-23)
(1.0256 0.000353886 0)
(0.749266 -0.00548401 -1.90278e-21)
(1.06263 0.0148853 -9.58681e-21)
(1.02678 0.000588439 2.73393e-21)
(1.05251 0.00789629 4.05353e-21)
(1.02597 5.39704e-05 -5.61354e-23)
(1.02088 0.000113679 -1.04706e-21)
(1.04818 0.00433461 0)
(1.04253 -0.0206025 0)
(1.01503 0.0137583 0)
(1.03945 -0.014463 1.42529e-22)
(1.05737 -0.00617518 0)
(1.06056 -0.0179307 -1.13277e-20)
(1.03993 -0.0147215 -3.07189e-21)
(1.011 -1.20385e-05 8.68214e-24)
(0.992681 0.0155316 0)
(1.04545 -0.0213348 -3.50069e-21)
(0.961374 -0.0211071 0)
(1.04448 -0.000775495 2.41397e-21)
(1.04635 0.00578544 -1.0328e-20)
(1.02135 -0.00574495 1.69739e-21)
(1.02936 0.000320437 0)
(1.02216 -0.000294503 1.76515e-22)
(0.722262 -0.0413736 -1.94588e-21)
(0.993293 -0.000434156 4.62457e-21)
(1.04524 0.000755971 -5.24596e-22)
(1.02958 0.0014588 0)
(1.02953 0.00026686 0)
(1.02253 -7.16074e-05 -6.25162e-22)
(0.69852 0.00162563 -8.94271e-22)
(1.02377 0.00284183 -2.70245e-22)
(1.02536 0.000319194 0)
(1.04816 -0.00323757 0)
(1.02353 0.00289335 0)
(1.02512 -0.000507281 2.34028e-22)
(1.03003 0.00139904 -3.47436e-22)
(1.03938 -0.00371037 -1.9621e-21)
(1.03948 -0.000910191 -2.7429e-21)
(1.05468 0.00228806 5.81654e-21)
(1.02503 0.0013038 -2.75044e-22)
(1.02961 0.00140165 0)
(1.02309 -0.00016852 0)
(1.05091 0.000516964 0)
(1.02255 -0.000140483 -1.99816e-23)
(1.02687 0.000322399 0)
(1.02682 0.000485689 1.96462e-22)
(1.02449 -0.000106827 1.38462e-24)
(1.02485 -0.000103869 -4.39766e-24)
(1.02753 0.0042854 3.32282e-23)
(1.02119 -0.00532466 -6.91167e-21)
(0.914402 -0.0248592 4.50291e-21)
(1.05971 0.00515231 9.3754e-21)
(1.02781 0.00186802 5.83115e-22)
(1.02378 -0.0147805 -5.91412e-22)
(0.63866 0.00226897 -1.73104e-20)
(1.0399 -0.0155531 1.61427e-21)
(1.02604 0.000417691 -8.58876e-22)
(0.87069 0.0103181 1.88407e-20)
(1.02706 0.000177832 1.32702e-21)
(1.0276 -0.00192062 -4.51458e-22)
(1.04121 0.00556289 -1.08413e-21)
(1.02517 -0.0107518 0)
(1.02737 0.000391583 0)
(1.04618 0.00597004 9.77051e-21)
(0.672179 -0.00400741 0)
(1.02854 -0.00574067 1.61485e-21)
(1.03389 0.00435313 0)
(1.02475 -0.000106054 0)
(1.02283 -7.51062e-05 -4.80067e-24)
(0.890365 0.00890152 -2.24245e-20)
(1.05275 0.00102517 6.89089e-21)
(1.04106 0.00087128 1.47761e-23)
(1.03163 -0.022568 0)
(1.02728 0.000233509 0)
(1.02624 0.000392231 1.43138e-22)
(1.05832 -0.000327834 -1.09183e-20)
(1.02562 0.000149079 1.87588e-22)
(1.03863 0.00065503 -3.52968e-21)
(1.03553 -0.0316348 0)
(1.0335 0.00424654 -1.01623e-21)
(1.02733 0.000224321 -2.86972e-24)
(1.03305 -0.000370026 -1.39249e-21)
(1.02184 -7.77203e-05 3.11661e-23)
(1.04404 0.00113652 -3.90776e-21)
(1.05133 -0.0171766 3.70956e-21)
(1.02674 0.000462269 2.18191e-22)
(1.02483 0.0012521 5.89822e-22)
(1.04599 -0.00614528 0)
(1.0274 -0.00156708 7.75898e-22)
(1.0298 0.00120468 1.14016e-21)
(1.05465 0.00755789 0)
(1.02433 -0.000341593 8.80253e-22)
(1.05579 0.0134984 0)
(1.0272 0.00414007 4.87368e-24)
(1.03558 -0.0126505 8.76981e-22)
(1.0238 -0.0131449 -4.28245e-21)
(1.02536 -0.000608152 -1.02067e-22)
(1.02733 -0.00146221 -1.31089e-21)
(1.02755 0.000556139 -2.08288e-22)
(1.05569 0.0138554 0)
(0.977162 0.0141066 0)
(1.02873 0.00145439 -2.92634e-22)
(1.01782 -3.88568e-05 6.18603e-24)
(1.04236 0.000825611 1.0448e-22)
(1.02467 -0.000107278 0)
(1.0257 0.000150636 0)
(0.838124 0.0119996 -4.40493e-21)
(1.05438 0.00766375 5.89666e-21)
(1.02436 -0.000316773 -4.46549e-22)
(1.05341 0.000649258 7.02849e-24)
(1.02587 7.20974e-05 -6.03156e-23)
(1.02919 -0.00315888 -9.17416e-24)
(1.02321 -0.000157217 -1.86108e-22)
(0.744314 0.0119662 2.6523e-20)
(1.04556 0.00115919 6.45091e-22)
(0.897882 -0.00291983 0)
(1.05055 -0.0100024 2.32209e-21)
(1.02883 0.00534453 -3.9374e-22)
(1.04901 0.00287422 0)
(0.990983 -0.000249327 0)
(1.02924 0.00161584 5.93409e-22)
(0.848441 0.012016 1.30316e-20)
(1.02475 -0.000513635 0)
(0.362424 0.0112336 -7.73681e-21)
(1.02292 -0.000159507 2.24052e-22)
(1.0274 -0.00081671 0)
(1.05212 0.00596778 0)
(0.967542 0.0141897 -2.26833e-21)
(1.03007 0.00133044 0)
(1.03638 0.00365244 -2.28239e-21)
(1.02737 -0.00102659 1.56748e-21)
(1.04691 -0.00779646 7.13396e-21)
(1.03064 0.00148277 0)
(1.0427 -0.00367126 0)
(1.05439 -0.0186113 0)
(0.825882 -0.000687063 5.91302e-24)
(1.01588 -0.000249531 3.05636e-22)
(1.05394 0.0137456 -2.61277e-21)
(1.0455 0.00146855 -2.25991e-21)
(1.04365 0.00127604 -3.64779e-21)
(1.02544 -0.000586917 -1.55933e-21)
(0.806709 0.0124511 -4.93999e-21)
(1.04596 0.00516142 -4.88589e-21)
(1.06157 0.00116413 -5.5032e-21)
(1.02917 -0.00231891 -1.95257e-23)
(1.02553 4.90066e-05 0)
(1.02654 -2.97408e-05 1.22295e-22)
(1.03829 -0.00700768 0)
(0.612952 0.0168004 1.54549e-20)
(1.03317 0.00376669 0)
(1.02762 -0.0037085 1.76325e-21)
(1.03137 -0.00456828 1.97321e-22)
(1.02998 -0.00463958 2.28078e-22)
(1.02287 -0.000219936 -5.62812e-22)
(1.02276 -8.96193e-05 1.32882e-23)
(0.923494 -0.0234695 0)
(1.0293 -0.00586632 -8.92438e-22)
(1.02936 -0.00320704 0)
(1.02743 0.000507943 -1.74604e-22)
(1.02741 -0.000751895 -5.18867e-22)
(1.03004 0.000626655 -4.66355e-23)
(1.03024 0.000621555 -2.60031e-23)
(1.02565 5.57935e-06 0)
(1.02414 -0.000104701 2.38753e-24)
(0.797115 0.0126038 9.9308e-21)
(0.686519 0.0173792 8.90757e-22)
(0.588035 0.0147454 6.33432e-21)
(1.05183 0.00469034 -1.23765e-21)
(1.05316 0.00176462 0)
(1.05998 -0.0160635 0)
(1.03058 0.00155409 0)
(0.266515 -0.0356714 -3.21271e-21)
(1.02921 -0.000181832 0)
(1.05843 -0.00143093 0)
(1.0259 4.03649e-05 -1.36929e-24)
(1.04787 0.000388366 0)
(1.05172 0.00442832 0)
(1.05468 -0.0193798 0)
(1.02279 -0.000259544 6.49494e-22)
(1.02944 -0.00436226 8.11834e-22)
(1.02901 -0.00571925 6.27707e-22)
(1.02655 -0.000338397 9.25575e-22)
(1.05674 0.00287962 2.83184e-21)
(1.06165 -0.0183892 -7.77599e-21)
(1.03541 0.000268168 4.58413e-23)
(1.02591 8.37829e-05 1.32397e-22)
(1.03326 0.00123979 -6.25882e-22)
(1.0232 -8.27257e-05 5.02656e-25)
(1.05829 0.0080051 4.80511e-21)
(0.856826 0.00652538 1.77359e-20)
(0.587869 0.0221411 -8.63741e-21)
(0.357556 0.0148508 -9.45173e-21)
(1.04537 0.00223958 -6.7115e-22)
(1.02699 0.000322899 0)
(1.03112 -0.0328808 -4.8095e-22)
(1.02916 0.00100971 -3.34162e-22)
(1.04243 0.00333341 -5.94469e-21)
(1.02945 -0.00566021 2.71449e-22)
(1.02723 0.00041618 -3.00119e-22)
(1.02752 -9.9458e-05 9.09545e-22)
(1.03936 -0.00305478 1.04873e-21)
(1.05932 -0.00462182 -7.69953e-21)
(0.766934 0.0113785 9.11955e-21)
(1.02909 0.00097941 0)
(1.06091 -0.0133843 -6.37465e-21)
(1.03878 -0.0156878 -1.84297e-21)
(0.585798 -0.041098 0)
(1.02695 0.0017408 0)
(1.02781 0.000205866 -6.45246e-23)
(1.03804 -0.00681724 -1.0839e-21)
(1.02688 0.00114534 0)
(1.05412 -0.0167892 7.0862e-21)
(1.02434 0.000906327 0)
(0.650662 0.018981 -4.26152e-21)
(1.02706 0.00372466 3.28114e-25)
(0.944162 -0.00620125 6.1728e-21)
(0.815003 0.0126037 -2.717e-21)
(1.03899 0.000485056 0)
(1.05664 0.00603154 -8.08864e-21)
(1.0512 -0.00992309 -2.56219e-21)
(1.053 0.00713385 5.06171e-21)
(1.02716 -0.00156006 0)
(1.02559 2.99596e-05 0)
(1.02731 0.000366524 -4.22506e-22)
(0.640407 0.020252 -4.69178e-21)
(0.681809 0.0167517 -4.37322e-21)
(1.02277 -0.000260912 -6.58393e-22)
(1.02884 -0.00589679 -7.79886e-22)
(1.02972 0.00613567 -2.58903e-22)
(0.71583 0.0183606 0)
(1.04967 -0.0109135 0)
(1.0293 -0.00242921 1.4609e-22)
(1.05273 0.0017511 0)
(1.02834 0.000219439 3.39351e-22)
(1.02042 0.000905338 2.42181e-21)
(1.03852 -0.00560769 1.64934e-21)
(1.05117 0.00713113 1.77014e-23)
(1.04666 -0.00696737 0)
(0.825 0.0120868 -8.95203e-21)
(0.699622 0.0173674 1.22533e-20)
(0.785101 0.00468685 0)
(1.02483 -1.78836e-05 -1.38743e-22)
(1.024 6.99267e-05 -4.0575e-22)
(1.05862 0.000137956 1.26785e-20)
(1.03395 -0.00324492 1.18976e-21)
(1.02406 7.73617e-05 3.97358e-22)
(1.02731 -0.00165455 0)
(1.02186 -0.000117643 -9.41914e-24)
(1.03117 0.000545191 7.54988e-22)
(0.879516 0.0104133 0)
(0.963395 -0.00750035 9.23453e-21)
(0.690161 0.0180676 0)
(1.05379 0.00628877 -5.70391e-21)
(1.02664 -0.000245301 -8.33182e-22)
(1.05317 0.0024638 4.17999e-21)
(0.0118539 0.0213226 8.83357e-21)
(0.621026 0.0190918 -8.39057e-21)
(0.798287 0.0129918 3.37325e-21)
(1.05074 0.0010225 1.70644e-22)
(1.02693 0.000414221 0)
(1.02782 0.000589371 -3.93514e-22)
(1.02834 -0.00591198 4.59304e-23)
(1.0614 0.0164378 -7.66227e-21)
(1.02004 -0.000429148 -7.7682e-22)
(1.0229 -0.000286816 0)
(0.0173555 -0.00475769 -1.737e-20)
(1.02738 -0.00813256 6.16577e-22)
(0.594915 -0.0466787 -3.67316e-21)
(1.02541 6.17396e-05 -3.87654e-22)
(1.06241 0.0094307 0)
(1.04562 -0.00575306 -2.49672e-21)
(1.05163 0.00511449 -1.04016e-22)
(0.60709 0.0186564 1.26515e-21)
(0.852 0.00734366 -8.39741e-21)
(1.0269 -0.00715785 1.88786e-21)
(1.02574 0.000376819 0)
(1.04419 -0.0192228 2.91594e-21)
(1.02751 -0.00185554 3.20091e-22)
(0.45924 -0.025855 -1.71877e-21)
(1.05321 0.00701327 6.82648e-21)
(0.518271 -0.0222927 0)
(0.836264 -0.00132938 3.64119e-23)
(1.07162 0.0123534 -2.51331e-21)
(1.02677 0.000498826 -2.19919e-22)
(1.0384 -0.00245166 -6.05565e-23)
(1.0302 -0.0205241 -1.95662e-23)
(1.05823 -0.00508275 -3.3055e-22)
(0.251176 -0.0328406 6.14895e-21)
(1.0442 0.00722985 3.94138e-21)
(1.02651 0.000243969 1.19162e-22)
(1.02268 -0.000178458 2.08904e-22)
(1.02908 -0.00328484 -8.82023e-22)
(1.02894 6.91244e-05 -1.5942e-22)
(1.04047 -0.00606985 1.57048e-21)
(1.0626 -0.00381692 0)
(1.02776 0.000562893 -2.86101e-22)
(1.02619 0.000163858 3.39971e-24)
(1.02556 -9.78959e-05 4.3253e-24)
(1.03054 0.00084724 1.33402e-24)
(1.03836 -0.013787 2.71613e-21)
(1.01986 2.07036e-05 0)
(1.06299 0.00369541 0)
(1.02649 0.000464797 -4.11598e-22)
(1.0458 -0.00532197 -2.77458e-21)
(1.05698 -0.000861625 0)
(0.782983 0.0132834 -2.19182e-22)
(1.06632 0.00505221 0)
(1.03085 0.000509401 5.21381e-22)
(1.02869 0.000472547 -1.42453e-22)
(1.05181 0.0038176 -5.1502e-21)
(1.05663 0.00566457 7.91026e-21)
(1.02636 -0.000243524 0)
(1.02258 3.63265e-05 0)
(1.04163 -0.0340029 6.12721e-21)
(1.02913 0.00558971 6.5495e-22)
(1.03148 -0.0215935 0)
(1.05241 0.00810976 -5.68988e-21)
(1.02661 0.000131073 1.25254e-22)
(1.01896 -1.18423e-05 -2.06642e-22)
(0.573617 0.0178834 -2.71371e-21)
(0.692474 -0.0175448 -4.50541e-21)
(1.02928 0.00458552 0)
(1.02697 0.000436072 2.60984e-22)
(1.02536 0.000104605 3.90601e-22)
(0.698629 0.0167471 1.67112e-21)
(1.02234 -0.000138396 -2.01223e-24)
(1.06599 -0.033884 -1.49264e-20)
(1.03304 -0.000537217 6.38725e-22)
(1.04066 -0.00574329 -1.61243e-21)
(1.03385 -0.00339203 -1.70786e-21)
(1.02696 0.000258294 -8.2023e-22)
(1.05192 0.0058771 0)
(1.06074 -0.0165658 0)
(0.890725 -0.00509454 6.897e-22)
(1.02851 0.000472418 1.3689e-22)
(1.02167 0.0155385 -1.95646e-22)
(1.04054 0.00466746 -3.84155e-21)
(1.03586 0.00532255 0)
(1.0362 0.000525696 0)
(1.02704 -0.000132426 0)
(1.02984 0.00128776 8.2155e-22)
(1.04536 0.000468146 0)
(1.04934 0.00287126 0)
(1.02286 -0.000281498 0)
(1.05802 -0.00634142 0)
(1.02304 -0.000155119 1.19068e-22)
(1.02219 0.000221631 0)
(1.02522 -5.46737e-05 0)
(1.00819 -0.000164669 3.8885e-22)
(1.02757 0.00167294 -2.33379e-22)
(1.02547 1.07502e-05 -7.95107e-22)
(0.855799 -0.00164182 -1.34868e-23)
(1.01793 -8.42395e-05 1.24006e-23)
(1.02749 0.000219267 -7.56864e-23)
(0.652483 -0.042281 0)
(0.620762 0.0156469 0)
(1.04571 -0.0227416 0)
(1.0255 0.000101062 -8.08455e-22)
(1.03723 -0.00817657 -7.51895e-22)
(1.0252 2.23992e-05 0)
(1.02248 -0.00505564 3.81823e-21)
(1.04166 -0.0210586 -4.18535e-21)
(1.02459 -0.000457484 3.15986e-22)
(1.03627 -0.0119368 9.02537e-22)
(1.02228 -0.000142983 3.61848e-22)
(0.625696 0.0187284 0)
(1.02605 -0.01984 2.31677e-21)
(1.03353 0.00390479 5.70896e-22)
(1.01929 -0.000299399 -7.07664e-23)
(0.542277 0.000802981 1.53811e-20)
(1.02922 -0.00332892 5.74686e-22)
(0.869544 0.0125814 -2.38325e-21)
(1.06963 -0.0320162 1.63236e-20)
(1.02136 -0.000306478 0)
(1.02611 8.59322e-05 -1.216e-22)
(0.545672 0.0204393 0)
(1.02818 0.00123772 -8.52028e-22)
(1.03808 -0.0159986 1.21642e-21)
(1.05097 0.0070733 6.07195e-21)
(1.04278 0.00352366 1.88899e-22)
(1.02359 -0.000339578 3.75583e-22)
(1.02076 8.08932e-05 7.84576e-22)
(1.0399 0.00254893 0)
(1.02713 -0.000117187 0)
(1.0204 -0.00023517 0)
(0.785691 0.0115076 -9.23823e-21)
(1.0203 -0.0127634 0)
(1.05419 0.0142067 -6.51261e-21)
(1.04821 0.00018026 -1.99999e-21)
(1.02728 -0.00143778 0)
(1.02787 0.000228352 0)
(1.02554 -0.000457484 -2.73927e-22)
(1.03342 -7.81345e-05 -5.9528e-22)
(1.02739 -0.000953199 -1.64242e-21)
(1.03094 -0.0137926 1.61082e-22)
(1.05134 0.0050541 -5.45466e-21)
(0.82105 -0.000648939 -6.7704e-24)
(0.680957 0.0189359 1.32336e-20)
(1.04101 -0.0154201 1.18485e-22)
(1.03814 0.0154291 -2.89248e-23)
(0.74185 0.0117427 0)
(1.05468 0.00977216 -1.02207e-21)
(1.02744 6.22245e-05 0)
(1.02784 0.000541606 1.66497e-22)
(1.02523 0.000301603 -3.18093e-24)
(1.04095 0.00720267 2.19536e-21)
(1.02667 0.000177026 0)
(1.02974 -0.00577729 -7.41504e-22)
(1.02481 6.22843e-05 1.22885e-22)
(1.02938 0.00125407 4.216e-22)
(1.02946 0.00128543 0)
(1.02567 0.000138552 -3.66829e-22)
(0.670876 0.0187957 1.01132e-20)
(0.822811 0.0116487 -1.16693e-20)
(1.0246 0.000104503 0)
(1.05455 0.0100669 4.23301e-21)
(1.02734 0.0047357 3.8383e-23)
(0.806593 0.0129375 0)
(1.05037 0.00100638 -1.62724e-22)
(1.06099 -0.0144743 1.14995e-20)
(1.02285 -0.000222978 0)
(1.05449 0.00186547 -1.08147e-20)
(1.03554 -0.0041219 -2.29664e-21)
(1.02778 -0.0102545 5.40934e-22)
(1.0353 -0.00399695 2.00676e-21)
(1.02914 -7.7431e-05 -3.41491e-24)
(0.695018 0.0191581 0)
(1.03138 0.00133125 3.17562e-22)
(1.05394 0.00573107 4.36998e-21)
(1.0415 0.015367 5.25516e-21)
(1.01511 8.46488e-05 -3.0178e-23)
(0.83525 0.0120148 8.51155e-21)
(1.02535 -0.000505589 4.42708e-22)
(1.07277 0.0126884 2.35707e-21)
(1.02723 0.000205412 2.287e-22)
(0.616656 0.0205867 0)
(1.02687 0.00472087 -1.04123e-22)
(1.02552 0.00013894 1.03565e-24)
(1.04952 0.00665543 1.2091e-21)
(1.01903 -0.0137309 0)
(1.05522 0.000618354 4.54479e-21)
(1.0265 0.000328086 9.95367e-23)
(1.02842 0.00148662 0)
(1.05852 -0.010223 0)
(1.02804 0.00126651 7.67942e-22)
(1.04812 0.00112462 0)
(1.02732 -0.0101559 0)
(1.05468 0.0133717 0)
(1.02696 0.000302708 0)
(1.04184 0.00337784 0)
(1.06199 -0.0247299 7.53745e-21)
(1.02971 0.00109241 -3.73048e-22)
(1.0274 0.000485895 4.93819e-22)
(1.03745 0.00580356 6.41387e-22)
(0.810391 0.0110067 8.71473e-21)
(1.02702 0.000462275 -1.79292e-21)
(1.02262 -0.000171955 6.36265e-23)
(1.05733 0.0100442 9.34172e-21)
(1.05109 -0.0207956 -2.68479e-21)
(1.03095 -0.0106647 0)
(0.927135 -0.00702084 -1.32984e-21)
(0.828274 -0.00087764 6.88307e-24)
(1.02745 -0.000155235 -9.25129e-22)
(1.02276 -0.00479693 -3.77426e-21)
(1.03559 0.00549272 0)
(0.830549 0.0122965 -1.3431e-20)
(1.02635 -0.00299587 1.63134e-21)
(1.02913 -0.00209031 1.46425e-22)
(1.0642 -0.0234191 -5.71776e-21)
(1.0377 -0.00972833 1.4528e-21)
(1.05771 0.0100111 -1.10375e-20)
(1.05148 0.00380033 1.37536e-20)
(1.02721 -0.00134146 0)
(1.01241 7.23616e-05 0)
(1.03871 0.001337 0)
(1.03622 0.00706112 0)
(1.03891 -0.0134395 -2.29973e-21)
(1.04163 0.00541573 2.41144e-21)
(1.02985 0.00117217 -2.78357e-22)
(0.843131 -0.000928669 2.65551e-23)
(1.05277 0.00247942 1.82527e-21)
(1.02801 0.00181411 -1.14894e-23)
(1.0309 -0.0199051 2.14352e-23)
(1.03618 -0.0125025 4.59287e-22)
(1.03153 -0.00399366 -2.30433e-22)
(1.0528 0.0136442 0)
(1.02534 0.000311721 -2.16439e-22)
(1.02136 -0.000387273 -3.86316e-22)
(1.0331 0.000115084 1.0405e-21)
(1.05493 -0.0170707 -5.10182e-21)
(1.03429 -0.00327413 0)
(1.03067 0.00129053 3.66511e-22)
(1.02062 0.00165867 1.70099e-21)
(1.05035 -0.0216144 0)
(1.02812 -0.00240444 0)
(1.02132 -0.000367927 4.10551e-22)
(1.02521 0.000291185 0)
(1.04738 -0.0180786 -4.3514e-21)
(0.844345 0.0069943 0)
(1.04575 0.00216568 -4.6981e-21)
(1.05378 0.0141162 0)
(1.0317 -9.33538e-06 0)
(1.03119 0.000413369 0)
(1.02978 0.000279384 5.39055e-23)
(0.978502 -0.0287036 2.21824e-21)
(1.02716 0.000389245 -2.88054e-22)
(1.02404 4.31583e-05 -6.82835e-22)
(1.02673 0.000483087 -4.12065e-22)
(1.02613 0.000171358 1.08815e-22)
(1.03477 -0.00657736 4.82736e-22)
(1.05777 -0.0132255 0)
(1.0275 0.000326955 -1.27021e-21)
(1.05167 0.00729919 0)
(1.02396 3.83217e-05 4.86165e-22)
(1.02838 0.000350013 -3.01469e-22)
(1.0236 -0.000366733 -3.48441e-22)
(1.02667 -9.35688e-05 0)
(0.859978 0.0122706 0)
(1.02784 0.000651409 2.41504e-21)
(1.0303 -8.68666e-05 5.59676e-24)
(1.02459 -0.000425551 -3.09655e-22)
(1.02261 -0.000135033 -3.08519e-22)
(1.02609 0.00020588 2.33117e-22)
(1.04949 0.00479955 0)
(1.04255 -0.0045083 -2.08265e-21)
(1.02749 -0.000160197 -1.18059e-24)
(1.02179 -0.000360138 2.84445e-22)
(0.769825 -0.0123055 0)
(1.02705 -0.00122492 1.21966e-21)
(0.6269 0.0221945 -5.2185e-21)
(1.02564 0.000360858 0)
(1.02738 7.20717e-05 4.42646e-22)
(1.03158 0.000650947 8.76725e-24)
(1.02596 0.00019215 -1.33329e-22)
(1.03009 0.000471943 -6.32016e-23)
(1.03386 -0.0313841 2.93576e-22)
(1.01894 0.0154026 0)
(0.805899 0.0122899 0)
(1.02816 -0.00251237 -4.66035e-22)
(1.04638 -0.0195975 8.96201e-22)
(1.04339 -0.0258631 -2.46258e-21)
(1.05625 -0.00646247 9.12018e-21)
(1.03855 -0.00623602 1.84621e-21)
(1.02746 0.000163366 -8.58632e-23)
(1.06106 -0.0253684 0)
(1.0307 0.000824431 -1.33507e-22)
(1.02806 -0.00376194 1.56328e-21)
(1.02767 -0.00432114 6.13442e-23)
(1.02303 -0.000119579 -6.828e-22)
(1.03723 0.000542073 -8.29869e-23)
(1.02787 0.000721329 -2.42154e-21)
(1.03908 0.00148206 0)
(1.0447 -0.00320398 4.34126e-21)
(1.02589 2.43536e-05 -1.03531e-22)
(1.0351 0.0039501 0)
(1.02943 0.00106189 0)
(1.02843 0.00145827 -4.11435e-22)
(1.02442 -0.000379958 -9.25526e-24)
(1.06408 0.00350298 1.26592e-20)
(0.964149 -0.000424746 -2.15648e-21)
(1.0206 0.000266504 0)
(1.05651 0.0015176 -5.7886e-21)
(1.02733 0.00389688 -6.21801e-24)
(1.02712 5.25641e-05 -7.72006e-23)
(1.02834 -7.03213e-05 0)
(1.04508 -0.00339129 -5.36911e-21)
(0.665347 0.0182788 6.77355e-21)
(1.02747 0.000532909 -2.84373e-22)
(0.868905 0.00992074 0)
(0.818709 -0.0373544 1.35879e-23)
(1.02361 -0.000377457 3.98684e-22)
(0.689069 0.0023676 -6.74827e-22)
(1.02791 -0.0023317 -1.19557e-21)
(1.02927 -0.00223349 -8.70283e-23)
(1.04123 -0.0242173 -4.98477e-21)
(1.04143 0.0044055 -2.67151e-21)
(1.05542 0.00104165 -1.07256e-20)
(1.0272 0.000212762 -8.782e-22)
(0.661674 0.0197048 8.20796e-21)
(1.02739 0.000171861 -8.3159e-23)
(1.05033 -0.0107212 -2.38177e-21)
(1.02708 5.90579e-05 0)
(1.07074 -0.00254244 1.13126e-20)
(1.03384 -0.00605412 -1.1134e-21)
(1.02947 -0.00525388 -9.80164e-22)
(1.03001 0.000849539 -2.02802e-22)
(1.05672 -0.0013497 3.95444e-21)
(1.02539 0.00032955 -1.00652e-21)
(1.0422 -0.0237259 0)
(1.02993 0.000856929 4.09573e-22)
(1.0254 -0.00042186 2.57962e-22)
(1.02531 0.000302012 -5.98659e-22)
(1.00988 -6.15782e-05 1.5242e-22)
(1.04374 0.00311192 9.0112e-22)
(0.706228 0.017671 -2.73304e-20)
(1.0273 0.000283853 8.37161e-22)
(0.835332 0.00977101 -9.49237e-21)
(0.656458 0.0218462 -1.0903e-20)
(1.05151 0.00726156 6.66685e-21)
(1.03485 0.00273513 0)
(0.999716 -0.000370745 7.51173e-23)
(0.880308 0.0122017 8.3661e-21)
(1.05852 -0.0129078 0)
(1.05483 0.0167042 3.14693e-21)
(0.843728 -0.00139584 0)
(1.02685 0.000302266 -6.5642e-23)
(1.02518 0.000281846 4.99329e-22)