/*--------------------------------*- C++ -*----------------------------------*\
| =========                 |                                                 |
| \\      /  F ield         | OpenFOAM: The Open Source CFD Toolbox           |
|  \\    /   O peration     | Version:  v2012                                 |
|   \\  /    A nd           | Website:  www.openfoam.com                      |
|    \\/     M anipulation  |                                                 |
\*---------------------------------------------------------------------------*/
FoamFile
{
    version     2.0;
    format      ascii;
    class       volVectorField;
    location    "200";
    object      U_0;
}
// * * * * * * * * * * * * * * * * * * * * * * * * * * * * * * * * * * * * * //

dimensions      [0 1 -1 0 0 0 0];


internalField   nonuniform List<vector> 
15335
(
(0.778191 0.0130712 2.42754e-21)
(1.05189 0.0142192 -9.80089e-21)
(1.0382 -0.0328172 0)
(1.02282 -0.000232432 5.38489e-22)
(1.04541 -0.00417594 2.8358e-21)
(1.0229 0.00341581 -1.09827e-21)
(1.0621 -0.00432168 0)
(1.01871 -0.000235979 1.32701e-22)
(1.02656 0.000141847 3.39105e-22)
(1.02978 -0.00315349 0)
(1.03949 -0.000669658 1.56286e-21)
(1.0227 6.04328e-05 0)
(1.02142 -0.00702572 -1.18123e-21)
(1.04249 -0.0195495 0)
(1.05253 0.00139103 0)
(1.02684 -9.45737e-05 5.38919e-24)
(1.05503 0.0134189 5.18678e-21)
(1.06474 -0.0227794 0)
(1.02511 -0.000514889 -2.99716e-22)
(1.0498 0.00252222 -5.11821e-21)
(1.02671 0.000152729 -2.29224e-22)
(0.436727 -0.0473303 1.04686e-20)
(1.04983 -0.00523067 6.53446e-21)
(1.02702 0.00017201 0)
(1.03769 -0.0326855 -1.09146e-21)
(0.680155 0.0134664 0)
(1.06267 0.00313295 0)
(1.02694 0.000526741 2.32008e-22)
(1.05336 0.00214191 -3.64634e-21)
(1.03752 0.00233863 0)
(1.02698 0.00036556 -1.457e-22)
(1.06089 0.00396739 0)
(1.01959 -0.000196053 0)
(1.02589 -0.00301378 0)
(1.06033 0.00374945 0)
(1.05801 0.00924663 -8.02878e-21)
(1.02962 -0.00313571 0)
(1.02586 -0.0015253 2.00056e-21)
(1.04321 -0.0190126 -2.21507e-21)
(1.06384 -0.0233482 0)
(1.02531 0.000320049 8.83933e-22)
(1.01514 0.0152033 -2.04666e-21)
(1.02579 7.36728e-05 -6.19239e-23)
(1.02285 -0.00910581 -1.15204e-21)
(0.882737 -0.00132374 -8.40016e-23)
(1.02634 0.000439308 2.19862e-22)
(1.04707 -0.00731724 -6.24173e-21)
(1.02075 -1.43566e-05 9.29888e-24)
(1.0544 0.00265768 7.9573e-21)
(1.0219 -0.000343924 0)
(1.02718 0.000188528 -1.11655e-22)
(1.02748 0.000390888 2.38338e-22)
(1.03271 -0.00399241 -2.08636e-23)
(1.02719 0.000444682 9.26347e-22)
(0.229101 -0.00242191 -4.37697e-20)
(0.854747 -0.000910716 2.10343e-24)
(1.03706 -0.031668 0)
(1.0297 0.00146058 0)
(1.02559 -0.00148083 1.8719e-21)
(0.393998 0.0144126 1.1274e-20)
(1.05288 0.0139627 9.47603e-21)
(1.02933 -7.53243e-05 0)
(1.0326 -0.00411648 -3.016e-22)
(1.02732 -0.00264097 -1.74864e-22)
(1.04505 -0.00404599 2.31961e-21)
(0.770315 0.013815 3.56217e-21)
(0.892416 -0.00166902 -1.32896e-23)
(1.02923 -6.25848e-05 5.75506e-22)
(1.04041 -0.0158052 1.57598e-21)
(1.02584 2.98969e-05 0)
(1.03012 0.00144349 9.59639e-22)
(1.04963 -0.00491214 -4.87082e-21)
(1.03326 -0.00331517 1.04082e-22)
(0.929431 -0.00189579 -2.01802e-23)
(1.02938 -0.00496496 8.68613e-22)
(0.895072 -0.0220483 0)
(1.05414 0.0137684 2.76405e-21)
(1.01646 7.32421e-05 -1.20395e-23)
(1.023 -0.000158656 -3.76619e-23)
(1.05767 0.00905365 7.56785e-21)
(0.753443 0.011929 -8.48302e-21)
(1.05131 0.0069385 -6.42067e-21)
(1.05149 0.00699308 0)
(1.05317 0.0102796 5.87557e-23)
(1.03595 -0.013703 1.99259e-21)
(0.429245 -0.0203692 1.54337e-20)
(1.02731 -0.00277692 -4.32807e-22)
(1.06214 0.00325383 0)
(1.02318 0.00332933 6.43064e-22)
(1.02725 0.000301734 -1.18168e-21)
(0.595763 0.0170455 -1.2919e-23)
(1.01879 -0.00712991 -1.38188e-21)
(0.939921 -0.0019318 9.58582e-23)
(1.0348 0.0156163 6.08935e-21)
(1.04948 0.00252437 4.92912e-21)
(1.0534 0.0103115 -7.434e-21)
(1.02602 6.98427e-05 0)
(0.778075 0.0138261 8.67317e-21)
(1.02708 0.000365278 0)
(0.773056 0.0137225 1.16318e-20)
(1.02618 8.36428e-05 5.69162e-23)
(1.02669 -0.00300234 2.04296e-21)
(1.05441 0.0133044 0)
(1.02709 -9.04154e-05 1.0573e-25)
(1.02197 -4.72403e-05 0)
(1.02612 6.78003e-05 5.43212e-23)
(0.171595 0.0122836 -9.5097e-21)
(1.02737 -0.00124339 0)
(1.029 0.00144598 -3.30416e-22)
(1.04463 -0.0205793 0)
(1.00644 4.09149e-05 0)
(1.02396 -0.00945334 -1.077e-21)
(1.02853 0.00171039 0)
(1.01824 -7.59683e-05 0)
(1.01991 -0.000255072 -2.76195e-22)
(1.02665 0.00045676 -4.31459e-22)
(1.05862 -0.004565 1.27871e-21)
(1.02203 -1.28001e-05 -1.33212e-22)
(1.03013 0.0157109 9.87266e-21)
(0.602042 0.0180331 -1.67443e-21)
(1.0269 -0.00307015 -1.30059e-21)
(1.06233 -0.00252428 1.34889e-20)
(-0.0191384 0.0725095 -1.76863e-20)
(1.02529 -0.000551637 0)
(1.05992 0.00422498 3.47874e-21)
(1.02746 0.000555352 -2.18714e-22)
(1.02541 5.71025e-05 0)
(0.552214 -0.0438035 0)
(1.06007 0.00480721 -3.77931e-21)
(1.02907 0.0014773 2.5833e-22)
(1.02793 0.000591915 3.63005e-22)
(1.06274 -0.00296917 -1.81118e-20)
(1.02152 -0.00015446 -4.57873e-22)
(0.76976 0.0129975 0)
(1.02854 0.00041154 2.0605e-22)
(0.976698 -0.00119115 -1.51109e-22)
(1.02753 -0.00183626 -2.95719e-22)
(1.02599 4.03106e-05 -5.1502e-23)
(1.04492 -0.0197624 0)
(1.02615 -0.00306448 3.66652e-22)
(1.03838 -0.00160874 0)
(0.80107 -0.0406145 2.10928e-21)
(1.02288 -0.000225095 0)
(0.6985 0.0122204 8.16864e-23)
(-0.0197566 0.077543 -2.05086e-20)
(1.03919 -0.00334142 3.68793e-21)
(0.866864 -0.0224536 2.2853e-21)
(1.0306 0.00156436 6.77694e-22)
(1.03632 0.00391939 -9.60503e-22)
(1.02206 -0.00865252 -2.42587e-21)
(1.02285 -9.83862e-05 3.6377e-23)
(0.711518 -0.047276 -4.71213e-21)
(1.02482 -0.000103978 1.26296e-23)
(1.04874 0.0046265 0)
(0.872665 -0.0117157 1.21919e-20)
(1.02743 -0.00158657 -8.08217e-22)
(1.05273 0.0105144 -2.89732e-21)
(1.02739 -0.00117813 0)
(1.02682 0.000413009 0)
(1.03539 -0.0133425 -1.7358e-21)
(1.02531 -0.000545168 6.89458e-22)
(1.02824 0.00131621 -7.08895e-22)
(1.03305 -0.00340844 -1.25341e-22)
(1.02452 -0.0108927 0)
(1.03059 0.00160958 -3.51973e-22)
(1.02287 -0.000234305 5.67364e-22)
(1.02731 0.000441026 -1.55522e-22)
(0.681818 -0.0490457 1.30946e-20)
(1.0288 0.000350537 0)
(1.02267 0.00011338 0)
(1.04412 -0.000572837 -4.31995e-21)
(1.02741 -0.00174025 3.60782e-22)
(1.03924 -0.00123649 -2.36098e-21)
(1.02748 -0.00169786 9.51848e-22)
(1.02724 -0.00742937 -5.16508e-23)
(1.03636 -0.0104104 -7.31653e-22)
(0.758181 0.0108499 0)
(1.02881 0.000358767 0)
(1.05384 0.0100634 -3.85098e-21)
(0.791127 0.0128973 1.29414e-20)
(1.03873 -0.00159905 0)
(1.02817 0.00130483 -3.05859e-22)
(1.02075 -0.000344691 0)
(1.04552 -0.00448367 -2.81627e-21)
(1.04536 -0.00485029 2.37311e-21)
(1.06923 -0.0031354 0)
(1.05296 0.0105654 1.25453e-20)
(1.02772 0.00122428 -5.18005e-22)
(1.02185 7.19147e-05 0)
(0.10004 0.0199731 5.10919e-20)
(1.02205 -0.000175992 -4.9448e-23)
(0.773238 0.014382 -1.32674e-20)
(1.05448 0.00302629 -1.15083e-20)
(1.02541 0.000328443 -4.58403e-22)
(1.0359 0.000341994 -4.29923e-23)
(1.01424 0.0143589 -8.11287e-21)
(1.03886 -0.00122547 1.80581e-21)
(1.02961 -7.43405e-05 0)
(1.04506 -0.022108 3.60029e-21)
(1.06816 0.0063821 -4.07403e-21)
(1.03114 -4.30368e-05 -1.67963e-23)
(1.02709 -0.00786578 -5.5628e-22)
(1.02731 0.000506336 3.5102e-22)
(1.02157 -0.00862666 0)
(0.762981 0.0136771 -1.57626e-20)
(1.02935 0.00163837 -5.50515e-22)
(1.0266 -0.0328216 -2.98693e-22)
(1.02503 -7.53361e-05 -2.39089e-22)
(1.0613 0.00362395 2.54865e-21)
(0.773142 0.013139 -1.18298e-20)
(1.05526 0.0134403 0)
(1.02683 0.000694366 2.88562e-21)
(1.02582 0.000382263 4.10709e-22)
(1.02833 0.00143125 7.39891e-22)
(1.05422 0.0137762 -5.87039e-21)
(1.02813 -0.00814587 1.68994e-21)
(1.01974 -0.000140411 0)
(1.05398 0.00608288 4.69575e-21)
(1.02102 -0.00027803 3.66926e-22)
(1.03937 0.000246756 -3.88834e-23)
(1.03634 -0.0108703 6.88111e-22)
(1.02322 -0.00961646 3.45999e-21)
(0.937239 -0.00103766 3.33493e-21)
(1.05362 0.0100321 0)
(1.0186 -0.000335418 0)
(0.674563 -0.00125353 -1.64264e-20)
(1.0528 -0.0200672 0)
(1.02979 -0.00463848 -3.05757e-22)
(1.06145 -0.00408119 0)
(1.05384 0.0135901 0)
(1.02983 0.0012436 -8.29003e-22)
(1.06943 -0.00383916 0)
(0.773992 0.00718446 0)
(1.05133 0.000520506 5.61007e-21)
(1.03445 -0.0031136 0)
(1.03876 -0.00592014 -1.89163e-21)
(1.02745 0.000341119 8.35997e-22)
(0.631526 -0.0042215 0)
(0.605757 0.0177257 -3.80655e-21)
(1.02988 -0.00559484 3.5559e-23)
(1.02235 -0.0091929 1.18846e-21)
(1.03054 0.0063612 6.2955e-24)
(1.02404 -0.0140704 -1.59879e-21)
(1.04448 0.000523637 3.62671e-21)
(0.794364 0.0120239 9.6425e-21)
(1.04578 -0.00657164 1.51627e-21)
(1.00402 8.21446e-05 -1.60931e-23)
(1.02784 -0.00790917 0)
(0.958575 -0.0220461 0)
(1.03342 0.0156246 -2.54266e-21)
(1.04852 0.00429463 3.79378e-21)
(1.02804 0.000243229 -2.77992e-24)
(1.06222 0.00946191 4.682e-21)
(1.03008 0.0015793 0)
(1.02703 0.00021234 0)
(0.401526 -0.0458922 -1.09105e-20)
(1.02951 -0.00478989 3.70804e-22)
(1.0188 -6.0713e-05 -1.62317e-23)
(0.91209 -0.000851835 -2.70164e-20)
(1.02682 0.000213467 0)
(0.986278 0.0140872 0)
(1.0515 0.0152813 6.25765e-22)
(0.625963 0.0174285 -1.73104e-21)
(1.0698 0.00713135 -4.6685e-21)
(-0.0192241 0.0748263 0)
(0.665375 0.0221433 -1.06973e-20)
(0.849845 -0.0109573 1.56148e-20)
(1.0264 0.00024305 -1.85301e-22)
(1.05437 0.013782 6.0128e-21)
(1.03922 -7.79592e-05 1.94789e-21)
(1.06141 -0.0202949 1.46671e-20)
(1.02575 -9.5488e-05 1.18659e-23)
(0.779401 0.0121519 9.29235e-21)
(1.02879 0.000430704 -2.0085e-22)
(1.03505 -0.00665701 -7.04473e-22)
(0.756223 0.00863461 -2.09971e-20)
(0.411128 0.0333807 0)
(1.028 0.00116472 0)
(1.03554 0.000406629 -2.1536e-21)
(0.765945 0.0138194 8.9414e-21)
(1.02658 0.000482105 1.13686e-22)
(1.0263 3.42394e-05 1.51028e-22)
(1.03343 -0.00629463 2.61058e-23)
(1.03612 0.00315833 -1.17102e-21)
(1.062 -0.0192101 3.84601e-21)
(1.03602 0.00337589 2.06831e-21)
(1.03585 -0.0142664 0)
(1.02286 -0.000196934 -2.95241e-22)
(1.06611 0.0059242 0)
(1.04903 0.00456742 4.51178e-21)
(1.06307 0.00912303 0)
(1.04305 -0.00393487 0)
(1.02713 0.00041571 4.5691e-22)
(1.02753 -0.00185751 -8.58056e-22)
(0.652981 0.0216261 8.73279e-21)
(1.04915 0.00145431 -1.11762e-21)
(1.04408 0.000691561 7.12668e-21)
(1.02721 0.000439023 -1.63917e-22)
(1.03891 0.000137637 -1.73652e-21)
(1.0332 -0.00642969 3.1817e-22)
(1.03608 0.00155485 1.66962e-22)
(1.05085 -0.0180143 0)
(0.865567 -0.00450964 1.22443e-21)
(1.02962 0.00154429 3.11664e-22)
(0.858361 -0.0427259 -6.29977e-21)
(1.02653 0.000476824 -1.50727e-22)
(1.02684 0.000519538 0)
(1.0435 0.00267155 -9.20724e-23)
(0.69181 0.0213382 0)
(1.05213 -0.020973 0)
(0.467363 0.0209035 -1.68276e-20)
(1.04561 0.00529234 -2.26886e-23)
(1.02706 0.00123317 -2.3971e-21)
(0.762101 0.0123371 -9.51046e-21)
(1.02645 0.000446269 4.23778e-22)
(1.03017 0.00155163 0)
(1.02934 0.000309189 -1.19915e-22)
(1.02908 0.000330753 -1.62434e-22)
(1.03912 -0.000477585 4.42119e-22)
(1.02 -7.69851e-05 -2.06552e-22)
(1.0296 0.00480674 -2.90217e-22)
(1.02138 -0.000282928 0)
(0.80564 -0.00307043 0)
(0.912575 -0.00531456 6.58291e-21)
(1.04925 0.00109437 0)
(-0.0146987 0.0744208 5.41142e-20)
(1.06357 -0.0226874 0)
(1.02909 0.000337689 -1.74674e-22)
(1.0295 0.000275458 -2.2007e-22)
(1.02984 0.000270751 -5.20747e-23)
(1.0256 0.000353878 0)
(0.749266 -0.00548494 -1.90282e-21)
(1.06263 0.0148851 -9.58687e-21)
(1.02678 0.000588305 2.73379e-21)
(1.05251 0.00789637 4.05367e-21)
(1.02597 5.39227e-05 -5.61301e-23)
(1.02088 0.000113679 -1.04691e-21)
(1.04818 0.00433462 0)
(1.04253 -0.0206024 0)
(1.01503 0.0137548 0)
(1.03945 -0.014463 1.42531e-22)
(1.05737 -0.0061753 0)
(1.06056 -0.0179312 -1.13278e-20)
(1.03993 -0.0147215 -3.072e-21)
(1.011 -1.20397e-05 8.68072e-24)
(0.992681 0.0155253 0)
(1.04545 -0.0213346 -3.50077e-21)
(0.961373 -0.0211113 0)
(1.04448 -0.000775495 2.41406e-21)
(1.04635 0.00578545 -1.03284e-20)
(1.02135 -0.00574526 1.69736e-21)
(1.02936 0.000320395 0)
(1.02216 -0.000294504 1.76502e-22)
(0.72226 -0.041375 -1.94645e-21)
(0.993293 -0.0004334 4.62448e-21)
(1.04524 0.000755972 -5.24617e-22)
(1.02958 0.00145828 0)
(1.02953 0.000266783 0)
(1.02253 -7.16068e-05 -6.25045e-22)
(0.698521 0.0016255 -8.94211e-22)
(1.02377 0.00284184 -2.70176e-22)
(1.02536 0.000319186 0)
(1.04816 -0.00323758 0)
(1.02353 0.00289335 0)
(1.02512 -0.000500424 2.34034e-22)
(1.03003 0.00139855 -3.47415e-22)
(1.03938 -0.00371036 -1.9622e-21)
(1.03948 -0.000910184 -2.74305e-21)
(1.05468 0.00228802 5.81669e-21)
(1.02503 0.00130381 -2.74926e-22)
(1.02961 0.0014012 0)
(1.02309 -0.000168525 0)
(1.05091 0.000516946 0)
(1.02255 -0.000140483 -1.99783e-23)
(1.02687 0.000322371 0)
(1.02682 0.000485674 1.96447e-22)
(1.02449 -0.000106863 1.38464e-24)
(1.02485 -0.00010393 -4.39697e-24)
(1.02753 0.0042854 3.33349e-23)
(1.02119 -0.00532485 -6.91159e-21)
(0.914401 -0.0248636 4.50292e-21)
(1.05971 0.00515228 9.3756e-21)
(1.02781 0.00186851 5.83052e-22)
(1.02378 -0.0147805 -5.91391e-22)
(0.638657 0.00226956 -1.73106e-20)
(1.0399 -0.0155531 1.61433e-21)
(1.02604 0.000417684 -8.58813e-22)
(0.87069 0.0103197 1.88407e-20)
(1.02706 0.000177843 1.32694e-21)
(1.0276 -0.0019206 -4.51407e-22)
(1.04121 0.0055629 -1.0842e-21)
(1.02517 -0.0107518 0)
(1.02737 0.000391557 0)
(1.04618 0.00597006 9.77096e-21)
(0.672179 -0.00400847 0)
(1.02854 -0.00574067 1.61472e-21)
(1.03389 0.00435314 0)
(1.02475 -0.000106105 0)
(1.02283 -7.51052e-05 -4.79977e-24)
(0.890365 0.00890322 -2.24246e-20)
(1.05275 0.00102515 6.89108e-21)
(1.04106 0.000876544 1.48068e-23)
(1.03163 -0.022568 0)
(1.02728 0.000233468 0)
(1.02624 0.000392236 1.43017e-22)
(1.05832 -0.000327842 -1.09185e-20)
(1.02562 0.000149053 1.87572e-22)
(1.03863 0.000655037 -3.5299e-21)
(1.03553 -0.0316368 0)
(1.0335 0.00424654 -1.01636e-21)
(1.02733 0.000224278 -2.86969e-24)
(1.03305 -0.000370017 -1.39266e-21)
(1.02184 -7.77199e-05 3.11623e-23)
(1.04404 0.00113653 -3.90793e-21)
(1.05133 -0.0171765 3.70961e-21)
(1.02674 0.000462252 2.18174e-22)
(1.02483 0.00125211 5.8958e-22)
(1.04599 -0.00614529 0)
(1.0274 -0.00156707 7.75842e-22)
(1.0298 0.00120455 1.14011e-21)
(1.05465 0.00755776 0)
(1.02433 -0.000341589 8.80169e-22)
(1.05579 0.0134964 0)
(1.0272 0.00414007 4.91689e-24)
(1.03558 -0.0126504 8.77032e-22)
(1.0238 -0.0131459 -4.28238e-21)
(1.02536 -0.000608147 -1.02043e-22)
(1.02733 -0.00146219 -1.3108e-21)
(1.02755 0.000556117 -2.08272e-22)
(1.05569 0.0138532 0)
(0.97716 0.0141038 0)
(1.02873 0.00145292 -2.92643e-22)
(1.01781 -3.88632e-05 6.18418e-24)
(1.04237 0.000830309 1.04406e-22)
(1.02467 -0.00010732 0)
(1.0257 0.000150609 0)
(0.838122 0.0119955 -4.40511e-21)
(1.05438 0.00766364 5.89684e-21)
(1.02436 -0.000316769 -4.46507e-22)
(1.05341 0.000649229 7.0309e-24)
(1.02587 7.20552e-05 -6.03104e-23)
(1.02919 -0.00315887 -9.17442e-24)
(1.02321 -0.000157219 -1.86093e-22)
(0.744311 0.0119666 2.65233e-20)
(1.04556 0.0011592 6.45116e-22)
(0.89788 -0.0029188 0)
(1.05055 -0.0100024 2.32214e-21)
(1.02883 0.00534454 -3.93957e-22)
(1.04901 0.00287422 0)
(0.990981 -0.000241493 0)
(1.02924 0.00161626 5.9337e-22)
(0.848439 0.0120118 1.30321e-20)
(1.02475 -0.00051363 0)
(0.362422 0.0112334 -7.73708e-21)
(1.02292 -0.000159509 2.24034e-22)
(1.02741 -0.000816697 0)
(1.05212 0.0059678 0)
(0.967543 0.0141858 -2.26836e-21)
(1.03007 0.00133025 0)
(1.03638 0.00365244 -2.28259e-21)
(1.02737 -0.00102657 1.56739e-21)
(1.04691 -0.00779647 7.13415e-21)
(1.03064 0.00148196 0)
(1.0427 -0.00367126 0)
(1.05439 -0.0186112 0)
(0.825883 -0.000695913 5.89622e-24)
(1.01588 -0.000249531 3.05604e-22)
(1.05394 0.0137441 -2.61288e-21)
(1.0455 0.00146855 -2.26e-21)
(1.04365 0.00127604 -3.64796e-21)
(1.02544 -0.000586911 -1.55918e-21)
(0.806707 0.0124474 -4.94017e-21)
(1.04596 0.00516143 -4.88611e-21)
(1.06157 0.00116639 -5.50328e-21)
(1.02917 -0.0023189 -1.95111e-23)
(1.02553 4.90113e-05 0)
(1.02654 -2.97349e-05 1.22183e-22)
(1.03829 -0.00700766 0)
(0.61295 0.0167997 1.54554e-20)
(1.03317 0.0037667 0)
(1.02762 -0.00370848 1.76315e-21)
(1.03137 -0.00456826 1.97444e-22)
(1.02998 -0.00463957 2.28037e-22)
(1.02287 -0.000219935 -5.62721e-22)
(1.02276 -8.96186e-05 1.32858e-23)
(0.923493 -0.0234738 0)
(1.0293 -0.00586631 -8.92344e-22)
(1.02936 -0.00320703 0)
(1.02743 0.000507918 -1.7459e-22)
(1.02741 -0.000751885 -5.18838e-22)
(1.03005 0.000624188 -4.66264e-23)
(1.03024 0.000618711 -2.59837e-23)
(1.02565 5.58447e-06 0)
(1.02414 -0.000104731 2.38793e-24)
(0.797113 0.0126003 9.93113e-21)
(0.686521 0.0173787 8.90758e-22)
(0.58803 0.0147448 6.33483e-21)
(1.05183 0.00469034 -1.23769e-21)
(1.05316 0.0017646 0)
(1.05998 -0.0160639 0)
(1.03058 0.00155316 0)
(0.266514 -0.0356707 -3.21273e-21)
(1.02921 -0.000181825 0)
(1.05843 -0.00143095 0)
(1.0259 4.03161e-05 -1.36917e-24)
(1.04787 0.00038836 0)
(1.05172 0.00442832 0)
(1.05468 -0.0193797 0)
(1.02279 -0.000259542 6.49417e-22)
(1.02944 -0.00436225 8.11715e-22)
(1.02901 -0.00571925 6.27643e-22)
(1.02655 -0.00033829 9.25542e-22)
(1.05674 0.00288193 2.83189e-21)
(1.06165 -0.0183898 -7.77605e-21)
(1.03541 0.000265499 4.58245e-23)
(1.02591 8.3742e-05 1.32386e-22)
(1.03326 0.0012398 -6.25951e-22)
(1.0232 -8.27371e-05 5.02758e-25)
(1.05829 0.00800476 4.80521e-21)
(0.856826 0.00652801 1.77362e-20)
(0.587871 0.0221412 -8.63741e-21)
(0.357555 0.0148518 -9.45181e-21)
(1.04537 0.00223959 -6.71177e-22)
(1.02699 0.00032287 0)
(1.03112 -0.0328858 -4.80976e-22)
(1.02916 0.00100965 -3.34144e-22)
(1.04243 0.00333582 -5.94478e-21)
(1.02945 -0.00566021 2.71418e-22)
(1.02723 0.000416157 -3.00095e-22)
(1.02752 -9.94721e-05 9.09497e-22)
(1.03936 -0.00305477 1.04878e-21)
(1.05932 -0.0046219 -7.69966e-21)
(0.766929 0.011377 9.12049e-21)
(1.02909 0.000979376 0)
(1.06091 -0.0133848 -6.37472e-21)
(1.03878 -0.0156878 -1.84304e-21)
(0.585798 -0.0411011 0)
(1.02695 0.00173876 0)
(1.02781 0.000205812 -6.45186e-23)
(1.03804 -0.00681722 -1.08396e-21)
(1.02688 0.00114513 0)
(1.05412 -0.0167892 7.0863e-21)
(1.02434 0.00090633 0)
(0.650663 0.0189813 -4.26153e-21)
(1.02706 0.00372466 3.33782e-25)
(0.944161 -0.00620028 6.17293e-21)
(0.815004 0.0126015 -2.71702e-21)
(1.03899 0.000485062 0)
(1.05664 0.00603139 -8.08885e-21)
(1.0512 -0.00992313 -2.56225e-21)
(1.053 0.00713385 5.06188e-21)
(1.02716 -0.00156005 0)
(1.02559 2.99164e-05 0)
(1.02731 0.000366496 -4.22471e-22)
(0.640409 0.020252 -4.69178e-21)
(0.681811 0.0167522 -4.37324e-21)
(1.02277 -0.000260911 -6.58314e-22)
(1.02884 -0.00589679 -7.79822e-22)
(1.02972 0.00613568 -2.59021e-22)
(0.715828 0.0183612 0)
(1.04967 -0.0109135 0)
(1.0293 -0.0024292 1.45993e-22)
(1.05273 0.00175107 0)
(1.02834 0.000219446 3.39585e-22)
(1.02042 0.000908162 2.42187e-21)
(1.03852 -0.00560767 1.64943e-21)
(1.05117 0.00713119 1.7699e-23)
(1.04666 -0.00696738 0)
(0.824997 0.0120828 -8.95245e-21)
(0.699624 0.017368 1.22533e-20)
(0.785097 0.00468755 0)
(1.02483 -1.78792e-05 -1.38702e-22)
(1.024 6.99178e-05 -4.05718e-22)
(1.05862 0.000137958 1.26787e-20)
(1.03395 -0.0032449 1.18989e-21)
(1.02406 7.73522e-05 3.97327e-22)
(1.02731 -0.00165454 0)
(1.02186 -0.000117643 -9.41743e-24)
(1.03117 0.000545198 7.55122e-22)
(0.879516 0.0104146 0)
(0.963394 -0.00749982 9.23472e-21)
(0.690158 0.0180677 0)
(1.05379 0.00628872 -5.70409e-21)
(1.02665 -0.000245212 -8.33147e-22)
(1.05317 0.00246378 4.1801e-21)
(0.0118537 0.0213238 8.83369e-21)
(0.621023 0.019091 -8.39087e-21)
(0.798288 0.0129916 3.37324e-21)
(1.05074 0.00102249 1.70649e-22)
(1.02693 0.000414199 0)
(1.02782 0.000589345 -3.93485e-22)
(1.02834 -0.00591198 4.59307e-23)
(1.0614 0.0164355 -7.66295e-21)
(1.02004 -0.000429148 -7.76735e-22)
(1.0229 -0.000286814 0)
(0.0173559 -0.0047563 -1.73699e-20)
(1.02738 -0.00813258 6.16545e-22)
(0.594915 -0.0466761 -3.67314e-21)
(1.02541 6.17437e-05 -3.87626e-22)
(1.06241 0.00943128 0)
(1.04562 -0.00575306 -2.4968e-21)
(1.05163 0.0051145 -1.0402e-22)
(0.607091 0.0186563 1.26515e-21)
(0.852 0.00734627 -8.3975e-21)
(1.0269 -0.00715788 1.88777e-21)
(1.02574 0.000376811 0)
(1.04419 -0.0192228 2.91601e-21)
(1.02751 -0.00185552 3.20071e-22)
(0.459238 -0.0258541 -1.7188e-21)
(1.05321 0.00701326 6.82669e-21)
(0.51827 -0.0222915 0)
(0.836265 -0.00133557 3.65012e-23)
(1.07162 0.0123546 -2.51332e-21)
(1.02677 0.000498816 -2.19903e-22)
(1.0384 -0.00245165 -6.05577e-23)
(1.0302 -0.0205237 -1.95791e-23)
(1.05823 -0.00508284 -3.30556e-22)
(0.251176 -0.0328391 6.14916e-21)
(1.0442 0.00722986 3.9416e-21)
(1.02651 0.000243938 1.19152e-22)
(1.02268 -0.000178462 2.08885e-22)
(1.02908 -0.00328483 -8.81863e-22)
(1.02894 6.91316e-05 -1.59485e-22)
(1.04047 -0.00606984 1.57055e-21)
(1.0626 -0.00381696 0)
(1.02776 0.000562866 -2.86079e-22)
(1.02619 0.000163824 3.39956e-24)
(1.02556 -9.79863e-05 4.32495e-24)
(1.03054 0.000847131 1.33486e-24)
(1.03836 -0.0137869 2.71623e-21)
(1.01986 2.07038e-05 0)
(1.06299 0.0036957 0)
(1.02649 0.000464787 -4.11568e-22)
(1.0458 -0.00532198 -2.77466e-21)
(1.05698 -0.000861654 0)
(0.782984 0.0132832 -2.19182e-22)
(1.06632 0.00505348 0)
(1.03085 0.000509408 5.21489e-22)
(1.02869 0.000472518 -1.42441e-22)
(1.05181 0.00381759 -5.15036e-21)
(1.05663 0.00566444 7.91046e-21)
(1.02636 -0.000243518 0)
(1.02258 3.63273e-05 0)
(1.04164 -0.0340047 6.12776e-21)
(1.02913 0.00558972 6.55282e-22)
(1.03148 -0.0215934 0)
(1.05241 0.00810986 -5.69008e-21)
(1.02661 0.000131027 1.25242e-22)
(1.01896 -1.18427e-05 -2.06623e-22)
(0.573611 0.0178829 -2.71396e-21)
(0.692475 -0.0175437 -4.50522e-21)
(1.02928 0.00458552 0)
(1.02697 0.000436049 2.60964e-22)
(1.02536 0.000104608 3.90573e-22)
(0.69863 0.0167466 1.67112e-21)
(1.02234 -0.00013841 -2.01194e-24)
(1.06599 -0.0338825 -1.49263e-20)
(1.03304 -0.000537208 6.38801e-22)
(1.04066 -0.00574328 -1.6125e-21)
(1.03385 -0.00339202 -1.70804e-21)
(1.02696 0.000258307 -8.20181e-22)
(1.05192 0.00587712 0)
(1.06074 -0.0165663 0)
(0.890723 -0.00509299 6.89705e-22)
(1.02851 0.000472388 1.36879e-22)
(1.02167 0.0155348 -1.95614e-22)
(1.04054 0.00466746 -3.84179e-21)
(1.03586 0.00532255 0)
(1.0362 0.000527883 0)
(1.02704 -0.000132424 0)
(1.02984 0.00128749 8.21516e-22)
(1.04536 0.000468146 0)
(1.04934 0.00287126 0)
(1.02286 -0.000281497 0)
(1.05802 -0.00634155 0)
(1.02304 -0.000155123 1.19058e-22)
(1.02219 0.000221632 0)
(1.02522 -5.46689e-05 0)
(1.00819 -0.000164669 3.88814e-22)
(1.02757 0.00167099 -2.33347e-22)
(1.02547 1.07549e-05 -7.95049e-22)
(0.8558 -0.00164623 -1.34111e-23)
(1.01793 -8.42433e-05 1.23993e-23)
(1.02749 0.000219221 -7.56797e-23)
(0.652483 -0.0422845 0)
(0.620756 0.0156463 0)
(1.04571 -0.0227414 0)
(1.0255 0.000101066 -8.08399e-22)
(1.03723 -0.00817654 -7.51939e-22)
(1.0252 2.24039e-05 0)
(1.02248 -0.00505574 3.81816e-21)
(1.04166 -0.0210587 -4.18546e-21)
(1.02459 -0.00045748 3.1592e-22)
(1.03627 -0.0119368 9.02593e-22)
(1.02228 -0.000142987 3.61819e-22)
(0.625697 0.0187282 0)
(1.02605 -0.0198387 2.31667e-21)
(1.03353 0.00390479 5.70966e-22)
(1.01929 -0.000299399 -7.07599e-23)
(0.542275 0.000803895 1.53814e-20)
(1.02922 -0.00332891 5.74571e-22)
(0.869543 0.0125773 -2.38331e-21)
(1.06963 -0.0320153 1.63235e-20)
(1.02136 -0.000306478 0)
(1.02611 8.58872e-05 -1.21589e-22)
(0.545674 0.0204394 0)
(1.02818 0.00123775 -8.52011e-22)
(1.03808 -0.0159986 1.21647e-21)
(1.05097 0.00707335 6.07218e-21)
(1.04278 0.00352388 1.88794e-22)
(1.02359 -0.000339575 3.75519e-22)
(1.02076 8.08935e-05 7.8445e-22)
(1.0399 0.00254481 0)
(1.02713 -0.000117186 0)
(1.0204 -0.00023517 0)
(0.785686 0.0115059 -9.23918e-21)
(1.0203 -0.0127636 0)
(1.05419 0.0142035 -6.51283e-21)
(1.04821 0.000180253 -2.00006e-21)
(1.02728 -0.00143776 0)
(1.02787 0.000228302 0)
(1.02554 -0.000457478 -2.73903e-22)
(1.03342 -7.81261e-05 -5.9535e-22)
(1.02739 -0.000953181 -1.64233e-21)
(1.03094 -0.0137925 1.60989e-22)
(1.05134 0.00505411 -5.45484e-21)
(0.821051 -0.000647187 -6.75382e-24)
(0.680959 0.0189362 1.32336e-20)
(1.04101 -0.0154201 1.18487e-22)
(1.03814 0.0154263 -2.8906e-23)
(0.741844 0.0117412 0)
(1.05468 0.00977182 -1.0221e-21)
(1.02744 6.22216e-05 0)
(1.02784 0.000541578 1.66484e-22)
(1.02523 0.000301595 -3.18065e-24)
(1.04095 0.00720268 2.1955e-21)
(1.02667 0.000176985 0)
(1.02974 -0.00577728 -7.41393e-22)
(1.02481 6.22886e-05 1.22844e-22)
(1.02938 0.00125392 4.21573e-22)
(1.02946 0.00128526 0)
(1.02567 0.000138524 -3.66797e-22)
(0.670878 0.018796 1.01132e-20)
(0.822806 0.0116477 -1.16707e-20)
(1.0246 0.000104508 0)
(1.05455 0.0100666 4.23315e-21)
(1.02734 0.00473571 3.85743e-23)
(0.806594 0.0129374 0)
(1.05037 0.00100637 -1.62729e-22)
(1.06099 -0.0144748 1.14996e-20)
(1.02285 -0.000222977 0)
(1.05449 0.00186544 -1.08149e-20)
(1.03554 -0.00412189 -2.29682e-21)
(1.02778 -0.0102545 5.40898e-22)
(1.0353 -0.00399694 2.00692e-21)
(1.02914 -7.76558e-05 -3.41481e-24)
(0.695017 0.0191585 0)
(1.03138 0.00133119 3.17503e-22)
(1.05394 0.00573102 4.37011e-21)
(1.04151 0.0153647 5.25519e-21)
(1.01511 8.46458e-05 -3.01752e-23)
(0.835247 0.0120108 8.51203e-21)
(1.02535 -0.000505583 4.42669e-22)
(1.07277 0.0126895 2.35709e-21)
(1.02723 0.000205367 2.2868e-22)
(0.616658 0.0205867 0)
(1.02687 0.00472088 -1.03965e-22)
(1.02552 0.000138912 1.03587e-24)
(1.04952 0.00665547 1.20915e-21)
(1.01903 -0.0137315 0)
(1.05522 0.00061832 4.5449e-21)
(1.0265 0.000328092 9.9415e-23)
(1.02842 0.00148708 0)
(1.05852 -0.0102232 0)
(1.02804 0.00126644 7.67926e-22)
(1.04812 0.00112461 0)
(1.02732 -0.0101559 0)
(1.05468 0.0133704 0)
(1.02696 0.000302677 0)
(1.04185 0.00337712 0)
(1.06199 -0.0247304 7.53746e-21)
(1.02971 0.00109242 -3.73149e-22)
(1.0274 0.000485871 4.9378e-22)
(1.03745 0.00580356 6.41442e-22)
(0.810385 0.0110055 8.71576e-21)
(1.02702 0.000462172 -1.79283e-21)
(1.02262 -0.000171967 6.36182e-23)
(1.05733 0.0100434 9.34195e-21)
(1.05109 -0.0207953 -2.68483e-21)
(1.03095 -0.0106646 0)
(0.927136 -0.00701942 -1.32982e-21)
(0.828274 -0.000871578 7.01591e-24)
(1.02745 -0.000155245 -9.2508e-22)
(1.02276 -0.004797 -3.7742e-21)
(1.03559 0.00549273 0)
(0.830549 0.0122964 -1.3431e-20)
(1.02635 -0.00299582 1.63128e-21)
(1.02913 -0.0020903 1.46234e-22)
(1.0642 -0.0234207 -5.71778e-21)
(1.0377 -0.0097283 1.45288e-21)
(1.05771 0.0100103 -1.10378e-20)
(1.05148 0.00380032 1.3754e-20)
(1.02721 -0.00134144 0)
(1.01241 7.23613e-05 0)
(1.0387 0.00133342 0)
(1.03622 0.00706113 0)
(1.03891 -0.0134395 -2.29982e-21)
(1.04163 0.00541574 2.41158e-21)
(1.02985 0.00117218 -2.78347e-22)
(0.843131 -0.000921162 2.63992e-23)
(1.05277 0.0024794 1.82533e-21)
(1.02802 0.00181491 -1.14862e-23)
(1.0309 -0.0199049 2.14494e-23)
(1.03618 -0.0125024 4.59306e-22)
(1.03153 -0.00399365 -2.30524e-22)
(1.05281 0.0136433 0)
(1.02534 0.000311712 -2.16423e-22)
(1.02136 -0.000387272 -3.86278e-22)
(1.0331 0.000115092 1.04062e-21)
(1.05493 -0.0170708 -5.10188e-21)
(1.03429 -0.00327412 0)
(1.03067 0.0012911 3.66476e-22)
(1.02062 0.00165867 1.70077e-21)
(1.05035 -0.0216141 0)
(1.02812 -0.00240443 0)
(1.02132 -0.000367927 4.10502e-22)
(1.02521 0.000291176 0)
(1.04738 -0.0180785 -4.35149e-21)
(0.844345 0.00699685 0)
(1.04575 0.00216568 -4.69829e-21)
(1.05378 0.0141131 0)
(1.0317 -9.91156e-06 0)
(1.03119 0.000413449 0)
(1.02978 0.000279299 5.38996e-23)
(0.978502 -0.0287002 2.21844e-21)
(1.02716 0.000389221 -2.88031e-22)
(1.02404 4.31479e-05 -6.8278e-22)
(1.02673 0.000483074 -4.12035e-22)
(1.02613 0.000171325 1.08806e-22)
(1.03477 -0.00657734 4.82782e-22)
(1.05777 -0.0132257 0)
(1.0275 0.000326972 -1.27014e-21)
(1.05167 0.00729926 0)
(1.02396 3.83118e-05 4.86126e-22)
(1.02838 0.00035002 -3.01633e-22)
(1.0236 -0.00036673 -3.48384e-22)
(1.02667 -9.36998e-05 0)
(0.859978 0.0122669 0)
(1.02784 0.000651258 2.41493e-21)
(1.0303 -8.7237e-05 5.59647e-24)
(1.02459 -0.000425546 -3.0959e-22)
(1.02261 -0.000135032 -3.08463e-22)
(1.02609 0.000205852 2.33097e-22)
(1.04949 0.00479956 0)
(1.04255 -0.00450829 -2.08272e-21)
(1.02749 -0.00016019 -1.05504e-24)
(1.02179 -0.000360138 2.84412e-22)
(0.769826 -0.0123042 0)
(1.02705 -0.00122491 1.21956e-21)
(0.626902 0.0221945 -5.2185e-21)
(1.02564 0.00036085 0)
(1.02738 7.20714e-05 4.42621e-22)
(1.03159 0.000650621 8.77992e-24)
(1.02596 0.000192122 -1.33318e-22)
(1.03009 0.000471179 -6.30885e-23)
(1.03386 -0.0313882 2.93349e-22)
(1.01894 0.0153985 0)
(0.805899 0.0122875 0)
(1.02816 -0.00251236 -4.65983e-22)
(1.04638 -0.0195974 8.9622e-22)
(1.04339 -0.025863 -2.46265e-21)
(1.05625 -0.00646257 9.12035e-21)
(1.03855 -0.006236 1.8463e-21)
(1.02746 0.000163369 -8.58585e-23)
(1.06106 -0.0253686 0)
(1.0307 0.000824672 -1.33503e-22)
(1.02806 -0.00376192 1.56317e-21)
(1.02767 -0.00432113 6.13448e-23)
(1.02303 -0.00011958 -6.82744e-22)
(1.03723 0.000545049 -8.30345e-23)
(1.02787 0.000721156 -2.42143e-21)
(1.03907 0.00147741 0)
(1.0447 -0.00320398 4.34142e-21)
(1.02589 2.43018e-05 -1.03522e-22)
(1.0351 0.00395011 0)
(1.02943 0.0010619 0)
(1.02843 0.00145872 -4.1143e-22)
(1.02442 -0.000379954 -9.25637e-24)
(1.06408 0.00350338 1.26594e-20)
(0.964148 -0.000424048 -2.1565e-21)
(1.0206 0.000266504 0)
(1.05651 0.00151757 -5.78874e-21)
(1.02733 0.00389689 -6.27314e-24)
(1.02712 5.24881e-05 -7.71931e-23)
(1.02834 -7.05024e-05 0)
(1.04508 -0.0033913 -5.36929e-21)
(0.665349 0.0182785 6.77356e-21)
(1.02747 0.000532885 -2.84352e-22)
(0.868905 0.00992218 0)
(0.818708 -0.0373591 1.35915e-23)
(1.02361 -0.000377453 3.98624e-22)
(0.689069 0.00236626 -6.74766e-22)
(1.02791 -0.00233168 -1.19545e-21)
(1.02927 -0.00223348 -8.6896e-23)
(1.04123 -0.0242175 -4.98491e-21)
(1.04143 0.00440551 -2.67167e-21)
(1.05542 0.00104162 -1.07259e-20)
(1.0272 0.000212774 -8.7815e-22)
(0.661676 0.0197051 8.20797e-21)
(1.02739 0.000171866 -8.31544e-23)
(1.05033 -0.0107212 -2.38182e-21)
(1.02708 5.89843e-05 0)
(1.07074 -0.00254068 1.13128e-20)
(1.03384 -0.0060541 -1.11354e-21)
(1.02947 -0.00525387 -9.80038e-22)
(1.03001 0.000849388 -2.02785e-22)
(1.05672 -0.00134973 3.95452e-21)
(1.02539 0.000329544 -1.00645e-21)
(1.04221 -0.0237259 0)
(1.02993 0.000856786 4.09539e-22)
(1.0254 -0.000421855 2.5794e-22)
(1.02531 0.000302002 -5.98614e-22)
(1.00988 -6.15792e-05 1.52408e-22)
(1.04375 0.00310977 9.00775e-22)
(0.706226 0.0176713 -2.73308e-20)
(1.0273 0.000283869 8.37114e-22)
(0.835332 0.00977328 -9.49244e-21)
(0.65646 0.0218464 -1.0903e-20)
(1.05151 0.00726163 6.66709e-21)
(1.03486 0.00273624 0)
(0.999713 -0.000363648 7.52765e-23)
(0.880305 0.0121973 8.36664e-21)
(1.05852 -0.0129081 0)
(1.05483 0.0167004 3.1472e-21)
(0.843729 -0.0014039 0)
(1.02685 0.000302236 -6.56366e-23)
(1.02518 0.000281836 4.99291e-22)