/*--------------------------------*- C++ -*----------------------------------*\
| =========                 |                                                 |
| \\      /  F ield         | OpenFOAM: The Open Source CFD Toolbox           |
|  \\    /   O peration     | Version:  v2012                                 |
|   \\  /    A nd           | Website:  www.openfoam.com                      |
|    \\/     M anipulation  |                                                 |
\*---------------------------------------------------------------------------*/
FoamFile
{
    version     2.0;
    format      ascii;
    class       volVectorField;
    location    "200";
    object      ddt0(U);
}
// * * * * * * * * * * * * * * * * * * * * * * * * * * * * * * * * * * * * * //

dimensions      [0 1 -2 0 0 0 0];


internalField   nonuniform List<vector> 
14804
(
(-0.000357702 -0.00039216 2.82688e-23)
(-2.01583e-07 -2.29623e-07 0)
(-8.82839e-06 5.26072e-05 -1.2581e-23)
(2.67762e-07 7.14653e-07 -2.53539e-22)
(-4.07776e-06 5.20447e-07 5.32871e-25)
(-8.86823e-06 -5.06082e-06 2.99561e-24)
(-1.22173e-06 -1.23011e-06 -6.01509e-23)
(-1.11644e-07 -5.99179e-07 5.48831e-22)
(0.000103017 -1.74128e-05 0)
(-3.35367e-09 -1.77356e-09 4.35732e-26)
(-0.000417932 0.00031011 0)
(-2.52069e-05 5.39956e-05 0)
(-1.17469e-07 -6.63842e-07 2.08888e-23)
(-3.9673e-07 4.21524e-06 1.75078e-22)
(4.21995e-05 -5.18377e-05 -1.25879e-21)
(0.000224469 -0.000556857 -2.24425e-22)
(-4.39916e-06 4.85399e-07 -2.48589e-25)
(-5.18697e-07 5.29177e-07 -5.73748e-22)
(-4.85319e-05 -2.00306e-05 -3.69045e-22)
(8.10979e-06 -1.8361e-05 0)
(-7.35687e-10 6.42499e-09 1.52809e-22)
(-7.31998e-07 -1.74108e-06 3.39706e-22)
(6.81704e-07 -2.32155e-06 3.37008e-22)
(-1.26805e-06 -9.53223e-07 -9.28463e-22)
(-7.64741e-05 7.31767e-07 0)
(-1.23403e-06 -9.7017e-07 2.81021e-22)
(4.36393e-06 -5.42066e-06 0)
(-3.78639e-06 1.60283e-06 -4.43586e-22)
(-0.000143281 -0.000500965 -2.91458e-22)
(-1.39259e-06 -7.18461e-07 -8.9552e-22)
(-1.05789e-06 -5.16226e-07 1.39608e-22)
(5.19408e-07 -1.56271e-06 0)
(1.04181e-05 -1.69043e-05 -4.97675e-22)
(-3.43768e-06 -1.32217e-06 0)
(7.60185e-05 -6.25622e-05 2.28537e-22)
(-1.26753e-06 -1.18901e-06 5.95786e-23)
(-0.000270808 -0.000187153 0)
(-1.11296e-09 -2.83303e-08 0)
(0.00112345 -0.000841229 -2.01396e-22)
(-1.31145e-05 -1.69025e-05 4.38399e-22)
(-2.08727e-06 5.45616e-05 2.90929e-22)
(6.61916e-05 -6.20003e-05 0)
(-3.50553e-06 7.41402e-06 0)
(-2.16213e-07 -5.34412e-07 3.14102e-22)
(-4.06221e-06 7.5031e-07 0)
(-1.14978e-07 -1.01317e-06 0)
(-0.000264079 -0.000475526 3.47677e-22)
(-2.56515e-07 -8.7894e-07 -8.50496e-22)
(-7.82069e-07 -1.78778e-06 7.0798e-22)
(-1.48258e-06 -5.33104e-05 1.28864e-21)
(-1.33032e-07 -7.15081e-07 -5.0179e-22)
(-4.30698e-07 -2.71138e-08 -6.81592e-22)
(-5.02553e-08 -1.80256e-07 4.36893e-22)
(-1.07781e-06 -9.3127e-07 0)
(8.17428e-05 -0.000137533 0)
(0.000161261 -0.000644163 3.96353e-22)
(3.99165e-05 0.000292091 2.34975e-22)
(-4.66957e-05 -0.000558111 -1.92721e-22)
(-9.22378e-09 -2.20205e-07 -4.1299e-22)
(-1.30808e-07 -1.12966e-06 0)
(0.000149597 -8.10982e-05 4.4233e-22)
(-1.36097e-07 -7.08061e-07 8.31531e-26)
(-2.49037e-07 -5.52148e-07 -1.77894e-22)
(0.000101371 -0.000626977 3.8799e-22)
(-2.42835e-07 -5.39955e-07 -1.57609e-22)
(-3.83583e-08 -1.63104e-07 -3.15788e-22)
(-1.9436e-09 1.54133e-08 -3.7988e-22)
(-1.03951e-06 -1.22576e-06 0)
(-2.24538e-08 -6.8758e-09 0)
(0.000114997 0.000124122 -1.41435e-22)
(-1.21693e-06 -5.31283e-07 -3.34162e-22)
(3.54751e-06 -5.06101e-06 0)
(-0.000582185 -0.000118303 -1.50084e-22)
(0.000368945 -0.000178428 -7.43009e-22)
(-1.58146e-06 -7.94935e-07 -4.96384e-22)
(0.000128925 0.000147714 1.38657e-22)
(0.000448206 -5.25926e-05 -3.27387e-24)
(-2.02143e-07 -2.26831e-07 2.80523e-22)
(2.65369e-08 6.04618e-08 0)
(-6.09755e-07 -2.65455e-07 -3.27198e-22)
(-0.000324566 5.94687e-05 -4.36443e-22)
(-4.37651e-08 -1.61104e-07 2.86291e-22)
(-6.01435e-07 -2.88025e-07 3.56778e-22)
(-1.56045e-06 -7.93162e-07 2.2721e-22)
(1.49327e-09 -1.45818e-08 1.09751e-22)
(2.88031e-05 -1.21633e-05 -6.13942e-22)
(-2.0961e-07 -3.57098e-08 -4.34246e-22)
(-1.4755e-06 -9.95001e-07 1.64175e-22)
(-2.06554e-07 -1.72727e-07 2.94927e-22)
(-3.86415e-06 1.33147e-06 -4.89301e-22)
(-3.07922e-06 -1.37483e-06 3.12727e-24)
(-3.03338e-07 -1.44732e-06 -2.19159e-22)
(6.1879e-05 -8.30034e-07 3.031e-22)
(-1.14834e-06 -4.99051e-07 -3.14163e-22)
(-3.30623e-05 -5.61671e-05 -8.61003e-22)
(0.00043021 -2.47162e-05 -3.87272e-22)
(-0.000139956 -0.000513633 2.0125e-22)
(4.22914e-07 -1.711e-06 0)
(-8.8455e-07 -1.07013e-06 -4.08241e-22)
(-0.000461479 0.000589063 0)
(-4.25918e-05 -0.000559445 1.95482e-22)
(0.000299206 0.000249596 2.15937e-22)
(1.11755e-09 -5.17532e-09 2.33916e-22)
(-1.11738e-06 5.50575e-06 -5.30732e-23)
(0.000190432 -0.000245334 1.49137e-22)
(0.000248227 0.000198499 -4.82864e-22)
(-1.9568e-05 5.33061e-05 0)
(0.000138176 0.000146879 5.52619e-22)
(-4.49519e-08 -2.76252e-07 3.66346e-22)
(-1.08058e-06 -5.26345e-07 -2.55857e-22)
(-8.31406e-08 -3.35599e-07 0)
(0.000114871 -0.000377288 -2.13701e-22)
(6.07717e-05 5.78484e-06 2.45476e-22)
(-0.000264076 -4.93135e-05 -3.43504e-22)
(8.06253e-05 -0.000355217 3.05834e-22)
(-0.000319313 2.41312e-05 -2.89687e-22)
(-0.000153379 0.000382035 1.28571e-22)
(-3.10091e-06 -1.38212e-06 -4.36494e-22)
(1.179e-09 -1.38337e-08 -7.75307e-22)
(-6.747e-07 7.56071e-07 5.7454e-22)
(0.000429025 0.00017803 7.42186e-22)
(-2.0601e-07 -1.66857e-07 -8.5869e-22)
(-1.5514e-06 -1.2668e-06 -9.49689e-22)
(-4.49555e-06 -1.16275e-06 6.84761e-23)
(-1.21266e-08 -1.99581e-07 3.76203e-22)
(1.27179e-09 -1.63687e-08 0)
(1.66767e-06 0.000171944 -2.72611e-22)
(-4.40599e-07 4.891e-06 2.12961e-22)
(8.95485e-07 -2.00196e-06 -7.39934e-22)
(-3.48106e-06 -7.09622e-07 0)
(-3.35806e-06 -7.32143e-07 0)
(-6.81056e-05 5.75236e-06 0)
(2.51053e-05 0.000104814 0)
(-4.32901e-05 0.000499843 0)
(-0.000125121 0.000109621 3.35567e-22)
(-4.58901e-06 -9.17168e-07 0)
(-2.04308e-07 -5.25e-07 3.91164e-22)
(-0.000397251 0.000994294 0)
(-1.32909e-06 -6.55626e-07 0)
(-3.55465e-06 -1.40117e-06 0)
(-1.33173e-07 -2.26127e-07 3.80706e-22)
(-0.000243613 0.000291981 0)
(-4.16724e-07 -2.10416e-08 6.84092e-22)
(0.00031846 5.16618e-06 0)
(-0.000235288 -5.42583e-05 0)
(-1.99218e-08 -6.90016e-09 0)
(0.000171916 -0.000240491 0)
(-3.32931e-08 -2.46142e-07 -3.5653e-22)
(0.000103427 9.58506e-05 0)
(-0.000386063 -2.2495e-05 -5.75701e-22)
(0.000100475 -6.48671e-06 0)
(-0.000134155 -1.21133e-05 0)
(-1.29982e-05 -1.92202e-05 -4.89035e-22)
(6.39095e-07 5.8891e-06 5.02084e-22)
(-5.9359e-07 -2.78179e-07 -7.83446e-23)
(-0.000112681 -0.000522191 0)
(-2.47503e-06 -7.37233e-06 2.6857e-22)
(0.000148876 -9.81813e-05 3.29226e-22)
(0.00030082 -3.18799e-05 3.55998e-22)
(6.50061e-05 0.000148441 3.26464e-22)
(-1.08487e-07 -1.22561e-07 0)
(-5.07923e-08 -9.92755e-09 -7.73783e-22)
(-8.23319e-06 8.51583e-05 0)
(-6.01904e-05 2.4721e-06 -3.13604e-22)
(-1.76907e-06 -2.39411e-07 -8.1295e-22)
(-9.59524e-05 -0.000511056 0)
(-2.64102e-07 -9.14673e-07 6.09589e-22)
(-0.000151067 -0.000112225 0)
(-1.38648e-06 -6.79035e-07 3.07428e-22)
(-1.20963e-07 -5.94993e-07 -7.10938e-22)
(2.21382e-05 0.000150359 0)
(-4.16891e-07 -1.69085e-06 -4.36454e-22)
(-5.26982e-05 -3.42162e-05 -2.2451e-22)
(3.58151e-05 -4.66405e-05 6.19897e-22)
(-0.000155284 3.41737e-05 -4.31022e-22)
(-0.000256614 0.000427648 5.65499e-22)
(-1.80385e-07 -7.01393e-07 0)
(-3.58725e-06 -9.77143e-07 0)
(-2.95306e-07 -3.7307e-08 -2.07663e-22)
(-3.44215e-06 0.000393127 8.55965e-23)
(-9.96252e-06 -4.89399e-06 3.97772e-22)
(0.000195949 3.13452e-05 -1.42726e-24)
(-1.2724e-06 -1.07684e-06 -4.19608e-22)
(-2.51784e-07 -1.00158e-06 8.00942e-22)
(-3.1235e-07 -1.3634e-06 0)
(-0.00017819 0.000140273 -2.20919e-22)
(-5.1801e-06 -1.39564e-07 -6.04889e-22)
(-4.78943e-06 -6.95491e-07 5.58072e-22)
(-2.37189e-06 -5.64701e-07 0)
(-4.82999e-07 -2.37489e-07 3.22192e-22)
(-5.30458e-06 6.9076e-06 4.00044e-22)
(-9.82863e-05 -0.000817152 -1.71844e-22)
(-6.93474e-07 -8.65992e-07 3.00818e-22)
(-0.000447447 9.44656e-05 0)
(-0.000472735 -0.000188773 1.52921e-22)
(-2.49759e-07 -4.87737e-07 0)
(0.000344377 0.000241328 -2.3497e-22)
(-9.93236e-08 -6.68826e-07 -9.35307e-23)
(-5.4868e-06 1.80239e-06 0)
(0.000231064 3.5928e-05 8.46249e-22)
(-0.000148207 2.397e-05 1.30691e-22)
(-4.93437e-07 -2.32789e-07 0)
(-1.7451e-06 -7.18952e-07 8.16383e-22)
(1.78982e-05 -8.17769e-06 0)
(-1.34742e-07 -8.14725e-07 0)
(0.000383499 -4.72975e-06 -4.76337e-23)
(-2.8683e-06 -6.88883e-06 4.37912e-22)
(0.000279196 -0.000624297 -4.26093e-22)
(-3.19941e-06 -1.54421e-06 0)
(-1.2182e-06 -1.24889e-06 0)
(-1.37904e-06 -6.91345e-07 2.85245e-22)
(0.000369449 -2.78259e-05 3.33555e-22)
(-1.0809e-06 -1.22979e-06 0)
(-1.02608e-07 -1.17208e-07 0)
(-5.94467e-07 -1.21383e-06 0)
(-1.358e-06 -6.65536e-07 0)
(4.57723e-07 5.07216e-06 0)
(-3.48212e-07 -6.07547e-07 1.90357e-22)
(-8.20035e-08 -3.94865e-07 -2.49464e-22)
(-2.18883e-07 -5.0493e-07 -2.31665e-22)
(-1.53484e-07 -1.01278e-06 6.75856e-24)
(7.16334e-05 -1.01751e-05 -7.32333e-25)
(-4.7845e-06 2.65937e-06 -2.7161e-24)
(-3.89488e-07 -1.63226e-06 5.77786e-22)
(-9.27436e-07 -5.5378e-07 -3.79592e-22)
(-0.000247679 0.00174866 -9.36084e-22)
(1.28498e-05 -1.18875e-05 2.17602e-22)
(0.000361955 -0.000339 -3.84808e-22)
(-5.07861e-05 0.000118064 -4.72605e-22)
(-8.80148e-07 -1.66359e-06 -2.83552e-22)
(-1.10495e-06 -5.08182e-07 -3.20506e-22)
(-1.69449e-06 -7.20231e-07 -3.67392e-22)
(-8.28274e-08 -4.0969e-07 0)
(0.000354407 5.1946e-05 0)
(0.000259053 -0.000223894 -1.23282e-22)
(4.96049e-09 -5.55637e-09 0)
(-1.56368e-07 -1.05157e-06 0)
(-0.000189363 -0.000333385 -2.72023e-22)
(1.00345e-05 3.24432e-05 3.24113e-22)
(-1.80152e-06 -1.62664e-06 1.10746e-21)
(-0.000167737 0.000303 -3.84911e-22)
(-0.000122817 -3.06432e-05 3.21635e-22)
(-8.5402e-07 -1.0804e-06 7.8079e-23)
(-2.10436e-07 -5.11058e-07 -2.9242e-22)
(-6.65418e-07 -4.20207e-07 -2.82708e-22)
(3.34916e-05 -1.61177e-05 -3.65204e-22)
(-2.57259e-06 -1.03626e-06 5.49525e-22)
(-1.80707e-06 -3.07137e-07 4.86433e-22)
(8.33915e-07 -2.36987e-06 3.90826e-22)
(-1.09908e-06 -5.39402e-07 0)
(-0.0010791 0.00265884 7.93094e-22)
(-2.42708e-07 -4.7077e-07 -3.00572e-22)
(-8.13494e-08 -8.11961e-08 -4.93344e-22)
(-1.90072e-07 -2.08347e-07 -2.91852e-22)
(-8.80923e-05 0.000315974 -2.87596e-22)
(-1.39622e-07 -8.16162e-07 3.10236e-22)
(-4.47773e-07 -2.16427e-07 0)
(-1.83895e-06 -5.68177e-07 6.47416e-23)
(-1.19372e-06 -5.19717e-07 -7.29465e-26)
(-2.52386e-08 -1.56608e-07 0)
(-0.000141398 0.000120715 0)
(-2.4016e-06 -4.97723e-07 -7.94719e-23)
(9.41159e-07 -1.82647e-06 4.45564e-22)
(-1.20232e-07 -6.51525e-07 -3.86529e-22)
(-0.00130651 0.000592087 9.39931e-22)
(-1.2901e-06 -6.93642e-07 -7.2076e-23)
(-2.55401e-06 -6.37484e-06 -6.16906e-22)
(-6.44634e-07 -4.12247e-07 -2.76976e-22)
(0.000346362 4.3494e-05 3.09863e-22)
(-0.000593394 -5.29645e-06 -1.92198e-23)
(0.000150996 5.87345e-05 -2.13862e-22)
(0.000145014 -0.000697603 0)
(5.14333e-10 -5.30104e-09 6.91831e-22)
(-2.23026e-08 -2.32201e-07 3.06431e-22)
(-7.95029e-05 0.000252437 -4.28047e-22)
(5.19779e-05 -5.27629e-05 1.06212e-21)
(-1.34059e-06 -8.78798e-07 0)
(-0.000205174 -5.03325e-05 0)
(1.1375e-08 1.44301e-06 -6.62156e-22)
(0.000213388 0.000175508 2.98186e-22)
(-0.000229661 -0.000325164 3.25198e-22)
(-1.00694e-07 -1.95625e-08 -2.20347e-22)
(-0.000181629 -0.00015597 1.78148e-22)
(0.000184983 -5.94697e-05 -4.20406e-22)
(4.48614e-05 6.98569e-05 1.53416e-23)
(0.000694584 0.00147326 5.92343e-22)
(6.55101e-07 3.84086e-06 7.36119e-22)
(-1.43504e-06 -9.97706e-07 -4.59617e-22)
(-6.68824e-08 -9.42471e-07 0)
(5.88478e-05 0.000152471 0)
(-3.34557e-07 -5.81254e-07 -3.14104e-22)
(-1.23715e-06 -6.97729e-07 -3.28025e-22)
(-8.01734e-07 -1.72114e-06 -3.08907e-22)
(-1.50925e-06 -8.22306e-07 -2.35125e-22)
(-8.25582e-06 -4.24902e-06 3.83014e-22)
(-0.000357901 0.0018218 2.30808e-23)
(-7.6938e-05 4.13325e-05 0)
(1.07117e-06 -1.86721e-06 -8.67324e-22)
(-3.59409e-07 -6.175e-07 3.39587e-22)
(-2.12063e-07 -1.0418e-06 -8.72362e-22)
(-4.72789e-07 -3.21628e-07 0)
(-1.64398e-07 -1.8838e-07 -3.18184e-22)
(5.94852e-08 -9.31003e-07 9.10706e-22)
(1.27743e-05 -1.38434e-05 -1.36786e-22)
(5.45182e-07 -6.99808e-07 0)
(-1.22505e-06 -1.14038e-06 0)
(0.000831869 -0.00133836 1.65421e-22)
(0.000342638 0.000189949 3.70956e-22)
(2.6094e-05 -5.43601e-05 -5.88754e-22)
(-0.000182838 6.7325e-05 0)
(0.00025017 4.18723e-05 -7.6894e-22)
(-1.56157e-06 -8.2648e-07 2.50844e-22)
(-1.86634e-09 -1.41267e-06 5.04461e-22)
(-1.75602e-06 -1.62624e-06 -5.80432e-22)
(-9.13745e-05 0.000330637 -1.59765e-24)
(-5.50473e-07 -1.2515e-06 0)
(-0.000122731 0.000105125 -1.99768e-24)
(-0.000198757 -0.000107069 3.6835e-22)
(-5.21424e-07 -1.93802e-07 0)
(0.000426864 -0.000675318 2.0938e-22)
(-0.000256867 -0.000172226 3.02461e-23)
(-0.000195389 0.000304188 9.30957e-23)
(0.000432459 -0.000389843 5.5049e-22)
(0.000363844 3.36881e-05 0)
(-1.61832e-06 -7.28728e-07 0)
(5.8678e-06 -1.7632e-05 -1.08517e-22)
(5.15796e-05 -0.000177749 -3.53373e-22)
(-1.44415e-08 -2.1528e-07 -3.67876e-22)
(0.00176141 -0.00178002 -5.54261e-22)
(0.000284135 -5.25164e-05 -5.2118e-22)
(-1.8044e-06 5.287e-06 -1.84505e-22)
(3.63254e-06 1.94676e-06 -3.98116e-22)
(-2.3023e-07 -6.64262e-07 5.77015e-22)
(-1.26046e-08 -1.38918e-06 -1.599e-22)
(-2.57261e-08 -1.57228e-07 0)
(-1.04109e-06 -5.01239e-07 2.40719e-22)
(-1.60714e-07 -1.87902e-07 -3.17824e-22)
(0.000303812 6.88911e-05 2.94328e-22)
(-2.24593e-07 -1.05015e-06 -3.5084e-22)
(-5.66527e-05 -2.76078e-05 1.24705e-22)
(-5.31827e-07 -1.64287e-06 3.15322e-22)
(-1.30013e-06 -6.88846e-07 2.70717e-22)
(-2.58031e-06 -1.08173e-06 -9.58678e-22)
(-1.15106e-07 -6.98988e-07 3.31394e-22)
(-1.13483e-06 -5.00851e-07 3.09214e-25)
(-0.000386659 -0.000300596 -2.43019e-22)
(7.21481e-05 0.000110364 0)
(-1.56211e-05 9.14967e-05 -2.35967e-22)
(0.000116979 -1.99297e-05 0)
(-0.000131149 3.74675e-05 1.85241e-23)
(-0.000256817 -1.04501e-05 2.78141e-22)
(-1.84833e-06 -5.97058e-07 7.32635e-22)
(-4.45588e-08 -1.65342e-07 -3.04261e-22)
(-6.1934e-07 -3.86161e-07 2.69084e-22)
(-2.15386e-07 -1.03197e-06 -3.48412e-22)
(-0.000275777 -0.000200903 -1.36665e-22)
(-7.80513e-07 -1.02017e-06 0)
(-0.000262268 -2.69483e-05 3.6291e-22)
(-7.70339e-07 -3.63154e-07 0)
(-8.83456e-08 -8.99013e-08 9.89288e-22)
(-2.47378e-07 -1.05542e-06 4.47877e-22)
(1.78298e-05 9.7036e-06 0)
(-8.43669e-06 -7.97732e-05 1.79118e-22)
(6.80301e-06 2.41463e-05 0)
(-0.00013943 0.000119396 0)
(0.000329134 -0.000161571 5.86793e-22)
(-1.35751e-06 -8.66637e-07 -3.28387e-22)
(-2.99814e-06 -1.485e-06 -6.80252e-22)
(-2.06547e-06 -2.56951e-06 0)
(-2.01443e-07 -4.51255e-07 2.11918e-22)
(-1.52138e-06 -1.32185e-06 -6.55121e-22)
(-2.04228e-09 -7.04913e-08 1.06888e-22)
(1.20037e-06 -1.73137e-06 3.94439e-22)
(-1.4049e-06 -7.04563e-07 2.33557e-25)
(-1.8942e-07 -1.86519e-07 0)
(-0.00241333 0.000101637 -1.87171e-22)
(-6.4022e-07 -4.23117e-07 2.74295e-22)
(-3.92626e-07 -1.0712e-06 5.75608e-22)
(1.71323e-05 0.000117375 5.31172e-22)
(-0.000563917 0.000103361 1.22662e-21)
(-3.18089e-05 0.00460431 0)
(-2.14035e-06 6.05305e-07 0)
(-6.07317e-06 -3.22118e-07 6.51535e-22)
(2.50781e-05 7.11129e-05 -5.8793e-23)
(-2.60216e-06 -9.35397e-07 -7.22375e-22)
(-2.21022e-07 -4.58229e-07 -5.75254e-22)
(-0.00035707 -6.20936e-06 1.78407e-22)
(-1.655e-07 -1.06174e-06 0)
(-2.19473e-08 -1.09164e-07 2.49015e-22)
(0.000124772 -0.000593442 0)
(-8.32562e-08 -9.57277e-07 0)
(-9.78502e-07 -4.09645e-07 2.33975e-22)
(-2.44134e-07 -1.03633e-06 -2.88565e-22)
(-1.10363e-06 -8.54658e-07 0)
(-2.6432e-05 7.10628e-06 4.42314e-24)
(-1.53894e-06 -1.29509e-06 6.3132e-22)
(-0.000688093 0.000225888 0)
(3.51185e-06 1.25386e-06 0)
(1.87633e-05 0.00101046 -7.06548e-22)
(-6.46357e-09 -6.07476e-08 0)
(1.72172e-05 -4.98147e-05 -5.77056e-22)
(-1.04399e-07 -2.66343e-07 0)
(0.000111912 0.00025161 -6.09105e-22)
(-0.000914522 0.00107097 0)
(-2.52905e-06 -2.1756e-06 5.5524e-22)
(-9.77482e-08 -1.10483e-06 -5.78849e-24)
(-0.000485188 0.000199709 0)
(-1.29471e-07 -6.95216e-07 0)
(1.02828e-05 -1.4804e-05 6.49513e-22)
(6.00829e-10 -4.95298e-09 0)
(-9.42421e-07 -5.65622e-07 4.84918e-22)
(2.37619e-07 -1.09546e-06 -3.05652e-22)
(0.00120676 0.00429758 6.2175e-22)
(-4.08069e-09 -1.22633e-09 -5.23406e-22)
(-1.47907e-06 -8.20171e-07 2.08758e-22)
(-0.000543624 -0.000377077 -1.90887e-21)
(-2.304e-08 -1.97778e-07 0)
(-2.38689e-06 4.46426e-07 0)
(-1.20234e-06 -9.93851e-07 0)
(-0.000290556 -0.000434269 -2.07569e-22)
(-0.000187694 -0.000120306 1.0255e-21)
(-1.33355e-05 2.00542e-06 6.79034e-22)
(-1.02066e-06 -4.29138e-07 -3.3703e-23)
(0.000354911 1.72404e-05 0)
(-8.11945e-08 -1.10926e-06 -9.0645e-24)
(-3.0641e-06 -9.39375e-06 1.77108e-22)
(-6.93295e-05 0.000102524 -2.16586e-22)
(7.25419e-07 -7.67218e-07 -8.77874e-22)
(-4.56049e-07 -2.11654e-06 0)
(-1.06127e-06 -4.67858e-07 7.39129e-23)
(-1.59934e-06 -1.03436e-06 -5.59647e-22)
(-6.69443e-08 -2.34128e-09 4.33608e-22)
(3.73729e-05 -0.00087028 0)
(-2.73854e-08 -1.04914e-07 -7.61962e-22)
(-1.18739e-06 -1.28344e-06 0)
(-8.76323e-08 -4.39846e-07 0)
(-4.56448e-07 -3.09763e-07 -2.41571e-22)
(-0.000332229 -0.000304895 6.5289e-22)
(-3.14863e-07 -5.55306e-07 -3.18429e-22)
(-2.655e-07 -1.07303e-06 4.60185e-22)
(-1.11677e-05 -1.55407e-05 -2.12028e-22)
(4.11495e-05 0.000132304 3.44876e-23)
(-7.01936e-07 -5.18854e-07 0)
(-1.27709e-06 -7.05845e-07 -2.24673e-22)
(-3.36303e-07 -2.29633e-07 -2.58814e-25)
(-4.59032e-07 -5.43958e-07 -6.15235e-22)
(-0.000290092 1.20875e-05 2.80632e-24)
(-0.000318644 -7.89125e-05 -1.20261e-22)
(-0.00012343 -1.46478e-08 0)
(-1.59657e-06 -1.24994e-06 2.85054e-22)
(8.16552e-05 8.40575e-05 -1.31686e-22)
(-1.48815e-06 -1.33074e-06 5.61768e-22)
(-1.44056e-06 -7.52732e-07 0)
(2.01637e-09 -7.26665e-09 1.91692e-22)
(-3.838e-07 -1.45535e-08 5.10549e-22)
(-3.78172e-07 -6.81739e-07 -3.87579e-22)
(-3.28392e-07 -9.5846e-09 -3.10425e-24)
(0.000418516 -0.000344091 0)
(-1.81761e-06 -4.52253e-07 -5.72415e-22)
(3.64982e-10 -2.36248e-08 -2.01856e-22)
(-0.00178717 0.00471296 1.86513e-21)
(-3.60774e-07 -2.45116e-07 -3.92276e-22)
(7.86575e-05 -0.000102873 3.22742e-22)
(-2.40163e-05 6.1468e-05 0)
(-1.01746e-06 3.9084e-06 8.7977e-23)
(0.000920558 0.000996617 0)
(-2.05117e-06 7.77965e-07 0)
(0.000362705 0.000151697 -6.14438e-22)
(-1.42612e-05 2.88595e-06 -5.02446e-22)
(-1.49417e-07 -7.60906e-07 0)
(1.34832e-09 -1.69523e-08 -2.23015e-22)
(1.83495e-07 -1.10745e-06 -8.02795e-22)
(-8.93655e-07 -8.35474e-07 0)
(-6.36371e-07 -5.16728e-07 -3.3259e-22)
(-0.000281324 -3.76214e-05 3.94614e-22)
(3.42943e-07 4.14314e-07 3.63511e-22)
(-1.10254e-07 -6.6769e-07 0)
(-2.89618e-06 -1.39735e-06 0)
(0.000371207 -1.57471e-05 0)
(-0.000121147 0.000167688 -1.151e-23)
(-4.9872e-06 -4.87044e-07 -4.82299e-22)
(-1.76412e-06 5.66864e-07 0)
(-1.64622e-06 -1.69328e-06 7.83277e-22)
(7.02937e-05 -2.38749e-06 0)
(-1.64516e-06 -7.55191e-07 0)
(1.65457e-08 -1.11772e-06 -3.8099e-22)
(-0.000296803 2.92288e-05 5.8517e-22)
(-1.66173e-07 -6.02797e-07 -4.0366e-24)
(-7.10861e-07 -5.20691e-07 0)
(-2.49369e-06 -1.9255e-06 -9.31648e-22)
(6.60417e-09 -1.17796e-06 0)
(-0.000276872 -9.16323e-05 -2.15063e-22)
(-3.2466e-06 -2.07375e-06 9.3115e-22)
(-3.07523e-07 -2.18279e-08 -4.19006e-22)
(-1.9749e-06 -2.88895e-06 1.21654e-21)
(-1.55604e-09 -2.67912e-08 1.18083e-22)
(-8.20916e-08 -4.30994e-07 0)
(-0.000601196 -6.43323e-05 1.59558e-22)
(-4.9741e-06 -8.31774e-07 5.86932e-22)
(-3.66199e-07 -6.53086e-07 0)
(2.78981e-06 -4.33805e-05 -5.66403e-22)
(-2.68221e-07 -1.049e-06 -2.05517e-22)
(-1.36504e-07 -2.24914e-07 -3.84286e-22)
(1.68195e-06 -1.45326e-06 1.06339e-21)
(-0.0002567 -0.000381909 9.21045e-23)
(-4.12591e-08 -2.39238e-07 5.2052e-23)
(-9.69895e-08 -2.72575e-07 -3.78752e-22)
(-2.16157e-07 -3.34793e-08 5.1495e-22)
(-9.31555e-07 -5.46605e-07 -3.03264e-22)
(-0.000588797 1.16939e-05 0)
(-3.13286e-08 -2.2865e-07 -3.857e-23)
(-1.51604e-07 -7.58931e-07 0)
(0.00184451 -0.00380176 0)
(-6.10859e-07 -8.01567e-07 0)
(-7.18505e-07 -1.20592e-06 -1.91422e-22)
(-0.000296863 0.000296335 -2.34092e-22)
(-3.59482e-08 -2.13658e-07 3.23845e-22)
(0.000536899 0.000188818 8.38079e-23)
(-5.86746e-07 -2.06019e-07 -5.13982e-22)
(3.44402e-05 0.000102822 -2.97074e-22)
(-0.000578469 -4.97876e-05 0)
(-0.000417891 -6.83552e-05 0)
(-1.26414e-07 -6.49571e-07 2.01483e-22)
(-2.09888e-08 -2.07452e-07 2.75459e-22)
(2.86652e-06 1.08174e-06 0)
(-1.41809e-06 -1.02669e-06 0)
(-5.50037e-07 -2.03881e-07 5.43998e-22)
(-3.41696e-07 -1.28682e-06 -8.3127e-24)
(-2.20949e-07 -1.88751e-08 2.51785e-22)
(-1.94115e-06 -2.7299e-06 -3.31001e-22)
(-1.04634e-06 -4.70214e-07 2.22209e-22)
(-2.53908e-06 -1.88063e-06 9.55882e-22)
(-4.03492e-06 1.97465e-06 4.90428e-22)
(-1.45716e-06 -8.02202e-07 0)
(-0.000343612 6.04916e-05 2.65933e-22)
(-1.03437e-05 -8.86343e-05 0)
(0.000428511 -0.000308241 2.00279e-22)
(-5.1263e-07 -1.72932e-06 -5.076e-22)
(-6.10244e-07 -2.3285e-07 2.80159e-22)
(1.32333e-05 -5.55893e-06 2.78104e-22)
(-4.97065e-08 -1.78518e-07 0)
(-2.73447e-07 -2.28117e-06 -3.15258e-22)
(-5.99526e-07 -0.000172806 0)
(-4.3759e-08 -9.93078e-07 -9.85369e-22)
(7.08715e-06 8.93596e-05 0)
(4.352e-05 9.55915e-05 0)
(-5.34067e-08 -7.56625e-09 3.52743e-22)
(0.000129087 0.000887842 3.87027e-22)
(1.04011e-05 -2.98202e-06 2.99504e-22)
(-1.81296e-06 -4.96592e-07 4.93467e-22)
(-4.77836e-08 -1.05831e-06 -2.8362e-22)
(0.000223201 -0.000377992 -5.26342e-22)
(-0.000270063 0.000111869 1.33542e-22)
(-5.8829e-07 -2.72181e-07 0)
(-1.06336e-07 -2.54875e-08 1.36797e-22)
(-1.49818e-07 -1.79098e-07 3.25332e-22)
(9.97473e-05 -6.99555e-05 3.78016e-22)
(1.52096e-05 -1.31141e-05 0)
(-0.000316282 9.90685e-05 2.9458e-23)
(0.000451741 9.29741e-05 0)
(-9.47697e-08 -2.67157e-07 -3.30476e-22)
(-2.54866e-07 1.95907e-05 0)
(-5.72958e-07 7.873e-06 6.06618e-22)
(-0.000443992 0.000609684 0)
(-2.60101e-06 -8.76016e-06 -2.03206e-22)
(-6.02729e-07 -6.07007e-07 0)
(-2.27335e-06 -1.42648e-06 2.04329e-22)
(-9.59735e-07 -5.57152e-07 6.90525e-22)
(0.000123755 -0.000268782 2.64045e-22)
(-0.000112833 8.68508e-05 1.94464e-22)
(-2.5399e-06 -1.86157e-06 9.98369e-26)
(0.000506093 -0.000237907 1.71842e-22)
(-5.35696e-07 -2.03057e-07 -6.04937e-22)
(-1.3532e-07 -1.74094e-07 3.50336e-22)
(-1.12086e-06 -5.71484e-07 0)
(-2.40422e-06 -2.10629e-06 0)
(-2.17049e-07 -1.64325e-07 6.36596e-22)
(1.31964e-05 0.000185978 2.81235e-22)
(-2.11258e-08 -1.12675e-07 -3.18851e-22)
(-1.82001e-05 -3.55444e-05 4.08328e-22)
(-2.60936e-05 0.000204976 3.42477e-22)
(-1.87893e-06 -2.69468e-06 -2.456e-22)
(-2.15408e-06 4.21166e-07 0)
(-9.6956e-07 -5.49094e-07 -3.2828e-22)
(-2.31374e-07 -4.73228e-07 0)
(2.77043e-05 8.24611e-05 5.29327e-22)
(-1.35072e-06 -8.2573e-07 -6.29868e-22)
(-9.14138e-05 -4.01696e-05 -4.53421e-23)
(-1.94001e-07 -2.02762e-07 -5.8485e-22)
(-1.13488e-06 -5.69885e-07 1.54341e-23)
(-4.3802e-07 -5.69462e-07 6.39299e-22)
(-3.03607e-10 -3.08779e-09 5.55437e-22)
(-1.90929e-06 1.39219e-05 7.68718e-23)
(-2.34586e-06 6.29617e-07 0)
(0.000206676 5.26701e-05 2.08661e-26)
(0.000389319 0.000201517 -7.89515e-22)
(-2.71063e-08 -2.05179e-07 0)
(-1.30003e-06 -6.88681e-07 -8.01296e-22)
(-1.83465e-06 4.36565e-07 -4.05328e-23)
(1.19203e-05 -2.15671e-05 5.66729e-22)
(3.36399e-06 -1.12701e-06 1.75727e-23)
(-8.53463e-07 -2.65775e-06 0)
(-1.04358e-06 -5.46921e-07 7.20232e-22)
(0.000188843 0.000103397 0)
(-4.31756e-07 -1.52958e-06 3.3223e-22)
(0.000363843 0.00132831 -1.90548e-22)
(-7.04142e-07 -3.84875e-07 4.75111e-22)
(-0.000646115 -0.000284235 -1.76573e-22)
(-6.60535e-05 4.8931e-05 1.90658e-22)
(-2.18985e-07 -1.58498e-07 -3.50117e-22)
(-2.29476e-07 -5.19228e-07 2.50113e-22)
(-1.56316e-06 -5.40574e-06 4.70315e-22)
(-1.02193e-09 1.26512e-08 2.27257e-22)
(-5.68452e-07 -2.14663e-07 -1.61904e-24)
(-2.95212e-06 -2.2163e-06 0)
(-1.33245e-06 -6.52562e-07 -1.08711e-24)
(0.000354374 -5.51238e-05 -2.99626e-22)
(-2.39845e-06 -9.00961e-07 0)
(-9.62965e-05 -0.000420844 0)
(-3.03718e-07 -5.29952e-07 0)
(-0.000147965 0.000404352 -6.78028e-22)
(-0.000449411 -0.00146367 0)
(-2.09332e-06 -5.62492e-06 -3.6115e-24)
(-8.65998e-10 1.08012e-08 0)
(-0.000433427 -0.000126164 4.92475e-22)
(-5.18965e-07 -5.41217e-07 1.76266e-22)
(6.77552e-06 0.000116812 0)
(-4.56269e-08 -2.56454e-07 -3.98182e-22)
(-5.56941e-09 -6.18405e-08 0)
(0.000378914 -1.17239e-05 -3.66853e-22)
(3.57172e-05 6.44214e-05 -2.51013e-22)
(-1.13556e-05 0.00014505 -3.58297e-22)
(-1.22437e-06 1.77224e-05 0)
(-1.03508e-07 -2.29224e-06 -9.17691e-22)
(-7.91111e-07 -3.67493e-07 0)
(0.000307278 -0.000254631 3.53745e-22)
(-1.82575e-07 -2.84177e-07 4.53985e-22)
(0.00100005 0.000695306 3.73561e-22)
(0.00025704 -0.00025725 2.8822e-22)
(-1.60517e-06 6.09161e-07 -7.4421e-22)
(-2.25376e-07 -1.31019e-07 -2.9657e-22)
(-1.57024e-07 -4.87322e-07 -2.93858e-22)
(3.61807e-06 -3.999e-06 3.69512e-22)
(-2.32981e-06 -1.45771e-06 2.14555e-22)
(-1.05177e-09 -3.19197e-08 0)
(1.29618e-05 -5.22132e-06 0)
(3.43813e-06 4.26809e-06 0)
(-9.459e-07 3.24383e-06 -9.84416e-23)
(-3.34158e-08 -3.04902e-07 -1.9155e-22)
(0.000282906 -0.000424714 -2.95006e-22)
(-0.000212891 -0.000345883 -4.48048e-22)
(3.15772e-05 -6.36267e-05 0)
(-1.78022e-07 -4.84445e-07 0)
(1.08423e-06 -1.46481e-06 3.58783e-22)
(-6.06982e-07 -2.81702e-07 4.5945e-22)
(-1.28211e-06 -6.50455e-07 5.59576e-22)
(9.80466e-07 -1.85547e-06 6.36903e-22)
(0.00039607 1.77518e-05 -3.75329e-22)
(3.61582e-07 -1.57836e-06 -5.10215e-22)
(0.000344147 7.17227e-05 -2.56315e-22)
(1.22168e-06 -1.31901e-06 -8.60997e-22)
(2.80994e-05 1.28671e-05 0)
(0.000139218 -0.000279719 -1.44572e-22)
(-8.95381e-07 -8.58229e-07 0)
(-0.000133721 8.96496e-05 -3.26994e-22)
(-0.000456779 0.000772629 -8.86781e-22)
(-1.26453e-07 -1.48389e-07 -1.89647e-22)
(-5.42045e-08 7.80485e-07 2.51991e-22)
(1.768e-05 2.03609e-07 8.65965e-23)
(-2.63587e-06 -9.98677e-07 7.94342e-22)
(3.99536e-07 -1.76331e-06 1.3993e-22)
(-1.60382e-06 -1.63422e-06 -1.60387e-22)
(-8.32859e-07 -2.78279e-06 1.67837e-22)
(0.000464142 -0.00174743 0)
(-2.35048e-07 -1.23671e-07 -6.13972e-22)
(-3.43984e-06 -1.82111e-06 6.04438e-22)
(-1.33673e-07 -2.60684e-08 6.40905e-22)
(-1.17038e-06 -8.03962e-07 7.04774e-23)
(-0.00022575 -0.000455743 1.80677e-22)
(8.27482e-05 0.00026213 -2.0269e-22)
(-5.54453e-06 -4.54627e-06 -7.23767e-22)
(-9.08147e-08 -4.25001e-07 0)
(-3.07306e-07 -4.03673e-08 -6.05039e-22)
(-5.47277e-07 -2.50441e-07 8.25791e-22)
(-5.78655e-07 -1.53987e-06 5.65161e-22)
(1.14942e-07 -8.76691e-07 3.77958e-22)
(0.00011084 -0.00034106 -2.94252e-22)
(-2.00822e-06 -2.1472e-06 0)
(9.29451e-05 -9.9137e-05 -4.15672e-22)
(-0.00040543 -4.35127e-05 0)
(-3.20344e-06 1.5968e-06 0)
(6.90858e-08 -2.09496e-06 -1.11717e-21)
(-0.000240354 -0.000112821 -5.42954e-22)
(-6.85973e-07 -8.86925e-07 8.29813e-23)
(0.00029355 -0.000179648 3.10504e-22)
(-1.21792e-06 -1.23129e-06 2.92123e-22)
(-6.95164e-08 -1.51355e-08 0)
(-1.20912e-07 -5.05504e-07 -1.0061e-22)
(1.09159e-07 2.25215e-07 8.8184e-22)
(-2.75886e-06 -7.87273e-06 -1.07763e-22)
(-2.10745e-07 -4.23222e-08 2.96067e-22)
(-9.20479e-08 -1.12828e-06 -1.55723e-22)
(-3.36704e-06 -1.46748e-06 3.32526e-22)
(1.19177e-05 -3.491e-05 -5.5806e-22)
(-5.55459e-08 -1.97057e-06 9.4114e-22)
(0.00019814 9.57793e-05 4.15365e-22)
(-6.75354e-07 -8.46002e-07 -1.11054e-21)
(0.000180856 8.12279e-05 -2.36502e-22)
(1.32924e-05 -1.97889e-05 0)
(-5.28089e-06 1.10777e-07 0)
(6.70358e-06 -1.21047e-06 -7.33463e-22)
(-5.40663e-09 -3.27192e-09 0)
(-2.16879e-07 -8.13869e-07 -6.46024e-22)
(-0.000290735 -6.9791e-06 -4.6904e-23)
(0.000416987 -9.71951e-05 -5.27894e-22)
(-5.07595e-07 -9.20194e-07 -5.71992e-22)
(3.14474e-05 6.32029e-05 0)
(-7.91042e-08 -4.22957e-07 1.08936e-22)
(-4.61475e-07 -2.25802e-07 -3.6086e-22)
(-2.49275e-08 -2.86398e-07 3.43507e-22)
(-5.69755e-07 -1.57432e-06 -9.12195e-22)
(0.000433564 -0.000256952 0)
(-6.15445e-07 -4.99295e-07 2.88303e-22)
(5.3751e-07 -2.21544e-06 1.86526e-22)
(-1.0235e-06 -5.5921e-07 0)
(-1.71669e-06 -1.69798e-06 -7.49959e-22)
(-1.65462e-07 -5.07201e-07 0)
(-2.75638e-06 -2.16212e-06 -2.37104e-22)
(-1.3322e-06 -8.04396e-07 -1.56862e-24)
(-2.26296e-07 -1.38817e-07 -9.34686e-25)
(-3.70623e-08 -3.00695e-07 -3.49843e-22)
(-2.51467e-06 -1.12845e-06 0)
(-3.49542e-06 -1.1691e-06 0)
(0.000241197 0.000707172 -1.38763e-22)
(-0.000210249 -0.000145299 2.14101e-22)
(-1.23668e-07 -1.43684e-07 1.87968e-22)
(-1.02254e-07 -2.70316e-07 2.80258e-22)
(-6.88822e-08 -1.03366e-08 4.64615e-22)
(0.000190591 -0.000347211 0)
(-6.9688e-08 -1.00905e-06 -4.08301e-22)
(-4.59816e-06 -4.79647e-06 9.39389e-22)
(-5.41404e-05 0.000208378 -1.02658e-22)
(-7.35466e-07 -2.85912e-06 3.34723e-22)
(-1.74809e-06 3.17527e-07 3.35521e-23)
(1.46885e-06 -0.000523468 1.98745e-22)
(-4.57356e-07 -5.88438e-07 -7.81335e-22)
(-1.7361e-07 -2.72356e-07 4.80738e-22)
(-4.97283e-08 -1.50428e-08 0)
(-1.02929e-06 -5.52128e-07 -6.33143e-22)
(1.28526e-05 -2.55807e-05 -1.54355e-22)
(-2.12752e-07 -1.58046e-08 0)
(-4.00576e-07 -1.79673e-07 0)
(-0.000122983 0.000871534 -5.30727e-22)
(-3.57755e-05 -4.41754e-05 0)
(1.86769e-08 -1.1482e-06 -6.24737e-22)
(-1.17618e-06 -5.04236e-07 3.36146e-22)
(-0.000373934 -0.000369152 -3.46815e-23)
(-0.000217494 0.000324512 7.96851e-22)
(-7.4237e-06 1.02977e-05 -2.71545e-22)
(-1.01854e-06 -2.1057e-06 -9.27796e-23)
(-2.5722e-06 4.27006e-07 0)
(0.000137586 -0.000691428 0)
(-3.65452e-06 6.83789e-07 0)
(-0.000238408 0.000183991 -1.16806e-22)
(-6.12932e-05 0.000743117 1.03432e-21)
(0.000118503 -3.33784e-05 4.31298e-22)
(0.000286069 -0.000212482 -9.20605e-22)
(-4.91534e-07 -1.51076e-06 -5.25522e-22)
(-4.92413e-07 -2.94234e-06 -5.36352e-22)
(-3.1135e-05 0.000195806 -8.68939e-22)
(-1.17958e-07 -1.3155e-08 0)
(-0.000563709 9.35577e-05 -4.72058e-22)
(-1.40522e-06 -6.41309e-07 0)
(-8.03844e-11 -3.33554e-09 -3.98623e-22)
(0.000198922 0.000136627 4.64515e-22)
(2.93767e-06 -3.70554e-06 0)
(-2.50339e-06 2.25243e-06 0)
(0.000369031 -6.32218e-05 2.82464e-22)
(4.20313e-05 -7.92726e-06 -6.05406e-22)
(-2.88062e-07 -5.0594e-07 3.05765e-22)
(0.000159489 -0.000338055 -3.27683e-23)
(-1.91823e-07 -2.06356e-07 0)
(-3.70006e-07 -1.26685e-06 7.11668e-24)
(-1.34135e-06 -3.56217e-07 -9.50724e-22)
(-1.57761e-06 -1.06109e-06 6.34542e-22)
(1.13822e-08 -5.95538e-08 0)
(-0.000194744 0.000232605 0)
(-0.000150661 8.59792e-05 -1.81371e-22)
(-4.94083e-06 -8.70462e-06 4.35196e-23)
(-0.000255764 -0.000111463 0)
(-8.083e-07 -1.94487e-06 -1.83583e-22)
(-1.76597e-05 6.8665e-05 0)
(0.00048577 -0.00800275 3.43532e-22)