/*--------------------------------*- C++ -*----------------------------------*\
| =========                 |                                                 |
| \\      /  F ield         | OpenFOAM: The Open Source CFD Toolbox           |
|  \\    /   O peration     | Version:  v2012                                 |
|   \\  /    A nd           | Website:  www.openfoam.com                      |
|    \\/     M anipulation  |                                                 |
\*---------------------------------------------------------------------------*/
FoamFile
{
    version     2.0;
    format      ascii;
    class       volScalarField;
    location    "200";
    object      ddt0(k);
}
// * * * * * * * * * * * * * * * * * * * * * * * * * * * * * * * * * * * * * //

dimensions      [0 2 -3 0 0 0 0];


internalField   nonuniform List<scalar> 
14804
(
-3.08995e-05
-1.98547e-11
2.23384e-07
-6.26614e-10
-7.62355e-10
-1.97627e-08
-1.28124e-10
4.25449e-11
1.24552e-08
2.21574e-15
0.00014679
4.66167e-08
1.45435e-10
-1.62017e-09
-1.87471e-06
3.22429e-05
-6.8158e-10
-5.42234e-10
4.16802e-06
-1.36816e-09
1.09768e-10
-1.04826e-10
-2.59249e-07
-1.24082e-10
-2.24647e-06
-1.28017e-10
4.07175e-12
-6.49422e-10
-5.09432e-05
-1.63274e-10
-2.64538e-10
1.14427e-07
-2.66308e-09
1.73548e-10
-1.43728e-07
-1.33605e-10
-2.77947e-05
-6.278e-13
-0.000570109
2.56315e-09
2.13442e-07
-1.07134e-07
1.82609e-06
-3.31586e-11
-6.36024e-10
6.15116e-12
1.18539e-05
-9.59761e-12
-7.97115e-11
5.79206e-05
1.00171e-10
-1.37804e-10
-2.1079e-11
-1.09144e-10
-0.000198635
1.39256e-06
-1.72972e-05
-6.50683e-05
2.16001e-10
-1.68198e-11
6.59083e-06
4.25596e-11
-5.76352e-11
-5.77119e-06
-4.8751e-11
-2.58073e-11
-5.27691e-11
-1.06245e-10
-5.8105e-13
-1.48854e-05
-3.05554e-10
2.17511e-10
-4.54832e-05
6.55107e-06
-2.67423e-10
-1.11729e-05
-1.28576e-05
-1.84176e-11
-6.66925e-07
-8.45231e-11
9.24108e-06
-1.80554e-11
-8.24992e-11
-2.63029e-10
-7.25369e-13
1.75405e-07
-1.799e-11
-1.8303e-10
-1.62688e-11
-6.16487e-10
-7.25093e-10
-3.58252e-11
-7.25747e-08
-3.09613e-10
9.26646e-05
-1.7906e-05
-5.29821e-05
-2.40049e-07
-1.02267e-10
0.000599677
-6.75116e-05
2.40189e-05
5.25303e-13
-2.13308e-09
2.04495e-06
5.98053e-06
2.66992e-07
8.23565e-06
8.07685e-11
-2.74365e-10
1.12234e-11
-3.58085e-05
-9.1554e-08
1.30913e-05
-2.66843e-05
1.12092e-05
1.06216e-05
-7.32449e-10
-1.11049e-13
-5.90835e-10
-1.89077e-05
-1.53493e-11
-1.79596e-10
1.44778e-09
4.45895e-10
-3.76639e-12
-4.14565e-06
-1.96386e-09
-2.34824e-07
-4.04806e-10
-2.21575e-10
-3.27176e-06
1.54369e-05
5.53205e-05
0.000196818
1.07021e-09
-3.30715e-11
0.00428233
-1.90852e-10
4.09889e-09
-8.39281e-12
-2.1203e-05
-2.30923e-10
-6.67348e-06
1.05394e-05
-5.92439e-13
1.2859e-06
8.7901e-11
-1.68225e-06
1.32213e-06
2.92426e-08
3.6282e-06
3.02524e-09
-2.12571e-09
-8.36339e-11
-5.74683e-05
1.32854e-09
0.000287122
-2.92312e-06
-1.2306e-05
-5.69092e-12
-1.84584e-12
6.69607e-06
3.08005e-07
-3.0401e-10
-5.13051e-05
1.02775e-11
9.39833e-06
-1.75801e-10
2.84164e-11
-9.53004e-05
-4.57801e-11
-1.7965e-08
-4.65316e-07
0.000277078
0.000263804
2.2446e-07
-7.14079e-09
-3.0399e-11
-2.08582e-05
-4.12869e-08
6.73349e-05
-1.33933e-10
-2.40683e-08
-2.85341e-11
1.47333e-05
-1.14608e-09
2.8085e-07
-3.73609e-10
-5.89463e-11
2.48986e-06
-2.35233e-05
-6.49726e-11
-0.00660803
-6.01508e-06
-3.00868e-11
3.51982e-05
-1.04179e-10
6.20876e-08
4.74192e-06
-1.0009e-05
-5.95237e-11
-2.13124e-10
1.356e-07
1.97349e-10
-7.37466e-06
1.23338e-09
0.00205577
-1.48629e-09
-1.18942e-10
-1.73503e-10
1.65013e-06
-1.06137e-10
-5.55345e-12
-3.8922e-11
-1.89057e-10
-2.25641e-09
-5.18346e-11
8.33489e-11
-3.01003e-11
-3.49463e-09
5.41775e-08
7.77809e-08
-2.94365e-11
-1.6191e-10
-0.00147795
-4.82847e-09
1.51895e-05
1.63528e-05
-1.37022e-10
-2.93278e-10
-2.02865e-10
1.07805e-10
-9.13704e-06
9.35647e-06
-1.38797e-12
6.97758e-12
-6.91859e-07
-3.90982e-07
-9.65325e-11
-1.22877e-05
-1.71953e-06
-9.39812e-11
-3.04154e-11
-9.96668e-11
-1.65822e-06
-3.1858e-10
-3.15683e-10
-2.02961e-07
-2.62167e-10
-0.000866038
-2.5981e-11
-3.81701e-12
-1.75838e-11
6.77082e-05
2.59266e-10
-5.10523e-11
-2.32916e-10
-3.04015e-10
1.34833e-11
6.16143e-05
-3.81751e-10
-3.20431e-07
-1.53024e-10
-0.00229347
-1.52008e-10
1.17106e-09
-9.30953e-11
-8.88802e-06
-2.64722e-06
5.59483e-05
6.76479e-05
-3.52512e-13
-5.69082e-10
3.52977e-06
3.97005e-06
-1.79261e-10
1.24473e-05
-9.34502e-07
7.94878e-07
-7.48904e-07
-5.01763e-12
6.10115e-06
6.0938e-06
1.27908e-05
-0.000935839
-1.79997e-06
-1.74413e-10
-1.48253e-09
9.81372e-07
-5.50577e-11
-1.47674e-10
-1.40841e-10
-2.42611e-10
-2.01213e-09
-0.00140325
8.6866e-07
-3.89065e-08
-5.06828e-11
-8.17404e-10
-5.80512e-11
-1.44096e-11
-4.86428e-08
-6.40796e-09
-8.30806e-07
-1.33703e-10
0.000422452
2.14586e-05
1.89358e-07
6.49738e-06
4.40949e-06
-2.41965e-10
-4.37195e-11
-9.99892e-11
7.63714e-05
-3.69647e-11
5.54707e-05
1.22313e-05
-6.37986e-11
-0.000620902
-1.44454e-07
1.52925e-05
3.23508e-06
-4.7092e-06
-3.13643e-10
7.5677e-11
7.81155e-06
-4.62437e-10
0.00565255
-1.69748e-06
-2.0605e-09
-1.66866e-09
-2.37309e-07
-6.47614e-12
1.67142e-11
-2.5949e-10
-1.20096e-11
-8.25691e-06
-8.53043e-12
1.76239e-07
-5.49976e-11
-2.09336e-10
-3.22464e-10
1.57555e-10
-2.94929e-10
-2.23745e-05
2.5083e-05
-2.22175e-05
-1.14417e-07
-1.41285e-05
6.69923e-06
-2.32229e-10
1.3674e-12
-8.86058e-11
8.30765e-13
-5.73978e-07
-8.68882e-11
3.21592e-06
-1.35594e-10
-4.34973e-12
1.73372e-11
4.40207e-07
-1.12142e-08
-8.58784e-09
-3.84318e-05
1.22743e-05
-1.88063e-10
1.70398e-10
2.50512e-08
-1.59432e-11
-1.51545e-10
2.95597e-10
-7.7989e-08
-1.64178e-10
-1.55727e-11
-0.001157
-9.72399e-11
-6.48212e-11
1.95902e-05
-0.000164988
-0.00926854
-5.86199e-10
-1.08689e-07
1.12098e-05
-3.3651e-10
-1.92109e-11
1.3396e-05
2.69102e-12
1.24225e-12
3.90687e-05
1.15413e-08
-2.12937e-10
3.50047e-11
-1.3091e-10
-9.49049e-06
-1.66995e-10
0.000110852
-1.43336e-09
6.88411e-05
2.16871e-10
5.47206e-07
4.24594e-12
-8.0639e-07
-0.00100722
-1.08901e-09
4.3902e-11
2.10588e-05
-1.71544e-10
-5.27403e-09
-1.61248e-11
-1.55296e-10
1.41902e-07
-0.00381981
-4.97336e-15
-2.22129e-10
0.00092589
1.94394e-11
-5.44393e-10
-1.29439e-10
-3.91689e-05
4.20516e-07
3.55803e-08
-2.36729e-10
-6.34719e-06
6.71628e-11
1.61151e-09
-3.55695e-05
-4.21105e-07
3.09136e-10
-2.68397e-10
-1.82787e-10
-1.19229e-10
-0.00076226
1.96218e-13
-1.24246e-10
-5.04523e-11
-5.35566e-11
-1.75571e-05
-5.65476e-11
4.4296e-11
3.56997e-09
1.27861e-05
-1.20703e-10
-1.49776e-10
-3.44443e-11
-1.61064e-10
1.12726e-05
0.000255005
-3.10859e-06
-1.82959e-10
-2.54615e-05
-1.5087e-10
-2.32204e-10
1.10478e-11
-2.28185e-10
-3.76633e-11
-3.99214e-10
0.000670846
-2.43769e-10
5.99332e-12
-0.0226647
-3.5768e-11
-6.2142e-05
-1.44984e-05
-1.49695e-09
0.00106041
-6.14235e-10
2.40498e-05
2.94984e-08
-8.51221e-12
-1.05811e-12
2.33483e-08
-1.13629e-10
-1.07056e-10
1.3438e-05
-5.48792e-10
-1.1538e-11
-5.39339e-10
-8.067e-06
-1.79271e-05
-1.30332e-09
-5.47335e-10
-1.08611e-10
1.98498e-08
-3.04311e-10
5.26347e-11
1.10805e-05
-3.51462e-11
-1.21277e-10
1.25475e-09
1.34491e-09
-2.23149e-05
6.93023e-09
-8.18065e-11
1.15647e-09
1.02773e-11
-4.80275e-11
4.33445e-06
-2.02601e-10
-4.56259e-11
7.58898e-07
4.28283e-11
-7.21244e-12
5.4244e-09
-8.54303e-05
-1.14881e-10
-8.26786e-12
-1.73627e-11
-1.77012e-10
-2.55802e-06
-2.20143e-10
6.61151e-11
0.00500295
-5.17936e-11
-5.54559e-11
-3.59798e-05
-1.54997e-12
0.00169008
-7.615e-11
1.62121e-06
3.87718e-06
-1.13689e-05
-1.72058e-10
-5.58747e-11
-1.20883e-09
-1.67452e-10
-6.97733e-11
-2.48104e-11
-2.89394e-11
5.91366e-10
-2.58857e-10
1.68818e-09
-7.82212e-10
-2.24703e-10
9.55744e-06
3.57943e-09
-0.000135239
-6.51716e-11
-8.01425e-11
4.89356e-09
-3.20865e-11
3.52907e-10
-2.0473e-06
-7.97815e-09
1.26959e-05
-2.20087e-05
-2.09265e-12
-1.01566e-05
9.64723e-08
-2.43878e-10
-1.20948e-11
5.07313e-05
-5.27195e-05
-7.96302e-11
-5.48631e-12
-1.06213e-11
6.11699e-06
1.78236e-07
3.40005e-06
-1.56167e-05
-2.07766e-12
-1.11588e-08
1.60941e-06
-0.000411852
1.51219e-09
-1.52279e-10
-2.01899e-10
-2.13697e-10
3.90452e-07
-3.52956e-05
-1.05872e-09
7.72242e-07
-6.57675e-11
-8.62824e-12
-2.44993e-10
4.49725e-10
-1.68515e-11
-1.69851e-07
2.00425e-12
4.85282e-06
-1.43346e-06
7.31555e-11
7.32508e-07
-2.13537e-10
-1.9075e-11
-2.49085e-05
-1.9483e-10
5.29612e-06
-1.68117e-11
-2.45063e-10
-4.64511e-11
-2.12611e-14
-6.11613e-11
-5.56892e-10
-4.06309e-06
-1.70095e-05
-3.54981e-11
-2.09137e-10
-4.9534e-10
-2.55848e-07
-3.19451e-08
2.9104e-10
-2.46929e-10
-0.00013821
-5.27812e-11
-0.00181262
-1.21012e-10
-3.95232e-05
-1.71543e-06
-1.70062e-11
-3.98775e-11
2.37216e-07
5.61295e-11
-7.22149e-11
1.9259e-09
-2.10313e-10
2.53239e-06
4.24563e-08
2.0895e-05
-5.42916e-11
-0.000128831
0.00399348
1.69304e-07
-3.89849e-10
6.97669e-06
-7.07591e-11
-5.19194e-05
9.72206e-12
-2.75945e-10
1.87771e-06
-1.92433e-07
-0.000149173
-8.10624e-09
-1.96372e-10
-1.39585e-10
-1.10163e-05
-1.63162e-11
-0.00513474
0.00100815
-5.49246e-10
-1.6583e-11
-1.12932e-11
-2.44966e-11
-2.26391e-10
-2.82905e-12
5.09418e-08
-1.02777e-06
-1.33229e-09
-3.57445e-10
1.28971e-05
-5.13026e-05
5.79857e-05
-1.94529e-12
6.1267e-10
-8.46664e-11
-1.90167e-10
9.17908e-08
-8.72202e-06
2.43168e-07
-7.44351e-06
5.11826e-08
-2.59108e-07
9.58469e-07
-1.15759e-10
-4.04935e-05
-0.0105575
-7.33581e-12
-6.41099e-10
-2.39716e-07
-3.44494e-10
-1.6553e-07
-1.17181e-10
1.27454e-09
0.0187922
-1.77542e-11
-3.72558e-09
-1.00703e-11
-1.19306e-10
-4.01979e-05
4.01467e-05
2.69749e-07
8.5664e-12
-3.48966e-11
-7.16813e-11
-9.21759e-11
-1.78327e-08
4.59908e-05
5.28945e-08
1.70052e-05
3.86515e-06
1.42634e-07
-1.84348e-10
8.82179e-06
-5.92767e-11
1.21178e-05
-1.31772e-10
-3.85121e-12
-2.05727e-11
-4.21535e-10
6.21799e-08
-1.57949e-11
6.43043e-10
-6.99107e-10
-2.67038e-07
-2.41092e-10
1.53247e-06
-6.09098e-11
-2.08313e-07
-7.26923e-09
-1.2032e-09
-1.80065e-09
-6.13032e-14
-3.04015e-11
1.20771e-05
6.57786e-06
-6.60944e-12
-2.14872e-07
6.17006e-12
-5.43253e-11
-1.71293e-10
-5.78602e-11
5.94232e-06
-9.64139e-11
3.80007e-08
-2.30555e-10
-1.04446e-10
-1.40671e-11
-1.07984e-08
-2.00587e-10
-1.69076e-11
1.23765e-11
4.9027e-08
-3.46219e-09
-0.00281064
-4.27052e-05
-6.25014e-12
2.59603e-12
-4.17194e-12
-3.87177e-05
7.64519e-10
2.97749e-07
3.48355e-06
-8.10099e-10
-4.591e-10
-6.14372e-05
-4.68453e-11
-1.18839e-11
-1.27916e-12
-2.39801e-10
-7.194e-07
-9.41684e-11
-4.1916e-11
0.000585787
-2.33362e-07
-9.24569e-10
-3.07602e-10
-3.01638e-05
-2.2092e-05
-5.1696e-09
-1.64102e-10
-5.4237e-10
-2.27646e-05
3.3927e-07
0.000129937
-0.000610268
-1.54106e-07
7.5686e-06
-4.67509e-11
-4.20774e-09
-4.08719e-05
-1.34696e-11
-0.000250995
-2.22016e-10
-2.51623e-14
-9.01277e-06
1.58225e-10
-2.30261e-06
1.82467e-06
1.72997e-07
-5.36798e-11
-3.21377e-05
-1.71907e-11
-3.66199e-11
-2.21011e-10
-1.78016e-10
-7.85143e-11
-1.09665e-06
-3.77762e-05
1.70804e-09
1.26474e-07
-1.18688e-10
9.01464e-08
0.0237687
-4.28946e-09
-3.46207e-05
-2.23733e-10
-1.13717e-11
-7.88361e-11
-1.12942e-11
3.03543e-11
2.04243e-06
-7.25012e-10
1.31178e-05
-2.65446e-06
-9.74756e-11
-8.20057e-09
-5.28417e-08
-1.94126e-10
-1.17068e-10
4.85855e-05
1.0392e-05
-1.52536e-10
9.08204e-08
-8.15325e-11
-7.97302e-12
-8.19786e-09
-1.05497e-10
-6.32315e-05
-3.36554e-06
-2.53509e-05
0.000149979
-2.18773e-10
2.57425e-06
-3.59088e-13
-0.00578404
4.30787e-07
-2.55764e-10
-2.44781e-10
1.01004e-05
-3.74963e-12
3.67466e-08
-1.44439e-10
1.73509e-06
4.66327e-08
-4.75417e-11
-9.55302e-11
-2.83024e-10
-5.09997e-11
-1.69774e-10
0.00445222
-7.88821e-11
-2.43201e-10
5.10373e-10
-3.75732e-11
-5.0991e-06
-2.63125e-07
-3.18994e-11
-4.02229e-11
-4.57494e-11
1.12616e-06
-2.09526e-11
-3.50273e-12
-1.07296e-06
0.00372377
-1.3954e-12
-1.32503e-10
-6.7528e-09
7.08532e-06
-1.46991e-11
-3.10736e-10
-1.73525e-10
-2.36083e-07
-4.48688e-11
-7.79616e-06
-8.56146e-09
-6.36826e-10
0.000322833
-0.000448842
-2.44871e-10
-0.000155703
-5.45283e-11
-3.35073e-05
-1.16732e-10
-2.39064e-10
-7.09623e-11
-1.15944e-11
-1.01353e-05
-1.89161e-10
2.93983e-05
-6.44235e-12
2.7573e-08
7.63214e-06
4.27585e-05
-3.80222e-06
-2.73947e-10
6.14771e-06
-8.76333e-16
-7.69768e-11
5.18219e-10
0.00223923
1.33949e-11
-2.15577e-05
-2.19481e-08
-6.39622e-11
-6.82374e-10
-1.61345e-12
-3.83592e-11
2.82977e-11
-7.45526e-11
-3.40389e-12
4.11507e-07
-8.30304e-11
-3.77349e-09
-1.83227e-10
0.00271175
4.57546e-11
-0.00733237
-9.93645e-11
7.44381e-07
1.11804e-09
-4.38648e-07
-1.68306e-09
-2.86542e-07
-3.04259e-10
3.40782e-11
-1.22572e-09
-5.14787e-10
5.61057e-07
1.50924e-10
-6.26958e-11
-5.15397e-11
-2.20458e-05
-8.44699e-08
-1.2368e-09
-2.02655e-10
-9.36632e-12
1.05714e-06
-8.46163e-08
-5.09375e-05
9.62324e-06
-4.87595e-07
4.21753e-09
7.31338e-06
-1.24162e-10
-2.25016e-14
-3.10951e-06
-4.38576e-10
-2.62042e-05
3.1389e-08
1.11355e-10
-1.76843e-10
4.06336e-08
-7.46764e-11
1.16076e-06
-3.09903e-10
-2.27171e-08
-1.08271e-10
3.97259e-08
-5.38599e-13
-0.0138228
-2.56693e-10
-1.43265e-10
5.84903e-07
-3.49586e-07
2.88748e-06
7.43426e-06
2.11265e-08
1.25414e-05
1.99113e-08
-8.65337e-08
1.15045e-05
1.57425e-09
-2.642e-06
-8.59243e-12
-1.40524e-10
5.74582e-08
2.12931e-06
-3.57751e-09
-3.36775e-10
-4.18507e-11
1.28228e-07
-1.98483e-10
-6.11946e-07
-4.82291e-06
-1.45875e-11
-8.02009e-12
-1.67493e-11
-2.74382e-10
0.00792669
-7.00157e-11
-4.27552e-06
-0.000200863
3.19286e-05
-9.15077e-10
-2.2519e-10
3.64505e-10
-0.001364
-3.99097e-11
-0.0175833
5.09464e-09
-9.79429e-10
-2.51419e-12
-2.64181e-11
-1.69336e-09
-5.13642e-09
-0.000677097
2.77674e-05
2.89958e-07
-7.72474e-11
-3.32102e-13
-1.49625e-11
4.89123e-06
9.75114e-08
-0.0328931
-2.35375e-10
-1.41663e-06
2.53061e-06
3.83124e-08
-1.09096e-10
-2.16544e-10
-5.41424e-11
-2.04356e-10
-3.85289e-06
-3.46175e-09
-9.75536e-11
2.33517e-07
0.000702577
-3.82341e-10
7.85632e-09
3.19388e-09
-8.16886e-12
0.000534381
-1.17968e-10
-1.33436e-09
-2.30783e-12
-7.00049e-09
1.05517e-09
-1.0777e-11
-5.99669e-06
-1.42414e-10
-1.02726e-06
-4.75376e-11
-8.06165e-11
-9.63529e-11
-6.66064e-05
-8.72376e-05
-5.20902e-10
6.011e-06
-1.42446e-07
-3.0737e-12
-1.96567e-10
-1.29269e-11
-4.39456e-05
8.15477e-06
1.08658e-07
-8.42069e-05
7.59161e-11
-1.71398e-10
-3.85441e-06
-2.11891e-10
1.83718e-11
0.000222489
-7.89839e-09
-1.16576e-10
-2.0311e-06
2.12394e-07
-4.94627e-05
-2.04936e-10
-1.44648e-06
-3.3916e-10
-0.000249875
6.10038e-05
-2.58337e-11
-1.74674e-10
-1.26112e-06
7.37843e-07
-2.6412e-09
-2.75456e-10
-4.75279e-05
-2.28638e-05
-1.87223e-10
4.41302e-08
-7.03397e-11
-7.14299e-12
-0.000655575
1.55936e-11
1.89354e-09
-2.80037e-10
3.60174e-06
3.83448e-11
4.20938e-13
-9.86957e-11
-1.65453e-07
-3.22302e-11
-1.18917e-06
-7.62736e-06
9.34962e-08
0.000899375
-8.5266e-11
-7.35641e-11
-1.43071e-10
9.86102e-12
2.32979e-08
-2.73378e-10
4.02353e-06
-6.90997e-10
4.42403e-11
-8.54441e-08
-1.52162e-10
-2.25693e-10
-2.17217e-10
0.000174418
5.63065e-06
9.29518e-05
-6.67805e-12
1.51916e-09
-3.45973e-06
-4.41531e-12
-4.89577e-11
-2.19054e-10
4.81941e-05
-2.74699e-05
-2.11016e-10
2.27439e-07
2.95457e-09
-1.5078e-10
-2.27579e-10
-2.88804e-11
4.82451e-07
3.23644e-08
1.3039e-09
-5.76694e-05
-0.0136204
3.58986e-11
-4.85649e-10
-5.28059e-08
-4.91415e-12
1.64427e-09
-1.76156e-10
-9.88617e-08
-1.90278e-10
-3.85807e-06
2.86042e-06
-1.25033e-10
1.80952e-12
-1.82377e-10
-1.51753e-10
-2.66701e-08
-2.75661e-11
-1.44739e-10
-2.3503e-10
6.63368e-07
9.2433e-12
1.5151e-05
5.51742e-10
-8.68433e-13
-0.000148421
-6.83953e-10
-2.06903e-12
-4.74174e-07
9.46464e-06
0.000406474
-5.05217e-12
-1.60695e-05
-4.78939e-11
-1.75186e-11
-1.60853e-10
-6.03345e-10
-1.25652e-10
1.95736e-07
3.38114e-10
-2.07467e-10
3.34761e-10
-9.97076e-11
1.61719e-05
-1.01363e-07
1.26356e-05
0.000104175
-1.11817e-11
5.32093e-05
4.1501e-09
-1.19107e-10
-2.59515e-10
-3.97942e-07
-2.38998e-06
-3.18293e-10
-1.07457e-05
7.57233e-05
0.000116031
-2.23518e-08
-8.02616e-12
-1.08295e-09
-2.66196e-10
-1.466e-10
-9.11903e-11
-9.34259e-08
3.78409e-14
-2.57892e-11
5.70897e-11
-1.57759e-05
-1.97539e-06
-4.20975e-05
1.01537e-05
-1.26108e-09
-1.81382e-11
-6.98982e-06
0.000242697
1.99558e-07
-5.56223e-11
-3.05221e-10
-2.69531e-11
-3.53098e-10
-1.2827e-10
6.1274e-07
-1.71305e-10
7.48217e-09
6.464e-06
-1.46508e-10
-1.43026e-10
3.87402e-07
1.25123e-07
7.87478e-13
1.9181e-05
-2.38049e-10
-2.68214e-05
-1.52483e-11
-3.38957e-06
1.39291e-05
-3.87331e-07
-1.87193e-09
-5.18918e-11
-2.84404e-10
-1.08506e-12
3.58734e-12
-1.14258e-10
0.00970563
4.08737e-05
-1.9429e-10
-1.89304e-06
-1.03857e-07
-2.19148e-10
-5.5777e-12
0.0119976
-1.2263e-10
-0.00207074
-2.22679e-07
-1.86342e-05
-4.26115e-09
-1.35544e-12
-1.22257e-10
8.18694e-05
-1.61647e-10
-3.38446e-11
-1.89329e-10
1.18018e-06
-1.19193e-10
-4.28571e-13
3.15813e-06
-6.62045e-08
3.47585e-05
2.26737e-05
7.2347e-05
-1.19316e-10
-1.71691e-10
-1.17054e-06
-8.16894e-11
-3.61256e-11
-2.66049e-11
2.88197e-05
1.08089e-05
-3.28622e-10
-5.68507e-10
5.35829e-06
-1.85008e-11
-3.00616e-09
2.20938e-05
-2.55952e-13
-1.18674e-10
-1.55171e-08
6.85822e-08
-7.67431e-09
-2.30071e-06
4.10502e-07
-5.21493e-10
-1.4125e-10
-5.06296e-11
5.70156e-05
-2.1234e-11
-2.32262e-05
-4.24808e-11
-2.17264e-05
-5.33602e-10
-3.28522e-10
3.36598e-11
3.81411e-10
-7.70996e-06
4.35161e-05
0.000191557
1.20486e-09
-1.72625e-12
4.72339e-09
3.55941e-10
5.37732e-08
2.27035e-05
-7.45755e-11
-4.85245e-08
-2.253e-10
-4.18121e-11
-2.32698e-10
2.92622e-05
-1.71313e-07
-1.61596e-12
-1.83089e-10
-5.92366e-09
2.48119e-10
-1.53462e-06
-0.000195654
3.42777e-06
0.0106261
-2.05204e-10
1.49283e-07
-5.30072e-11
-1.12952e-05
-7.34594e-11
-2.04591e-10
2.03317e-05
-2.27849e-10
3.59674e-05
-1.67759e-11
-6.95206e-08
-1.99901e-08
7.02431e-15
-4.6747e-06
1.19156e-05
4.86818e-10
-1.11179e-05
-3.69923e-05
-6.96362e-06
-2.08713e-10
0.00028537
7.42616e-13
-8.49059e-11
4.32535e-07
-3.10217e-05
-1.85672e-10
-2.0862e-13
-1.27037e-10
3.51317e-11
-3.02384e-10
-1.04579e-12
-7.7299e-05
6.76124e-05
-1.77002e-12
-4.98344e-06
5.15011e-10
9.97947e-10
-2.78916e-05
7.86069e-06
-9.25553e-11
-3.99254e-11
1.30413e-07
1.19989e-05
-2.2749e-10
-0.000895326
-1.38449e-10
-5.94436e-11
-1.76178e-10
-1.02967e-10
0.00178997
-1.48057e-10
-5.90497e-05
-2.68285e-06
-1.26292e-10
-3.21976e-09
-4.74531e-11
2.02594e-08
-2.12984e-12
-3.48889e-11
1.35524e-05
-0.000153149
8.52905e-12
3.75411e-07
-3.57025e-11
1.55057e-05
1.87771e-06
-2.8507e-10
-2.18781e-09
1.34102e-05
2.79468e-06
5.8515e-05
-1.94783e-11
1.40813e-10
1.28043e-05
4.67683e-05
-3.57903e-10
-5.5131e-08
-1.04873e-05
2.0228e-07
-2.40824e-10
1.2542e-05
-6.21339e-08
-4.27349e-06
5.4747e-05
2.39022e-10
-3.60373e-11
-2.46838e-10
0.000105237
-2.09098e-10
-5.91067e-11
-2.24531e-05
-2.76978e-11
-8.26513e-12
2.22298e-13
-1.95098e-07
-4.25293e-13
2.03133e-05
2.01665e-11
6.97609e-08
-4.45977e-10
2.419e-07
-2.07139e-10
-6.33089e-08
-2.46304e-10
-7.64556e-07
-9.14778e-06
-0.00350256
-6.76448e-11
4.02254e-06
-2.34543e-10
1.07855e-06
-1.80796e-10
-1.28595e-07
-1.5416e-11
-2.89798e-10
-2.63127e-11
1.62999e-06
-1.35642e-05
1.01674e-10
-1.31434e-11
-2.03462e-10
-1.75218e-07
-1.64772e-10
-5.9679e-10
-2.33728e-05
1.01572e-10
-4.09976e-11
7.61657e-06
-0.0171332
2.02394e-10
-0.000234538
-1.84409e-12
-4.74796e-11
5.84716e-10
7.40029e-10
1.69471e-11
-3.60368e-12
-8.18075e-11
-3.60009e-10
-6.06639e-11
-2.07335e-07
-9.60425e-11
-3.22958e-05
-9.3718e-06
-9.41892e-10
8.62572e-07
-1.11002e-10
-1.30589e-10
-3.60087e-06
0.0029204
1.99234e-05
-1.31585e-11
5.83e-10
-1.21576e-10
-1.56629e-10
-5.20366e-06
2.04565e-09
-1.70539e-05
-7.13822e-11
-2.06675e-10
-9.40802e-12
-2.67424e-10
7.82916e-05
8.27688e-09
-1.69023e-10
6.86368e-13
-2.93529e-10
0.0139836
1.99895e-07
-9.56851e-12
-0.000352272
0.0160412
-0.00294815
5.76844e-08
3.974e-09
-1.36994e-07
-2.08833e-10
-2.96702e-10
-3.55624e-13
-1.7284e-10
0.0179312
-3.81675e-08
-2.63305e-07
-3.00109e-10
1.48924e-06
7.59978e-06
2.3755e-10
-1.48683e-10
-7.07142e-12
-3.34747e-05
-1.6565e-10
-1.41491e-09
-3.60082e-10
-3.44372e-11
1.93614e-10
-2.92386e-10
-2.16793e-10
3.04551e-11
-2.48479e-05
1.29817e-05
-1.2436e-10
-1.33701e-06
-5.72955e-12
-5.0866e-11
-2.99205e-11
-1.51436e-05
1.59802e-11
-1.74171e-06
-2.55782e-10
9.16755e-11
-1.54347e-10
-1.06703e-11
3.07707e-05
1.52145e-10
4.04301e-08
2.17406e-05
-1.65602e-05
-9.30093e-11
8.6245e-09
-1.19874e-10
-1.22256e-10
-2.21463e-11
1.41746e-10
6.31353e-11
-1.01952e-07
-1.42502e-10
-0.00114219
-1.6048e-10
-2.16717e-12
-4.27874e-11
2.51182e-08
4.82249e-10
-1.33242e-10
-1.88608e-10
-2.91222e-10
-5.61178e-11
-5.75187e-11
2.17398e-10
-2.63948e-10
-0.000291183
3.15726e-12
1.19297e-08
-2.13978e-05
2.74807e-06
-3.96326e-11
6.04489e-06
-1.40725e-07
-2.04091e-05
-3.22137e-05
5.68188e-05
1.94876e-06
-1.19689e-10
6.06101e-05
-4.64839e-11
-5.71011e-11
2.7998e-06
-2.70612e-05
2.6236e-09
-0.0119097
-3.98306e-11
-9.97848e-11
-3.18464e-06
-3.72686e-07
-5.78803e-06
7.0798e-05
-7.1843e-07
-3.98745e-11
-1.16601e-05
6.29134e-11
0.000146507
-1.81902e-13
-4.47448e-08
-7.7479e-06
-1.91279e-10
-4.81159e-08
-3.82385e-11
-6.88028e-13
-9.36291e-08
-2.3906e-11
8.89841e-06
-4.74188e-10
2.86639e-12
-2.83792e-06
4.87623e-06
-2.13324e-10
-4.11035e-06
3.0723e-11
-2.52575e-10
-2.92469e-06
-7.09963e-05
2.70167e-11
-1.51402e-11
-6.15347e-10
-1.9282e-07
1.82148e-11
3.9983e-05
8.34634e-06
-8.83234e-07
-3.99726e-06
-2.96965e-12
1.8246e-07
-1.20591e-10
2.95326e-05
8.25831e-11
-1.7596e-05
-2.95796e-05
-2.34279e-07
-6.57572e-06
-2.95922e-12
-2.61243e-11
-5.18143e-11
2.34152e-11
4.59311e-13
-6.43427e-10
-2.71458e-05
-8.98173e-11
-7.79523e-10
8.94205e-05
-1.39195e-05
8.6605e-06
1.94485e-05
-1.6407e-10
-1.72596e-11
-6.51443e-10
1.79694e-10
1.55841e-05
-7.03246e-10
-1.25404e-10
-1.24204e-05
8.92255e-06
-5.4351e-11
-1.13067e-10
-5.55092e-11
-3.64376e-06
-9.66483e-09
-1.01663e-11
-3.65868e-11
1.59213e-10
7.94284e-11
-6.21039e-12
-9.96363e-11
-6.90872e-07
-5.47076e-11
0.000146431
-9.29818e-08
2.19765e-10
-1.80725e-10
-1.23431e-10
2.00568e-10
-2.36977e-07
2.75892e-10
-4.66935e-12
-7.41944e-08
-4.38038e-05
-1.62366e-11
-2.92883e-08
-1.94147e-10
-6.21939e-08
-1.26897e-05
-4.80521e-11
1.71967e-07
9.93581e-12
0.00144494
-3.73283e-11
6.26884e-06
-0.00623649
2.08822e-05
3.55328e-05
0.0002792
-8.04518e-07
-0.00139371
4.88692e-05
-1.13033e-10
-1.19037e-05
-1.74115e-11
3.24845e-06
-1.40738e-05
-1.26916e-07
-3.81978e-11
-2.06749e-10
-2.49081e-10
1.53627e-05
-1.23166e-06
-1.16763e-10
-1.96801e-10
-1.4914e-11
-1.40098e-07
4.97897e-07
-3.55898e-10
-8.26474e-09
-5.01036e-06
-3.29507e-11
1.42944e-07
-1.74381e-10
-4.72635e-11
-1.11789e-10
-2.03854e-10
-3.11689e-06
-1.16156e-05
3.46589e-05
-3.3678e-06
1.79928e-05
8.33178e-07
-0.00401339
0.000874904
2.65043e-05
-2.421e-05
-1.39258e-10
6.1141e-08
-2.69376e-13
5.26184e-11
-1.7262e-10
1.01338e-09
1.0001e-10
-8.22929e-11
-0.00538529
-1.85503e-10
-2.47784e-10
-2.36512e-10
-3.2572e-10
-1.30607e-11
-3.31011e-07
1.64634e-10
-2.30104e-10
-2.10997e-07
-1.55282e-09
-3.62636e-06
6.62262e-10
-1.2001e-10
-1.80693e-10
-4.04453e-05
-0.000959919
-3.04525e-10
-1.51058e-06
-2.05654e-10
-7.77224e-08
8.23256e-11
-2.7897e-10
-2.42223e-10
3.20687e-05
-3.35661e-10
0.000104672
2.35291e-10
0.00392871
8.30381e-05
-2.61486e-05
-3.11787e-05
-1.09832e-11
-2.45242e-10
-3.48004e-05
-1.08823e-09
-2.43689e-07
8.74153e-05
1.07574e-10
-2.83564e-11
-2.15281e-11
-5.21728e-11
-7.23715e-08
-9.21227e-06
1.28102e-08
-5.5329e-11
-1.48127e-10
-5.9945e-13
1.74783e-07
3.5773e-05
-5.50677e-11
-6.82397e-09
-9.71859e-09
-2.98459e-11
-7.5098e-08
5.52455e-06
9.6246e-06
0.000331547
-3.50312e-12
-6.97713e-09
-1.41007e-06
2.4176e-07
-3.07e-10
-4.07099e-08
5.88904e-06
-1.9088e-10
-4.03416e-11
-1.05383e-10
-2.88493e-11
-1.54233e-10
-3.50212e-06
-4.68169e-11
1.37496e-10
3.77319e-09
-4.35694e-10
-4.49504e-06
-3.74031e-10
-1.08411e-10
9.1166e-11
3.94573e-07
-2.91523e-10
-9.83803e-06
-1.88646e-10
1.78696e-10
-1.79215e-07
-9.06059e-10
-1.94323e-11
-7.3965e-11
-7.614e-10
-1.49571e-05
-7.01779e-10
-2.355e-10
4.6831e-08
2.20005e-07
-1.20724e-10
-8.69251e-06
4.03092e-06
4.84608e-10
1.49806e-12
5.82786e-11
4.88691e-06
-5.6312e-05
-1.34125e-09
-3.27666e-08
-4.16141e-11
-4.02155e-08
-2.1614e-11
-2.16828e-10
-1.07918e-06
-1.96298e-10
-1.41568e-08
2.00293e-10
-1.52313e-05
-2.26001e-08
-1.58899e-12
1.46493e-07
-1.97412e-07
-2.09726e-10
-1.43925e-08
-7.00294e-13
8.35633e-10
0.00351151
3.96534e-06
-0.00298426
-3.0511e-08
2.57251e-05
1.93234e-06
-1.88547e-08
8.06775e-12
9.13788e-11
-1.54085e-09
-2.29376e-07
-8.356e-06
-3.47047e-10
-2.14097e-10
-2.80019e-10
-4.72099e-05
-1.28601e-07
4.0658e-05
-1.78958e-10
-1.64539e-10
7.10662e-06
-8.34708e-05
-2.28981e-11
-2.08802e-10
-1.60188e-10
2.04252e-10
-2.16827e-07
-2.20134e-10
-1.58177e-10
-4.43866e-10
8.12083e-10
5.83503e-05
-1.47753e-10
-2.016e-10
1.61767e-05
-4.50397e-11
1.22916e-07
-6.04009e-11
3.03705e-10
-4.87099e-06
-2.19122e-10
1.18792e-09
-2.10031e-11
-9.06281e-11
-4.7185e-07
1.61927e-11
-9.38958e-11
-4.6837e-11
-1.20144e-10
3.20364e-07
-2.78047e-10
-1.99973e-08
-4.32424e-12
-2.47355e-11
-6.59613e-12
1.15594e-05
-5.42765e-06
3.40638e-10
-2.35926e-06
-3.64581e-10
-3.70838e-11
-2.37412e-10
0.0151391
5.86499e-11
4.8984e-10
-1.17303e-10
1.59555e-06
-3.50793e-13
1.25157e-08
2.14378e-10
-1.89077e-10
8.93528e-06
-4.92216e-11
-1.81838e-10
3.3132e-06
-3.74249e-10
-1.1846e-10
-3.9523e-11
3.81197e-10
0.00152878
-3.9446e-05
-1.46238e-11
-2.08951e-09
-9.74158e-11
-2.05188e-11
-1.79274e-11
1.22358e-09
-2.59958e-08
5.04845e-09
-2.07074e-10
-3.62186e-10
-6.15782e-10
-5.65975e-06
-5.05617e-10
5.06332e-05
-3.04801e-06
-4.87541e-11
6.00504e-06
2.42827e-05
3.16889e-05
-1.17267e-09
4.06917e-10
1.05152e-12
-1.86064e-10
-4.49757e-10
-1.35799e-05
1.05691e-05
3.85699e-10
-5.82399e-05
3.8317e-11
-2.13979e-10
-3.66043e-08
3.6921e-10
-1.98795e-10
-5.47227e-05
-0.000260814
-7.0765e-11
3.09472e-11
-8.07745e-10
-1.02902e-11
-4.68819e-10
-8.91859e-09
0.00603727
-2.01119e-10
-9.94853e-11
-1.21507e-10
2.24544e-07
3.43678e-10
6.81492e-07
5.88405e-10
-1.13136e-06
-1.24883e-07
-7.75715e-08
6.12529e-08
-1.31981e-05
-6.14965e-07
-3.39673e-08
-8.38964e-07
-4.14009e-05
-3.48982e-10
0.00237592
-6.25059e-11
-3.26929e-09
-6.48031e-12
-2.22606e-11
-3.78221e-07
-5.04768e-11
-1.53326e-08
-0.000161805
-1.31703e-09
-4.14e-10
0.000121132
-1.00439e-09
1.22561e-08
1.13276e-05
-2.3582e-11
-0.00124243
4.1712e-07
6.25239e-12
-0.000126932
1.44622e-06
4.62807e-07
4.75e-08
1.55349e-06
1.1343e-07
6.94441e-12
-6.20048e-08
1.61876e-09
1.26379e-05
-2.26332e-07
5.07702e-10
-1.36075e-09
-4.47255e-10
1.13216e-08
-1.90161e-07
0.000161836
-6.31808e-05
-1.92213e-10
-1.45587e-10
-1.01645e-10
4.12721e-05
1.58667e-10
2.07375e-10
1.29938e-10
0.00312118
1.51423e-10
2.31857e-10
-9.88864e-10
-2.01862e-10
3.25872e-11
2.23076e-10
4.56238e-07
-5.74755e-12
7.21797e-06
-3.40861e-12
-1.79989e-11
1.50103e-07
4.01598e-10
-8.20782e-05
-2.18568e-12
9.16904e-11
5.80422e-05
3.27415e-10
1.84926e-11
-1.02356e-05
-3.2003e-06
-2.429e-10
-3.19277e-06
-9.84221e-11
-1.69771e-10
-5.13934e-06
1.06562e-09
0.00100243
7.23074e-06
-3.38364e-09
-6.29265e-10
-7.19238e-10
-6.50734e-11
1.90255e-11
-1.92887e-10
-1.61703e-09
-5.32903e-06
-8.82741e-05
-2.1363e-08
-1.01942e-07
-2.71216e-11
-6.46494e-11
-1.0778e-10
-0.000119607
-3.79382e-10
-2.1299e-10
-4.86998e-11
4.32081e-11
1.04572e-06
-8.46973e-13
-6.22642e-11
-3.55776e-06
-4.30725e-11
-2.23114e-11
-4.0979e-11
-1.87195e-10
-1.40807e-10
-6.3805e-05
1.13469e-07
1.69113e-11
-6.6924e-11
3.12117e-09
-2.10559e-10
-2.0272e-10
-4.07802e-06
0.00210508
-0.00015696
-1.18327e-11
1.31914e-07
-1.28038e-05
-2.35206e-05
1.41246e-05
-0.00804122
-1.88937e-10
-4.05282e-12
-6.90082e-05
-1.03692e-09
-1.7318e-05
-2.0831e-10
-6.44072e-11
-1.98807e-10
1.01886e-10
1.63088e-05
-6.13276e-05
-2.49852e-10
-5.03864e-10
-6.42537e-06
-5.52781e-11
0.00400306
1.20276e-05
-2.0671e-10
-4.73953e-08
1.7788e-05
-1.66577e-11
1.11578e-06
-2.01264e-05
-1.22454e-10
-3.10365e-12
-9.97391e-05
-1.11608e-10
-1.97261e-10
4.25958e-12
-0.0107758
1.3577e-05
-4.16695e-11
-9.36046e-10
-4.67023e-11
3.36977e-07
3.7473e-06
2.92451e-10
-4.13165e-11
7.13229e-05
-3.41907e-06
1.46408e-05
-7.94595e-11
-5.54376e-11
-1.04918e-10
2.92265e-09
-1.45402e-09
-4.51872e-10
-2.23029e-10
2.57274e-10
-4.16923e-06
-5.92002e-09
-5.41111e-11
-9.48986e-05
-5.96164e-10
-2.2636e-10
-1.12614e-09
-1.02854e-10
1.13647e-11
-1.70649e-07
1.1008e-09
-1.99693e-05
-1.51339e-08
-9.14907e-10
-3.55051e-06
1.10785e-07
-2.37716e-07
-5.01246e-05
1.39975e-07
-5.30871e-06
1.08093e-09
-8.67813e-05
-1.82972e-05
-1.48454e-06
5.18822e-10
0.000193163
1.64855e-07
-1.40459e-10
-1.95648e-10
8.56024e-09
6.69267e-08
-8.3796e-08
4.16965e-05
1.02453e-09
-4.32088e-11
6.62791e-08
-3.72882e-11
4.95725e-13
-1.47933e-10
-5.58718e-08
-6.49411e-07
-4.01536e-10
2.99897e-06
-2.32809e-10
-1.85923e-10
-1.20739e-11
-3.91664e-11
-1.48202e-08
-2.09044e-10
1.86911e-09
-2.10665e-10
-1.55014e-11
2.06371e-07
-2.37294e-11
2.52444e-10
9.31465e-09
-1.86379e-10
-2.11528e-05
-1.6641e-07
-8.46273e-05
-5.66203e-10
-2.07557e-10
-1.27126e-10
2.52353e-07
-3.34536e-11
-0.00113462
-4.50325e-05
-2.06582e-10
8.81239e-11
-3.58571e-05
-3.37511e-07
7.00445e-07
-1.50936e-05
-5.90929e-11
-1.32601e-10
-9.92731e-11
-0.000582642
-1.83721e-10
-3.27019e-12
-9.6759e-10
-9.11466e-10
4.03529e-06
1.12296e-05
0.00640227
-8.37422e-08
-1.22949e-10
0.000156058
-2.60203e-10
-2.63735e-10
3.13865e-12
-1.99515e-10
-2.99835e-08
5.33303e-09
-3.10944e-05
-2.54709e-10
-3.99434e-10
-1.41776e-10
-3.16968e-11
-6.07779e-06
-1.16541e-09
7.61454e-11
3.85198e-05
-0.000841498
9.92896e-12
-3.50876e-11
1.34658e-10
1.31814e-05
-3.52797e-11
-1.26486e-09
3.65091e-10
-3.5874e-11
-2.87592e-07
8.09626e-07
-1.9737e-10
-0.000620203
-6.86995e-11
2.54618e-07
-7.35269e-10
-9.02912e-09
-4.4777e-08
-1.21789e-10
-1.24529e-05
1.58852e-07
-8.86094e-11
1.56967e-10
2.47093e-10
-5.80535e-11
7.20789e-10
4.54918e-10
1.49492e-06
-5.01878e-11
-0.0191775
-1.68357e-11
2.98569e-08
9.3289e-10
-5.00403e-11
6.5384e-06
1.35321e-07
-1.11048e-10
-1.11715e-08
-5.59579e-11
-2.02564e-10
-9.6725e-12
-1.17611e-10
-4.04383e-10
-1.06072e-09
1.27772e-09
-1.09745e-10
1.95427e-07
-1.58284e-07
4.05468e-08
-7.03936e-09
-2.37033e-10
-2.23977e-10
-2.26706e-11
-8.22401e-08
-2.08378e-11
-1.18441e-10
2.15531e-07
-2.812e-07
-1.70299e-11
-2.67847e-11
2.65395e-12
-5.43636e-08
3.84489e-11
1.09098e-10
1.62628e-06
-3.14359e-10
-0.000791657
-2.56512e-08
-1.10013e-10
-1.20388e-06
0.000873799
-3.02368e-13