/*--------------------------------*- C++ -*----------------------------------*\
| =========                 |                                                 |
| \\      /  F ield         | OpenFOAM: The Open Source CFD Toolbox           |
|  \\    /   O peration     | Version:  v2012                                 |
|   \\  /    A nd           | Website:  www.openfoam.com                      |
|    \\/     M anipulation  |                                                 |
\*---------------------------------------------------------------------------*/
FoamFile
{
    version     2.0;
    format      ascii;
    class       volScalarField;
    location    "200";
    object      ddt0(omega);
}
// * * * * * * * * * * * * * * * * * * * * * * * * * * * * * * * * * * * * * //

dimensions      [0 0 -2 0 0 0 0];


internalField   nonuniform List<scalar> 
14804
(
0.00215022
-1.68202e-09
9.69297e-05
-2.95859e-07
2.63076e-08
8.54972e-06
-9.64512e-08
4.20829e-10
0.000315079
-1.29254e-13
-0.258021
5.32181e-05
-3.27703e-09
-1.05839e-06
-0.00929592
0.00175935
-3.70704e-07
-3.22066e-07
0.00780844
-1.19825e-05
-1.30308e-10
-8.21002e-08
0.000429317
-3.25437e-08
-0.00609458
-3.38555e-08
-1.01856e-06
-1.02644e-06
0.00130977
-3.66746e-08
-2.09579e-08
-1.08307e-06
-5.9027e-06
1.70721e-05
-3.75263e-05
-9.69108e-08
-0.0201769
5.60381e-11
0.062766
-3.30959e-06
0.00017329
-2.93815e-05
0.0257664
-2.1627e-09
1.69759e-06
-1.1518e-08
0.17501
-9.06713e-09
-8.01858e-08
0.00839112
6.27822e-09
-1.1617e-08
-4.7825e-10
-1.08651e-07
0.0115503
0.00101153
0.0727195
0.00136139
2.6751e-09
-1.40606e-08
-0.00132202
4.0193e-09
-4.03192e-09
-0.000444229
-3.1206e-09
-2.33388e-10
4.9705e-10
-6.41075e-08
-4.66015e-11
-0.00190952
-2.87947e-08
-7.05007e-07
-0.0589376
0.00214347
-6.52951e-08
-0.00186786
-0.00201146
-1.4438e-09
-0.000443223
-6.31913e-09
0.000274913
-5.97111e-10
-6.62845e-09
-6.52654e-08
-5.45859e-12
-0.00505601
-1.2875e-09
-7.17373e-08
-1.24979e-09
-6.33886e-07
-7.74375e-06
-4.7367e-08
-9.48403e-05
-2.48152e-08
0.00838353
-0.00292934
0.00152331
-9.4942e-05
-2.58903e-08
0.873052
0.00168836
-0.00178229
-1.4396e-11
-1.20058e-06
0.00261192
-0.00207664
-1.09437e-05
-0.00586911
-1.60761e-10
-2.18422e-08
4.91283e-10
0.00237461
-5.58724e-05
-0.00145712
0.0021034
-0.000152992
-0.00599832
2.57151e-06
-1.69619e-11
-3.32159e-07
-0.00172871
-1.18162e-09
-6.10988e-08
-2.70854e-06
3.57849e-09
-3.14348e-11
0.00120859
-1.11892e-07
-0.00106329
-1.99808e-06
-2.1346e-06
0.00219102
-0.00210852
-0.310572
-0.0127407
-3.68167e-06
-1.63893e-09
1.51012
-4.62557e-08
9.13173e-06
-7.81685e-10
-0.00754742
-2.15579e-08
0.0026404
-0.000846167
-4.146e-11
0.00272477
2.21214e-10
0.217316
0.00214094
0.000269577
0.00614162
-6.752e-06
-1.45653e-06
-6.25984e-09
0.00225254
-8.54137e-09
0.0753118
-0.000815997
0.107185
-4.53809e-10
-1.35667e-10
-0.00240395
0.000643716
-1.54933e-07
0.00255458
-8.87599e-09
-0.00309174
-5.71691e-08
4.81391e-10
-0.0132143
-7.311e-08
0.00036377
-0.000911104
-0.00481576
-0.193337
-0.00218288
2.76608e-05
-2.7408e-09
0.0799619
-5.90463e-07
0.00288283
-8.1849e-08
-0.000143528
-3.75893e-08
0.00246371
-1.00649e-05
-7.71247e-05
-2.3278e-07
-4.57973e-09
0.0269368
0.618697
-1.47863e-08
1.2024
-0.0118785
-2.80596e-09
0.00172531
2.8504e-09
-1.54983e-05
0.00269586
-0.00104829
-4.59289e-09
-1.23734e-07
0.000354607
3.00104e-07
-0.00017542
4.08114e-08
-1.04988
-3.27796e-06
-5.61141e-08
-5.57496e-08
0.00044346
-7.44772e-08
-4.13471e-10
-3.9924e-07
-4.97082e-08
-2.63947e-07
-4.32555e-09
7.05928e-10
-1.87899e-09
-2.29462e-06
1.90209e-05
3.70802e-05
-4.48176e-08
-1.59249e-08
-1.66902
6.98708e-06
0.0136655
-0.00222614
-7.31778e-08
-2.2925e-08
-1.01318e-07
-1.60529e-11
-0.00118552
0.00213462
-2.96367e-11
-1.00231e-08
-0.001432
-0.00455683
-1.28417e-07
-0.00172754
-0.00138095
-1.40481e-08
-1.72798e-09
-7.97441e-09
-0.00814289
-2.4927e-07
-1.42504e-07
-0.000528048
-2.30333e-08
-0.0121867
-2.48293e-09
-3.09487e-10
-1.35032e-09
-0.000992868
-1.06003e-08
-3.92017e-09
-1.27928e-07
-2.69953e-08
6.19552e-11
-0.00564151
-2.35284e-07
-0.00158505
1.80577e-09
0.692681
-3.69268e-08
2.94841e-08
-7.36956e-09
0.0020392
-0.00198696
0.00218201
0.00992454
-1.64897e-11
2.554e-09
-0.00469839
-9.35042e-05
-8.0172e-08
-0.00116867
-0.000927635
-0.00197873
-0.00151268
-3.83811e-10
-0.00207601
-0.00139718
0.000472129
2.68524
-0.00455639
-7.11373e-08
-1.35799e-05
-0.0156134
-4.33366e-09
-3.57323e-08
-8.38195e-08
-6.56485e-08
2.92893e-05
-1.3361
0.0134872
0.000192985
-4.33372e-09
-8.4068e-06
-4.29387e-09
-1.125e-09
-7.2824e-07
7.75649e-06
-0.00283873
-5.64954e-08
0.169993
0.000318845
0.00381928
0.0014444
0.0025292
-6.60979e-08
-4.9948e-08
-1.2019e-07
-0.00119649
-7.16229e-08
-0.0105701
-0.113471
-4.87927e-09
0.0234114
-0.000658381
-0.0181051
0.0142757
0.00246006
-6.54918e-08
-1.01175e-05
-0.00844268
1.83538e-09
-0.688106
-0.000332573
-1.69742e-06
-1.05181e-06
-0.000374767
-4.82386e-08
-1.9403e-10
-2.00874e-08
-9.57036e-10
0.00241642
-1.03724e-08
0.000443169
-5.68111e-08
-4.32858e-08
-3.91663e-07
7.83964e-10
-2.42198e-08
0.00149772
0.000880602
-0.00253351
-0.000118513
-0.000679832
-0.000611051
-1.25809e-07
-2.74332e-10
-6.83996e-09
-1.0489e-08
-0.0015246
-2.71589e-08
0.0057985
-1.0559e-08
-3.45488e-10
-1.01431e-08
0.00671639
-8.02716e-06
-0.00250107
-0.00428245
0.00143473
-7.28907e-08
-5.52652e-06
8.05595e-05
-6.84186e-10
-1.02177e-07
4.0262e-10
0.00015593
-5.58608e-08
-1.1893e-09
-0.0352855
-7.56652e-09
-1.13244e-08
-0.00203333
0.96995
-1.67816
-5.53877e-07
-8.83446e-05
0.000251865
-2.76236e-07
-1.35334e-09
0.00213683
-1.03869e-08
-2.87914e-11
0.00462507
1.45397e-05
-1.65798e-08
-1.00638e-08
-1.23335e-07
0.000922292
-8.07832e-08
-0.0328452
-8.45293e-07
-0.01503
-1.35867e-09
0.001664
-3.70431e-10
-0.00541241
0.0140909
3.46299e-06
3.69804e-09
0.011717
1.80298e-09
-1.36302e-07
2.02693e-10
-1.69365e-08
-3.15296e-07
0.0538688
-2.35593e-12
-6.02232e-08
-0.240053
2.14184e-09
-3.01646e-07
-4.627e-08
0.00213363
-0.145906
4.69327e-05
-1.85321e-08
0.00205082
-1.53898e-08
-8.15418e-09
-0.00348978
0.000412193
-1.08537e-07
-2.06393e-08
-4.91763e-08
-1.00943e-08
-1.52938
-1.19762e-10
-2.04001e-08
6.76057e-10
-4.16678e-09
0.00105165
-4.27383e-09
-9.9733e-09
-4.38424e-07
0.000339979
-9.34236e-09
-3.84042e-08
-2.68927e-09
-1.82396e-07
-0.000582323
0.0556888
-0.00731735
-5.36011e-08
-0.00267516
-1.00741e-07
-4.91881e-08
-4.96651e-10
-2.00745e-08
-5.00517e-09
-5.29037e-08
-0.0156183
-9.43611e-08
-3.90145e-10
-0.80481
-2.67963e-09
-0.357179
-0.0130637
-1.29104e-06
0.0787636
-3.93396e-07
0.00140211
8.01725e-05
-2.73701e-10
-7.88003e-11
-2.28602e-06
-1.86731e-08
-8.35549e-09
-0.00118401
-3.16268e-07
2.16204e-09
3.06691e-06
-0.000244413
-0.000868539
-2.13761e-06
-3.32683e-07
-1.11612e-07
2.16007e-05
-6.64182e-08
6.53733e-08
-0.00053514
-3.0486e-10
-9.45388e-09
1.79465e-05
-4.42171e-07
-0.186691
3.67867e-05
-6.35877e-09
-2.34913e-06
3.04536e-10
8.84375e-10
-0.00377654
-8.67632e-07
-4.7717e-09
-0.000311936
-1.00656e-08
-6.20096e-10
3.16062e-05
0.00234277
-3.07151e-10
-2.36884e-10
-1.2695e-09
-1.61119e-08
-0.00136283
-3.2587e-10
-9.25735e-10
0.0150352
-7.76947e-09
1.40032e-07
-0.00181328
-1.92375e-10
2.15371
-5.6703e-09
0.00303822
-0.00349844
0.322745
2.78681e-09
-1.66163e-09
-7.40875e-07
-7.17168e-08
-5.32949e-09
-2.4193e-08
-2.19018e-09
-3.48518e-05
-1.99479e-08
8.88986e-06
-9.7269e-07
-5.80402e-08
0.00087859
-4.42249e-05
0.00390322
-5.11325e-08
-6.39908e-09
0.000756517
-3.30647e-10
-1.20505e-07
-0.0366453
3.96865e-06
0.00551209
-0.00236091
-1.47214e-10
-0.0101918
-0.000295143
-1.04768e-07
2.97164e-09
0.00616488
-0.00551195
-6.31422e-09
-4.19641e-10
-8.27305e-10
0.00373717
0.000502043
0.00158494
-0.00109992
-1.60306e-10
-2.77513e-05
0.0183295
0.190411
-6.46525e-08
-1.5688e-07
-2.3582e-07
-1.74158e-08
0.00243992
-0.003149
4.147e-06
-4.70215e-06
-5.09248e-09
-6.77883e-10
-2.40912e-08
5.89981e-06
-1.29723e-09
-0.00234488
-1.09803e-11
0.00376969
0.110754
-1.41359e-06
0.0067807
-1.744e-08
-1.81033e-09
-0.00282593
-6.8467e-08
0.00207859
-1.28593e-09
-2.46076e-08
-3.67444e-09
-1.44782e-12
-3.02191e-05
-6.85406e-07
8.04745e-05
-0.000728402
-6.57749e-10
-4.1368e-08
-4.02547e-07
-0.000356706
-0.000468728
-2.26445e-05
-2.05332e-08
0.0532944
-4.6076e-08
-0.0855657
-9.16486e-09
-0.322756
0.0021513
-1.31627e-09
-2.26811e-09
-0.000147237
-1.91674e-09
-5.62339e-09
-1.93083e-05
-4.53965e-08
0.000175091
-4.05875e-05
-0.946507
-4.09914e-09
0.263018
0.6369
9.45504e-05
-4.68319e-09
-0.00294825
-5.44587e-09
-0.00133527
-3.95137e-10
1.71395e-09
0.00113245
-7.82773e-05
-0.0425266
-1.86188e-05
-1.50401e-05
-1.07825e-08
0.00306537
-1.01083e-09
1.24628
0.674421
-3.01446e-07
-1.27413e-09
-9.72175e-10
-6.55454e-07
-6.85857e-08
7.09324e-11
-0.000175752
-0.0071798
-1.5417e-06
7.76579e-10
0.000349211
0.00262798
0.0154708
-9.30818e-10
2.80415e-05
-6.75904e-09
-4.12063e-08
0.000328023
0.000176145
4.47245e-05
-0.00130584
2.47388e-05
-0.0114237
0.00266744
-2.12528e-08
-0.00427231
-1.40031
-5.79036e-10
-4.89819e-07
-0.00190081
-2.31352e-07
-3.85462e-05
-1.0684e-07
7.13441e-05
0.654554
-1.37503e-09
1.65682e-06
-7.54673e-10
-3.49371e-08
0.00158879
-0.000171034
0.000178407
6.70721e-11
-2.38232e-09
-5.54943e-09
-4.54611e-08
0.0019574
0.00469347
6.84744e-05
-0.02338
-0.00539945
5.93094e-05
-2.58226e-06
-0.00345275
-1.30147e-08
0.00155744
1.36972e-07
-2.72103e-10
-7.61638e-10
-3.4459e-07
-2.36655e-05
-1.23705e-09
1.5671e-07
6.30647e-07
0.000215003
-4.21903e-07
-0.00249037
-1.12801e-08
-0.00137968
-7.71173e-08
2.61368e-06
-1.56479e-06
-6.34455e-12
-6.46502e-09
-0.000597653
0.00172456
-7.30858e-09
-0.000257256
-5.69209e-11
-4.17356e-09
1.30254e-09
-4.69367e-08
0.00107186
-7.38895e-09
0.000421795
-2.00407e-08
-1.20861e-07
-7.61628e-10
-4.4015e-05
-6.53918e-08
-1.27523e-09
-1.12546e-09
-0.00012067
2.09143e-06
-0.52682
-0.0290749
-4.9421e-10
-4.14267e-10
-3.157e-10
0.00226752
6.93356e-06
5.68708e-05
-0.000625482
-2.98579e-05
-2.76743e-07
0.00245025
-3.8174e-09
-8.0138e-10
-8.46255e-11
-2.02958e-08
0.000129258
-8.0393e-09
-3.23272e-09
0.530883
-0.000613044
-6.76447e-08
-2.62142e-08
0.00194889
-0.0035814
2.55616e-05
-2.58269e-07
1.43622e-09
-0.000120983
7.88229e-05
0.0281953
1.34369
-0.000171089
0.00124942
-4.29838e-08
-7.40396e-05
-0.0292488
-9.21276e-10
-0.339441
-6.10663e-08
-1.90537e-12
-0.00208518
-4.44212e-07
-0.0142541
0.000474034
0.00697444
-3.97773e-09
0.00221024
-1.33402e-09
-2.1983e-08
-1.26701e-07
-4.57153e-08
-4.36318e-09
3.15804e-05
-0.00319061
5.12544e-09
0.000465724
-1.20733e-08
0.00207017
-1.26182
3.87143e-05
-0.000681672
-6.20978e-08
-7.87689e-10
-5.66279e-09
2.02882e-09
-4.52146e-10
0.000861026
-3.89514e-07
0.00118637
0.0193199
-7.79207e-09
3.35431e-05
-3.28059e-05
-1.81646e-08
-3.6435e-08
0.0018828
-0.00118786
-3.41774e-08
1.37256e-05
-1.31894e-08
-6.64314e-10
-9.81258e-07
-1.06999e-07
0.00265053
0.00757404
-0.00354392
0.0284486
2.79901e-07
0.00257547
-1.62668e-11
-0.131055
0.000577525
-2.24459e-08
-2.4734e-07
-0.00101062
-1.02716e-09
0.000422426
-1.12701e-08
-0.000853452
0.000515592
-2.61833e-08
-2.65018e-08
-2.20516e-08
-3.75286e-09
-1.53599e-07
-0.0671017
-6.03004e-09
-2.26465e-08
-5.40797e-08
-4.63963e-09
0.000150857
0.000159639
-2.01344e-10
-3.24454e-09
-3.62915e-10
0.00250603
-8.4762e-09
-2.75999e-10
-0.00217644
-2.44494
-1.14568e-10
-1.02001e-08
1.50025e-05
-0.00195445
-4.48644e-10
-3.54285e-08
-1.65883e-08
-0.000524102
-3.44915e-09
0.00115899
2.56944e-05
-4.0198e-05
0.0518688
-0.143909
-2.1723e-08
-0.291854
-4.29561e-09
0.00206971
9.70964e-07
-1.93788e-07
1.07526e-09
-5.98039e-10
-0.0014524
2.92391e-09
0.00484939
-5.82087e-10
9.99368e-06
-0.00385065
0.0036679
-0.00318735
8.85641e-10
-0.00116231
1.05198e-13
-6.14984e-09
-5.15348e-08
0.572886
-3.82029e-09
0.107398
3.97287e-06
-1.58033e-09
-6.30983e-07
-6.07514e-12
-7.43775e-08
-5.43459e-10
-5.10558e-09
-2.68638e-10
0.000890378
-9.50192e-10
5.87008e-05
-7.18673e-08
-0.0210562
-8.96309e-10
-0.496976
-7.37634e-09
0.00164289
-4.59076e-08
-0.00069276
9.10468e-07
-0.000102845
-2.37817e-07
-1.17168e-07
3.21212e-08
-3.88765e-07
0.00391818
3.40666e-08
-4.72737e-09
-3.88636e-09
0.000808251
-3.53921e-05
-5.10846e-06
-1.66364e-08
-6.42886e-10
0.000800787
-3.28724e-05
0.00215021
0.00102466
-0.000700091
-1.25679e-05
0.00248177
-9.49106e-09
-3.45693e-12
-0.00983929
3.05064e-06
-0.0322207
9.16497e-06
4.86267e-10
-1.49083e-08
0.000113537
-5.63242e-09
0.00062921
-1.05668e-07
3.07072e-07
-8.65546e-09
-0.00060788
-3.5473e-11
-0.0230305
-2.18804e-08
-1.14337e-08
8.51774e-06
-0.00122967
0.00255562
0.000673987
0.000672737
-0.000554958
0.000244914
-1.9682e-05
0.00188164
9.36161e-08
-0.00683588
-4.60466e-09
-1.08728e-08
0.000145764
-0.000715489
-2.96319e-05
-1.21295e-07
-3.22398e-09
-3.84416e-05
-3.92286e-08
-0.0008256
0.000833552
-8.87719e-10
-1.78947e-09
-9.13284e-10
7.67801e-07
7.56931
1.87371e-08
0.00126437
0.100553
-0.00198794
-9.46682e-07
-4.89433e-08
-1.01591e-09
-0.187738
-3.33134e-09
-0.953017
-3.0446e-06
-9.73155e-07
-1.73598e-10
-2.98623e-10
-1.78443e-05
6.37135e-05
-0.803684
0.00898493
0.000290865
-5.85062e-09
-1.63818e-11
-7.52788e-09
-0.000518965
0.000123598
-2.88774
2.4299e-09
-0.00196985
0.00611235
-0.000226584
8.84301e-08
-4.4634e-08
-1.12847e-08
-4.11378e-08
0.00021437
-3.34897e-05
-7.58056e-09
-0.0012821
1.4482
-3.42186e-07
2.23095e-05
1.79302e-05
-6.1412e-10
1.27642
-1.52832e-08
-1.54436e-06
9.21476e-09
4.97609e-07
-2.11243e-06
-8.19794e-10
0.00211548
2.21127e-07
-0.00106493
-3.61735e-09
-7.62746e-10
-7.34586e-09
0.00238479
0.00244317
-1.88698e-05
-0.0222479
-0.000366322
-5.49749e-09
-7.27461e-08
-6.29486e-09
-8.96383e-05
-0.00367359
0.000302738
-0.063636
-4.52546e-10
-7.73874e-08
-0.00520017
-1.3578e-07
3.26443e-06
-0.0116053
-8.54315e-06
-9.85782e-08
0.000380985
-4.31273e-05
-0.00346174
-7.64878e-08
-0.00493806
-9.7551e-08
0.211209
-0.00100776
-1.54748e-08
-1.77378e-08
-0.0026968
0.00339459
-5.79181e-05
-3.10462e-08
0.00268759
-0.00026429
-5.50742e-10
-8.09413e-05
-5.54964e-09
5.13866e-10
0.0185338
7.51986e-10
-4.24638e-06
1.02387e-06
0.00223241
-4.45733e-10
-1.02946e-12
-7.56535e-09
0.000140874
-4.87682e-08
-0.0053683
0.000651349
0.00593295
-0.310919
-6.74399e-09
-5.62482e-09
-2.41868e-08
-4.21743e-10
-6.22047e-05
-2.64313e-07
0.000968768
-9.1192e-06
-1.12019e-08
-9.28932e-05
-1.17197e-08
-2.06707e-08
-1.70577e-08
1.10091
0.00136597
-0.000959791
-9.23647e-10
-3.10118e-07
-0.00060476
-3.92119e-10
-3.53293e-09
-6.50433e-08
0.0115013
0.00105047
-4.46875e-08
9.49849e-05
2.48484e-06
-7.72256e-08
-1.58913e-07
-1.4702e-08
-0.000441546
-0.000287419
-6.19244e-07
-0.275003
7.34839
1.47872e-10
4.51785e-09
-7.53862e-05
-2.74827e-10
4.03089e-05
-7.65689e-08
-2.29583e-05
3.14764e-09
-0.000974464
0.000637233
-1.49933e-08
7.24856e-11
-3.16588e-08
-1.15863e-08
0.00199513
-2.29012e-09
6.75751e-10
-2.05728e-08
-0.000837037
-4.51985e-10
-0.0293587
-8.45226e-10
-4.68589e-11
0.047471
-1.33328e-06
-4.82311e-10
-0.00236079
-0.00104431
0.45451
-4.30011e-10
-0.00216192
-8.82152e-09
-1.34348e-09
-3.71132e-08
7.70931e-08
-6.15126e-08
-0.000456314
4.03166e-05
-5.69617e-08
8.04005e-10
-7.78815e-09
0.00150901
0.000262701
-0.000143799
-0.272238
-8.72235e-10
0.000461944
-6.46794e-07
-8.8717e-08
-2.4797e-08
-0.000377035
0.00329417
-3.66712e-08
-0.0156937
-0.0145299
-0.0151044
-1.87652e-05
-9.82434e-10
-1.39313e-06
-1.20237e-07
-3.33695e-08
-7.48633e-09
-4.77528e-05
-7.61577e-11
-2.02774e-09
-3.93454e-09
-0.000435444
-0.000188964
0.00277992
0.0163971
-9.50932e-07
-1.42934e-09
0.00531116
-0.0830057
0.000137952
-4.37197e-09
-3.68723e-08
6.366e-11
-2.46342e-07
-1.20625e-07
0.000207151
-1.2694e-08
-5.64182e-05
6.99162e-05
-7.60528e-08
-3.54397e-07
-0.00113206
0.000380635
-7.32738e-11
0.00682228
-1.8258e-08
-0.000193219
-1.1693e-09
-0.000387659
-0.00113769
0.000300146
-5.6597e-05
-3.97461e-09
-2.21105e-08
-7.7273e-11
-7.48203e-10
-8.82861e-09
-0.572702
0.00649027
-3.81952e-08
-0.018681
9.40809e-05
-1.14857e-07
1.84036e-08
3.02075
-1.50524e-07
-0.00884548
0.0026325
-0.000739758
-0.000378807
-6.33278e-12
-9.36803e-09
0.00198021
-1.25362e-08
-3.86139e-09
-2.37629e-07
0.00625014
-7.39023e-08
-2.42977e-11
0.00644925
0.00167765
-0.00881805
-0.000105905
0.00238736
-9.12966e-09
-1.39668e-08
0.000293022
-6.20787e-09
-1.41075e-08
-1.97356e-09
0.0207893
-0.0402188
-6.05726e-08
-4.17225e-07
-0.00398645
-3.66835e-10
1.73482e-05
0.161259
-2.89036e-11
-1.52756e-08
-4.76796e-05
7.61588e-06
3.047e-05
-0.000245387
-0.00852412
-4.73019e-09
-2.687e-08
-3.92012e-09
-0.000767524
-1.67875e-09
-0.00331435
-3.96663e-09
0.00203807
-2.81345e-09
-6.84264e-08
-4.85861e-08
3.30813e-05
-0.0116564
-0.000417822
-0.320749
5.72139e-07
-1.85717e-10
-3.11581e-07
5.10079e-09
7.20899e-05
-1.34285e-05
-5.89419e-09
-0.000103302
-4.59787e-08
-3.18211e-09
-4.62696e-08
-0.00207433
2.16383e-05
-3.61232e-12
-9.84479e-08
-6.46251e-06
-2.40043e-09
0.0039475
-0.0250472
-0.00012072
-1.81796
-6.08358e-08
6.42891e-05
-7.8875e-09
-0.000211277
-1.28667e-07
-4.07963e-08
-0.000124398
-1.67819e-07
0.00756109
-1.15687e-09
-0.013748
-4.94833e-05
3.27794e-13
0.00304787
-0.00111642
-2.64392e-06
0.00124834
0.00482717
-0.00302447
-2.38714e-07
-0.0514731
3.42987e-11
3.97493e-09
0.00097819
-0.000401092
-3.58669e-06
-2.07585e-11
-9.68494e-09
-7.49371e-10
-5.47054e-11
2.59741e-11
3.81618e-05
-0.00127568
-1.69516e-10
0.0453621
-9.40902e-07
-4.09863e-08
0.003662
0.000686602
-7.51486e-09
-3.79182e-09
0.000124778
0.00177312
-4.72354e-08
0.553361
-1.05193e-08
-4.57048e-09
-1.87916e-07
-7.38483e-09
-1.4211
-1.15639e-08
0.00335745
0.00189245
-6.94572e-08
-1.94271e-05
-4.08067e-08
1.39942e-05
-3.82687e-10
6.40206e-08
0.00114322
-0.168889
-4.53018e-10
-0.000677027
1.47246e-08
0.00183012
0.0192894
-2.20325e-08
9.14251e-06
-0.00112085
-0.00294289
0.16191
-1.4784e-09
-2.84506e-08
0.00121105
0.0019133
-2.22386e-07
-5.13687e-06
-0.209488
0.000135479
-9.95275e-08
0.000362118
9.55909e-05
-0.0114437
-0.390668
-1.53872e-08
1.52697e-08
-1.96879e-08
-0.000708581
-6.1723e-08
-3.22308e-09
-0.00519832
3.80537e-10
-3.01278e-09
-8.32703e-11
-0.000181552
-2.87741e-11
0.000640975
-6.32904e-10
3.51424e-05
-2.63071e-07
0.00013445
-1.03465e-07
-0.000100237
-1.71611e-07
-0.0187267
-0.00170224
-0.315494
-1.05493e-08
-0.00101076
-2.03201e-07
0.0120977
-1.85205e-07
-1.0849e-05
3.02624e-10
-2.13763e-07
-2.14948e-09
-0.00196573
-0.00593055
-9.57321e-09
-6.07554e-10
-3.95056e-08
9.53066e-05
-1.2556e-08
-4.996e-07
-0.00114274
-9.28715e-09
-4.33004e-07
-0.00211483
6.7133
-1.02168e-07
0.573633
2.91001e-10
-3.64999e-09
-4.2592e-10
-1.68767e-06
2.42956e-11
-2.88204e-10
-6.32568e-09
1.00335e-09
-4.6091e-09
0.000742297
-6.43235e-08
-0.00038139
0.00108922
5.21335e-09
-0.000540182
-1.98393e-08
-2.92099e-07
0.00147017
-1.78374
0.00111057
-1.04088e-09
7.40155e-08
-9.46858e-09
-1.19136e-08
-0.00119033
-4.68346e-06
-0.00661001
-5.71836e-09
-1.71606e-08
1.7711e-11
-1.04805e-07
0.0820929
7.23973e-07
-1.44799e-08
4.90034e-11
-5.95481e-08
0.467161
0.0154246
-1.30242e-09
0.467343
-0.677007
-0.206949
2.53232e-06
-4.33472e-05
-0.000266981
-1.59915e-08
-2.27134e-08
-2.13358e-11
-1.50021e-08
0.0809201
-0.00169442
1.69774e-05
-3.43622e-07
0.00127431
-0.00317853
-1.18002e-07
4.1343e-10
-3.68504e-10
-0.0242108
-2.7466e-07
-9.91081e-07
-3.3891e-07
-5.4454e-09
4.09851e-06
-1.40806e-07
-1.28504e-07
-1.17341e-08
-0.00405338
-0.000411344
-9.21565e-09
-0.00395338
-8.72071e-09
-3.73545e-09
-2.12762e-07
-0.00139012
-1.88345e-10
-0.000857423
-2.90015e-06
1.15878e-07
-3.42755e-08
-5.03591e-10
-0.0150792
-7.30081e-09
-0.00013708
0.000177654
-0.0003679
-7.11356e-09
-1.18967e-05
5.38272e-10
-3.08651e-08
-1.72e-09
-2.53983e-08
-2.01574e-09
-8.64193e-05
-2.00226e-08
0.185359
-8.24515e-08
-2.09786e-10
-1.40975e-07
-8.99232e-05
-9.70662e-08
-2.36369e-07
-3.85642e-07
-2.70932e-07
-4.57106e-09
-4.46138e-09
-3.40012e-06
-2.61839e-08
-0.405137
-9.34759e-11
-5.79304e-05
0.0114579
0.000797117
-3.14201e-09
-0.0109841
0.00131119
-0.00122285
-0.00131773
0.0398942
-2.15826e-05
-9.10259e-09
0.00257227
-3.73038e-08
-4.14969e-08
-0.00303431
-0.000508884
9.6267e-06
-2.31015
-3.39809e-09
-5.03106e-08
-0.0109627
0.000185349
0.000179795
0.198271
-3.14378e-05
-1.43617e-07
0.000798775
-4.11221e-08
0.315352
-1.48394e-11
-5.52567e-05
-0.00493503
-8.56381e-08
1.86629e-05
-2.91431e-09
-4.3908e-12
-2.74848e-05
3.26393e-10
-0.000528784
-4.55423e-07
-3.8437e-10
-0.00409024
-0.000917596
-1.68486e-08
-0.00021453
-3.85169e-08
-1.91199e-08
0.000381436
0.000971461
-1.06882e-08
-1.02208e-09
-3.59585e-09
-0.000176635
-3.9607e-08
0.00133601
0.000331065
-0.00115973
-0.00126255
-3.21774e-11
0.00018842
-3.19888e-08
0.000144916
-1.67566e-11
0.0212171
0.00351444
0.00404997
-0.0021496
-2.28371e-10
-2.11551e-09
-4.04766e-09
2.00056e-10
2.81743e-11
-3.34117e-07
-0.00349311
-6.63371e-08
-1.01749e-06
0.0228322
-0.00138928
0.00863441
0.000805602
-1.47199e-08
-9.53029e-10
1.16262e-06
-8.18042e-08
-7.84635e-05
-2.67716e-06
-9.67331e-09
-0.00176447
-0.0025254
1.28505e-07
-1.86686e-08
-4.08728e-09
0.00605796
-2.0182e-05
-6.98046e-10
-4.14649e-09
-1.61153e-09
2.36084e-09
1.18887e-11
-7.62448e-09
-0.000802469
-4.20785e-09
0.024063
-6.93463e-06
-1.35983e-08
-1.24477e-07
-5.97566e-08
-3.25619e-11
-0.000172596
2.8956e-09
1.77006e-11
0.000290352
0.0223467
-1.20791e-09
-0.00034126
-7.33259e-08
-6.86742e-05
-0.00376245
-3.70706e-09
0.000361912
-8.84809e-11
0.357351
3.64118e-08
-0.000732502
-4.64159
0.0221171
0.00656516
0.433464
0.000144479
0.00183603
0.00211564
-1.04204e-07
-0.00322747
-3.70424e-09
-0.00725242
0.00012276
-7.35804e-05
-3.01569e-09
-4.05089e-08
-1.89898e-08
0.00606179
-0.00894592
-8.95812e-09
-1.48694e-08
-1.1747e-09
-0.00033679
0.00198907
4.82818e-09
-2.7375e-05
-0.00107971
-2.47915e-09
0.000500458
-1.33597e-08
-4.34177e-09
-1.52674e-08
-1.7304e-07
0.00523953
-0.0172249
0.0160137
-0.00026335
0.00487121
2.05276e-05
0.663607
-0.0237067
-0.342774
0.00019177
-1.17564e-08
-6.70873e-05
-1.9048e-11
1.36138e-09
-1.49537e-09
-1.74026e-05
7.25087e-10
-4.44342e-09
-0.262401
-8.27144e-08
-1.0877e-07
-1.45456e-07
-6.0765e-07
-1.00741e-09
0.000251734
-1.15075e-08
-5.70617e-08
-0.000454541
1.04387e-06
0.000571044
-4.35524e-06
-4.57048e-08
1.45202e-06
0.00299378
0.0842807
-5.95935e-08
0.020475
-9.1019e-08
0.000278914
-9.93862e-10
-5.95099e-08
-1.02364e-07
0.000689405
-1.47973e-06
-0.589296
-1.23322e-06
0.0280552
-0.00664396
-0.00279885
0.00213124
-4.71331e-10
-1.91227e-08
-0.00297368
-6.67792e-06
-0.00506505
-0.00106986
-8.28177e-10
-2.13119e-09
-7.81656e-11
-1.52902e-08
6.91986e-05
0.0010277
0.000114988
-4.3542e-09
-1.11189e-08
-2.39952e-08
9.15935e-05
0.0544104
-5.03964e-09
3.95316e-05
3.33713e-06
-2.35188e-10
-0.000492282
-0.0038191
0.000591644
0.0507238
-2.57768e-10
8.80622e-06
0.000172592
0.000215557
-3.87915e-06
0.00304444
-0.000282187
-3.63206e-08
-3.08605e-09
-8.3219e-09
-2.14453e-09
-8.82113e-08
-0.00177929
-4.01516e-09
1.53432e-09
-8.31632e-07
-2.71737e-07
-0.000331777
-1.29969e-07
-1.47517e-07
1.54937e-05
-0.00116162
-5.47095e-08
-0.000239744
-3.44626e-08
-1.65696e-09
-0.000166747
-1.35265e-05
-1.46327e-09
-1.54539e-08
-2.68306e-06
-0.000578437
1.61745e-06
-1.3448e-07
0.000578571
0.000437884
-9.82834e-08
-0.00109706
-0.00258754
-6.61128e-08
-1.04972e-09
-1.05983e-08
0.00249737
0.0847128
-1.17345e-05
0.000163794
-3.23131e-09
5.24585e-07
-1.47813e-09
-9.88019e-08
0.000939056
-1.56067e-07
7.70632e-05
-1.72603e-08
-0.629966
-8.15649e-05
-6.40873e-11
0.00264478
-0.000219375
-4.8279e-08
-4.52521e-05
-5.56538e-11
-1.61095e-05
1.41888
0.00247163
0.424783
-5.6077e-05
-0.412875
-0.00265774
-1.39118e-05
-2.36746e-09
7.72467e-10
6.49928e-06
-0.000532783
-0.00158975
1.5582e-06
-4.26556e-08
-5.00788e-08
-0.00502578
-2.20704e-05
0.00307376
-7.62837e-08
-1.19189e-08
-0.00444437
-0.00620155
-5.75841e-09
-4.44223e-08
-1.43733e-08
-2.87287e-07
4.26376e-05
-6.46514e-08
-1.82827e-07
-2.28912e-06
-3.7528e-06
-0.000728183
-2.04274e-08
-7.09085e-08
-7.94285e-05
-3.45779e-09
-6.70468e-05
-4.69828e-09
-9.2446e-08
-0.00023981
-1.954e-07
1.59045e-05
-1.63432e-09
-7.64643e-09
-5.10567e-05
-8.56092e-09
-1.65447e-08
-4.01944e-11
7.46629e-06
-0.000656063
-2.07223e-07
-8.77117e-05
-3.29946e-10
-1.93478e-09
-1.077e-06
-0.000509582
-3.04317e-05
-7.19371e-08
-0.000473659
-2.22621e-07
-1.32544e-07
-1.19002e-07
0.671167
-2.9884e-08
2.24092e-09
-4.19132e-11
0.0107859
3.15457e-06
1.51456e-05
2.57588e-08
1.88699e-09
-0.00426496
5.38937e-08
-4.44999e-08
-0.000572832
6.07178e-07
-2.03056e-08
-3.0489e-09
-4.31792e-06
-0.108103
0.00264268
-1.08541e-09
3.42028e-05
-7.15426e-08
-1.49863e-09
-1.3993e-09
6.92709e-08
-2.05938e-06
-2.44641e-05
-1.65656e-08
-1.11987e-06
-1.70126e-05
0.000726394
-2.94131e-07
0.00411719
-0.00281331
8.18923e-08
5.13501e-05
0.178235
-0.00435029
-9.88946e-07
-5.83403e-07
-7.48997e-09
-3.14093e-08
-2.6509e-07
-0.00155681
0.0559363
-3.02779e-09
-0.00336408
4.1733e-09
4.36833e-06
0.000937443
-1.48759e-07
-3.69e-08
-0.368326
-0.0137237
-5.3642e-09
-2.22157e-10
-2.94022e-06
-1.0176e-09
-5.06295e-06
-2.67507e-06
0.379595
-8.62979e-07
-4.10866e-10
-9.13268e-09
0.000104576
2.56775e-06
6.60062e-05
9.52541e-07
-0.000273128
-1.94591e-05
-0.00343644
2.69922e-05
-0.00433736
-0.0248188
-1.41946e-05
-0.0127968
0.000819311
-1.95207e-07
1.22178
-1.51072e-07
0.00026958
-8.6515e-09
-1.75354e-09
0.000222506
-2.75808e-09
-5.19322e-05
-0.62382
-9.94934e-06
-2.43637e-07
0.00217935
-8.45005e-07
-7.44262e-08
0.00170057
-1.75001e-09
-1.69724
-0.00578524
-1.89644e-10
-0.000497754
-0.000322382
-0.00401232
-0.00012178
0.000269688
6.60492e-05
1.235e-10
1.52877e-05
1.29556e-07
-0.00155907
-0.000370265
4.93612e-06
-5.35025e-07
-2.86798e-07
5.56729e-06
-2.52699e-05
0.393728
-0.0199383
-8.41827e-08
-1.11055e-08
-4.77762e-08
-0.00818311
-3.45198e-07
-1.21288e-08
-1.18115e-07
-0.537704
5.6087e-06
3.53316e-09
-6.46601e-07
-1.55678e-08
2.13847e-09
-7.13804e-08
-0.000267788
-2.85718e-10
0.00219508
1.06308e-10
-1.3748e-09
-2.4335e-05
-1.5149e-08
0.00124369
-1.53462e-10
9.52591e-07
0.00157371
-4.50943e-07
7.01766e-10
4.22495e-05
0.00109368
-2.02326e-07
0.0374161
-6.2966e-08
-3.05072e-06
0.000699207
6.88214e-08
-0.0283165
0.00205508
9.42218e-07
-3.52212e-07
4.6087e-06
-5.1403e-09
-1.45394e-09
-1.46211e-08
-7.54252e-07
0.00578407
0.00131043
9.2284e-06
2.03361e-05
-1.09441e-09
-4.97125e-09
-4.00295e-08
-0.00627123
-1.99875e-07
-1.98546e-06
-5.51544e-08
-1.31248e-09
0.00219504
-6.16734e-11
-5.01743e-09
-0.0515378
7.21779e-08
-4.9698e-09
-3.2129e-09
-4.12261e-08
-1.21495e-07
0.00192792
0.000135185
-5.69573e-10
-5.07878e-09
-3.05891e-07
-1.16063e-07
-8.66042e-08
-9.85628e-06
3.64323
0.000118574
-7.12007e-09
-3.31578e-06
0.000415675
-0.0108404
0.02638
4.01676
-1.27782e-07
-2.38696e-10
0.00236249
-7.96453e-07
-0.00265391
-8.33817e-08
-1.17947e-08
-6.91544e-08
-9.12195e-09
0.00123677
0.00158435
-1.03343e-07
2.62757e-06
-0.00569055
-2.18748e-08
-0.593597
-0.00183531
-7.06156e-08
1.39547e-05
-0.00550061
-3.23102e-10
0.000622754
-0.000439067
-4.58459e-08
-2.41057e-10
-0.00128709
-1.53757e-08
2.38081e-10
-4.43287e-08
0.00594328
0.00125781
-3.44156e-09
-8.76223e-07
-8.65225e-09
-0.00103158
-0.00840397
2.34059e-09
-3.21868e-09
-0.00123017
0.00055032
0.000850347
-6.39923e-09
-4.19468e-09
-1.63536e-08
-3.28318e-06
-6.55948e-07
-2.86443e-07
-1.81742e-08
-6.93843e-08
0.000220164
8.62446e-05
-4.40966e-09
0.00138221
-1.80031e-06
-1.75313e-08
-2.64958e-07
7.10388e-06
-2.00836e-10
-0.000166185
3.83665e-06
-0.000442339
-2.94054e-05
-7.93565e-07
-0.00117922
-0.000757175
-0.000572378
0.00262387
0.000170832
-0.000108271
8.01822e-08
0.00455988
0.000740671
-0.000680713
-4.20891e-07
-0.0070473
0.00142633
-1.09688e-08
-5.81875e-08
2.93082e-05
1.04083e-05
-0.000228217
0.00145048
-1.1132e-06
-3.39818e-09
7.49608e-06
-2.87801e-09
-4.75344e-10
-6.278e-08
6.46067e-05
5.89832e-05
1.29979e-06
0.00367714
-4.44099e-08
-8.21636e-08
-9.3019e-10
-3.72747e-10
0.000105776
-7.15419e-08
-7.56789e-07
-4.86205e-08
6.66043e-10
0.0195119
-1.85264e-09
2.53343e-09
4.50138e-05
-1.00807e-07
-0.00273577
-3.86708e-05
-0.0906401
-1.93159e-07
-1.17147e-07
3.02285e-08
0.000185052
-5.51629e-09
-0.0147476
0.0025677
-7.82579e-08
-1.02547e-09
-0.000394811
-0.000430906
0.00160799
-0.000442513
-4.63728e-09
-1.94011e-08
-1.38037e-07
0.094741
-8.89133e-08
-5.98648e-09
-1.73415e-05
-1.2161e-06
-0.000159147
9.63185e-05
4.88776
-4.56561e-05
-1.69931e-08
-0.270027
-8.8011e-08
-1.94039e-07
-1.29497e-09
-1.78579e-07
-4.67867e-05
-8.8331e-05
0.0222138
-2.7202e-08
-2.43374e-07
-1.5619e-07
-8.12655e-09
0.00141534
-5.96439e-07
-1.16847e-07
0.104221
-1.68737
-3.76337e-10
-2.76832e-09
-7.16395e-08
0.000414689
-2.75367e-09
8.38398e-05
-8.09788e-08
1.91639e-07
0.000522861
0.0064699
-1.20569e-07
0.00443522
-1.60646e-08
-0.0010567
-5.60623e-07
-2.00052e-05
0.000344208
-8.44361e-08
-0.0177762
0.00189838
2.02798e-09
-2.17815e-07
-7.27591e-05
-4.48832e-09
7.43338e-06
-2.48798e-07
-0.00186795
-3.07554e-08
-0.487325
-3.77368e-09
0.000154025
2.46666e-08
-3.63552e-09
-0.000820739
-0.000118994
-8.91084e-09
-6.68523e-06
5.2495e-10
-3.87996e-08
-6.86305e-10
-4.11977e-08
-2.35273e-07
-2.7001e-06
-1.35365e-08
-1.23195e-07
0.000425153
-0.000250798
5.13206e-05
-1.07979e-05
-1.82798e-08
-6.42315e-08
-1.75789e-09
-2.27914e-05
-1.57153e-09
-9.7034e-08
-0.00149412
-0.000163442
-5.18048e-09
1.35042e-09
-1.19077e-09
0.000473742
1.66264e-09
-2.58974e-08
0.0115681
-2.7586e-07
-0.190396
-0.000424452
-2.86111e-08
-0.00217473
0.0546265
-7.99616e-11
-8.2577e-11
0.000456366
-3.80074e-06
-1.83814e-06
-1.45571e-09
-1.6853e-09
-4.98721e-09
-5.99392e-08
-0.00267633
-0.000665121
-8.19326e-09
-5.87558e-05
-5.38704e-07
-1.22524e-07
-3.1228e-09
2.33017e-11
-0.00137358
-5.45755e-08
-1.78283e-08
-0.825538
-9.24834
-3.35959e-09
-4.17234e-09
-3.45046e-10
-0.00300092
-1.43816e-08
-6.14546e-09
-0.00120095
-0.000273098
-3.89286e-09
-3.82955e-05
-2.78668e-08
-0.0246235
0.0021216
-2.42135e-10
-0.000232291
-1.59327e-07
3.05935e-05
-3.73798e-09
0.783557
-0.00158325
-6.51798e-06
8.14669e-07
0.000536522
-4.58277e-09
-0.000149025
-6.22819e-10
-1.31904e-09
-0.00159792
-1.03965e-08
-0.00485274
1.0263e-05
-6.00942
-1.33952e-09
-0.0106969
-0.000825151
-6.61008e-09
-7.28072e-10
0.0189916
-0.00112326
-1.26512e-07
-1.53389e-10
-1.96464e-07
-0.000269138
-2.9025e-07
-2.91961e-09
-0.00332872
-5.92623e-08
-2.78386e-07
-7.70069e-08
0.00146929