/*--------------------------------*- C++ -*----------------------------------*\
| =========                 |                                                 |
| \\      /  F ield         | OpenFOAM: The Open Source CFD Toolbox           |
|  \\    /   O peration     | Version:  v2012                                 |
|   \\  /    A nd           | Website:  www.openfoam.com                      |
|    \\/     M anipulation  |                                                 |
\*---------------------------------------------------------------------------*/
FoamFile
{
    version     2.0;
    format      ascii;
    class       surfaceScalarField;
    location    "200";
    object      ddtCorrDdt0(phi);
}
// * * * * * * * * * * * * * * * * * * * * * * * * * * * * * * * * * * * * * //

dimensions      [0 3 -2 0 0 0 0];
oriented        oriented;


internalField   nonuniform List<scalar> 
21991
(
-3.49893e-05
2.14027e-05
1.35867e-05
-1.5572e-07
1.18411e-07
3.75641e-08
-8.56754e-07
4.03966e-06
-3.18277e-06
9.4383e-08
2.81266e-08
-1.22755e-07
1.60322e-07
-5.90396e-07
4.29933e-07
-9.71508e-07
-5.4301e-08
1.02604e-06
-4.35077e-07
2.86584e-07
1.48203e-07
1.72345e-07
-1.99708e-07
2.75476e-08
-1.01091e-05
5.74075e-06
4.33353e-06
-2.29229e-09
2.24892e-09
1.21567e-10
-1.24333e-05
-1.85771e-05
3.10618e-05
2.08813e-06
3.83476e-06
-5.92129e-06
-3.78589e-08
-1.41766e-07
1.79611e-07
-7.75656e-07
4.11814e-07
3.63582e-07
-2.9774e-06
6.90293e-06
-3.92475e-06
-1.73678e-05
2.93518e-05
-1.19844e-05
-2.85377e-07
4.4544e-07
1.81607e-08
-9.31532e-08
7.54611e-08
-2.42084e-06
2.42058e-06
-1.22712e-06
-1.31296e-06
2.54037e-06
-8.21628e-09
8.278e-09
3.32352e-07
-3.52836e-07
2.19643e-08
2.97015e-07
-3.51445e-07
5.4472e-08
3.32226e-07
-4.23734e-07
9.18431e-08
-3.90543e-06
1.11582e-06
2.79041e-06
4.66641e-07
-1.34121e-07
-8.64364e-07
-1.37303e-07
1.00178e-06
6.43829e-07
-5.59882e-07
-8.43865e-08
-5.83907e-07
3.09819e-05
-3.03964e-05
-3.46527e-07
8.38268e-09
3.38e-07
-9.39634e-09
-3.35964e-07
3.4554e-07
-2.46142e-07
6.93866e-09
2.39528e-07
-2.6007e-06
1.37359e-06
5.57344e-07
-4.07353e-07
-1.49755e-07
-2.73706e-06
-5.16007e-06
7.89617e-06
-2.76285e-07
-1.58971e-07
-9.18775e-06
-9.86381e-06
1.90574e-05
-7.76684e-10
-1.51909e-08
1.62719e-08
-0.000127785
5.29572e-05
7.48261e-05
3.02029e-06
-1.72299e-06
-1.29661e-06
-6.28478e-06
5.42741e-06
5.22365e-06
-7.96388e-06
-1.68185e-07
7.61742e-07
-5.93283e-07
2.14614e-07
-1.26734e-07
-8.8106e-08
-5.87947e-08
-5.31451e-07
2.21067e-07
-2.01117e-07
-2.05289e-08
4.85499e-05
-2.18997e-05
-2.66475e-05
4.55493e-08
1.72437e-07
-2.1786e-07
-8.57855e-09
3.41413e-07
8.9604e-07
3.46201e-06
-4.3639e-06
5.43367e-09
1.86734e-07
-1.92054e-07
-2.28375e-07
2.60996e-07
-3.25076e-08
-6.64561e-08
1.05714e-07
-3.91944e-08
1.44285e-07
-3.00527e-07
1.5634e-07
-6.96958e-06
2.76036e-06
4.21131e-06
4.90767e-05
-2.13857e-05
-2.76605e-05
-4.37125e-06
-1.30848e-05
1.74488e-05
2.75939e-05
8.24342e-06
-3.5838e-05
8.39516e-08
-1.0176e-07
1.76609e-08
2.2319e-07
-2.50615e-09
1.13379e-05
-3.7155e-06
-7.62235e-06
1.48994e-07
-1.43368e-07
1.24823e-07
-1.84276e-07
5.95154e-08
2.88745e-05
2.02206e-05
-9.721e-08
2.22084e-07
-1.02808e-07
4.77113e-08
5.53096e-08
-8.63729e-09
4.59417e-10
-1.06993e-07
-2.4566e-07
3.53129e-07
1.59834e-08
-1.36978e-08
-2.1446e-09
-2.22611e-06
7.42731e-06
-5.2001e-06
6.84412e-08
-3.39211e-07
2.71002e-07
-7.4056e-07
-1.24126e-07
3.01721e-05
-5.54985e-05
2.54241e-05
1.98642e-06
-2.39087e-05
2.19227e-05
3.80937e-07
4.97847e-08
-4.30557e-07
8.26206e-06
-1.04876e-05
3.08139e-05
-2.83224e-05
-2.49214e-06
-5.03941e-08
-1.05227e-07
-6.48317e-09
5.45622e-09
1.90182e-09
-1.09734e-08
2.66429e-07
-2.55664e-07
-1.25543e-05
-2.92098e-06
1.54764e-05
-4.66476e-08
-5.60334e-08
-2.77822e-07
6.45384e-09
2.71441e-07
4.29173e-07
-4.82607e-08
5.46104e-09
-5.88556e-09
6.37415e-10
1.41325e-06
-2.07795e-06
6.64268e-07
-1.27208e-07
4.02975e-08
8.70157e-08
3.8244e-07
-2.66088e-07
-1.16204e-07
-1.5122e-07
2.4313e-08
1.27187e-07
4.08733e-07
2.35333e-07
9.48251e-08
3.94247e-07
-4.88764e-07
-1.42177e-07
3.04319e-07
-1.61655e-07
-7.10985e-06
3.67731e-06
3.46187e-06
3.40157e-07
-1.143e-08
-3.28608e-07
-1.14019e-05
1.22942e-05
2.0004e-05
1.08089e-05
2.70116e-05
5.03448e-08
-2.96114e-07
2.6659e-07
7.22864e-08
-3.38562e-07
3.99519e-05
-5.23528e-05
3.13013e-05
-2.30565e-05
-9.21655e-06
-1.87589e-05
2.79761e-05
6.69953e-09
-1.1851e-09
4.80636e-07
3.02434e-07
-7.84802e-07
-1.32165e-05
-1.0657e-05
2.38737e-05
9.83145e-06
-1.90491e-05
4.68203e-06
-2.59393e-06
-1.58449e-05
8.87329e-06
-6.34534e-08
1.05759e-07
-4.21094e-08
3.30795e-07
-3.40209e-07
-1.45929e-07
9.83225e-08
4.78706e-08
1.75409e-05
8.82227e-06
-2.63639e-05
-4.17559e-06
-2.93042e-06
1.30128e-05
-1.46544e-05
2.07039e-06
1.54701e-05
6.63313e-06
-1.91865e-05
3.03932e-05
-3.27162e-05
2.3217e-06
4.33543e-07
-3.37737e-07
5.49049e-09
2.09103e-09
-7.27936e-09
-1.64329e-07
1.82815e-07
-3.30561e-05
1.34797e-05
1.9575e-05
-1.23356e-07
-2.77974e-08
4.42054e-07
-4.06488e-07
-3.54984e-08
-6.69524e-07
1.16366e-07
5.53309e-07
9.84464e-08
-1.4965e-08
5.35877e-09
-5.97484e-09
1.53395e-05
-1.4754e-05
-5.86843e-07
-2.95336e-07
-3.10796e-07
2.73789e-07
3.70208e-08
4.6322e-07
8.04657e-08
-5.4403e-07
5.24493e-07
-6.15899e-08
-5.91049e-06
7.87985e-06
-1.97088e-06
2.48414e-06
2.74322e-06
-5.22569e-06
2.10768e-05
2.56146e-05
-4.66566e-05
9.91598e-06
-1.67111e-06
-8.24395e-06
-6.22777e-07
-4.65157e-08
9.46692e-08
1.19792e-07
0.000191819
1.57324e-05
-0.000208298
3.51948e-07
-2.66788e-08
-3.2494e-07
5.01668e-07
5.61807e-08
-1.2887e-07
7.2129e-08
5.68484e-08
1.33975e-05
-2.20776e-05
8.67969e-06
-2.29655e-07
1.38017e-09
-3.27156e-07
-1.13912e-05
-1.97922e-07
1.15863e-05
1.09272e-08
5.13635e-09
1.1044e-05
-2.42599e-05
3.1189e-08
-9.46064e-08
-1.10148e-05
5.45184e-07
1.04721e-05
2.7398e-05
-2.74057e-05
-4.11768e-06
-5.92002e-06
6.696e-06
-6.69651e-06
1.36523e-06
1.65549e-06
8.1313e-07
-6.84161e-07
-1.31041e-07
-2.76505e-07
-1.38783e-09
3.73214e-06
2.757e-05
-9.95294e-07
5.18567e-07
4.76417e-07
1.35488e-05
4.13733e-06
-1.76847e-05
-1.71707e-05
1.56219e-05
1.54771e-06
-1.69216e-05
5.9079e-06
-6.20816e-08
7.38703e-08
-1.16277e-08
-3.56789e-08
1.33406e-08
2.24407e-08
-3.60552e-06
6.09021e-06
-3.90559e-06
3.16723e-07
-3.31845e-07
1.50082e-08
-2.68771e-05
3.06092e-05
-1.62813e-07
2.08786e-07
-1.0212e-05
1.17848e-05
-1.57365e-06
3.60294e-07
2.12883e-08
-3.81589e-07
1.98081e-08
1.52587e-07
1.463e-05
-8.3019e-06
-6.32689e-06
-7.72951e-08
-2.39547e-07
3.16969e-07
-6.94862e-06
3.34642e-06
3.60237e-06
2.23398e-06
-5.21162e-06
1.07136e-05
-7.9512e-07
-1.51297e-05
3.62571e-05
5.51171e-08
3.09355e-08
-8.49348e-08
-5.02369e-07
4.40736e-07
6.12911e-08
-1.77083e-07
6.13409e-08
1.15805e-07
2.43622e-05
-2.87335e-05
-1.26001e-06
2.88229e-07
1.60269e-06
9.11938e-06
-1.07097e-05
-1.23155e-07
3.78119e-07
-2.5454e-07
-1.25867e-07
-8.37076e-08
-2.47294e-07
1.05328e-07
1.34307e-05
-3.2296e-06
-1.01951e-05
7.51729e-08
4.349e-07
-5.09868e-07
5.00996e-07
-4.25727e-07
-4.01333e-07
4.55368e-07
-5.41102e-08
-3.07953e-07
1.41482e-07
1.66541e-07
4.01392e-07
-5.69357e-07
1.28932e-05
3.56576e-05
2.94831e-07
-8.52818e-08
-2.09253e-07
1.99651e-05
3.74351e-05
-5.73795e-05
2.99181e-05
-3.90941e-05
4.56925e-08
-1.55067e-07
1.09588e-07
-2.50876e-05
6.32793e-06
4.81837e-08
1.29493e-07
-1.77855e-07
-7.18705e-07
4.75572e-07
2.4318e-07
-1.29351e-05
-2.83588e-07
1.3219e-05
8.21577e-06
-1.82501e-07
-8.02956e-06
-1.14334e-07
-1.93521e-07
-5.50911e-08
-3.00653e-07
3.55936e-07
1.9762e-06
-1.4002e-06
-5.76977e-07
2.25059e-07
-1.76496e-07
-4.85437e-08
-2.09585e-05
1.9153e-05
1.80354e-06
-9.37767e-07
-5.77761e-08
-4.12992e-05
6.91779e-05
-2.78734e-05
-1.30682e-07
5.64584e-07
3.65665e-07
-6.68032e-08
-2.98516e-07
3.70109e-07
-9.81128e-09
-4.76198e-06
1.90829e-05
-1.43203e-05
-3.44265e-07
2.37596e-07
4.76871e-09
-6.68151e-08
3.66017e-07
-1.79498e-07
-1.8596e-07
-1.07575e-08
3.62855e-07
5.17644e-07
-1.37851e-07
-7.38238e-08
2.11898e-07
-3.59503e-08
-9.89249e-08
1.35047e-07
2.03019e-07
-9.78764e-08
-1.05147e-07
1.87102e-07
-4.17918e-08
-1.44679e-07
-7.44197e-06
4.57346e-06
2.93975e-06
-5.14515e-07
-2.03791e-07
-3.13591e-07
2.36582e-07
2.7677e-07
-2.95777e-07
1.93108e-08
-0.000118773
9.78046e-05
2.11529e-05
2.70875e-06
-1.58095e-06
-1.12831e-06
2.75122e-06
2.73176e-05
-3.00794e-05
-7.48815e-06
-1.5057e-06
8.99586e-06
3.41533e-07
-3.77074e-07
3.61778e-08
-3.60775e-07
3.5831e-07
2.61408e-09
3.31684e-07
-3.86418e-07
9.38569e-08
-1.29619e-07
2.04511e-05
-5.1597e-07
-1.9909e-05
2.21664e-05
-2.66908e-06
-1.94979e-05
-5.77142e-09
6.07205e-09
7.07458e-11
2.52407e-07
-7.18064e-08
-1.80442e-07
-6.16845e-06
-2.20486e-05
2.82193e-05
3.08312e-06
-1.54231e-06
-1.5368e-06
1.38243e-07
2.60215e-07
-3.9841e-07
1.31522e-05
-1.96158e-05
6.46327e-06
-5.02789e-06
-3.71381e-06
8.75998e-06
-1.13608e-07
3.81545e-07
7.62982e-08
-9.08567e-09
-2.27835e-07
2.36903e-07
3.56446e-06
-2.15238e-06
4.94991e-07
-4.08212e-07
-8.71318e-08
3.07268e-09
3.13796e-07
-1.35746e-08
4.07766e-07
-7.68797e-08
0.00020998
-0.000112754
-9.72436e-05
1.67081e-07
-1.21319e-07
1.4773e-08
4.09468e-08
-5.54918e-08
-1.47512e-07
9.73912e-08
2.25203e-05
-1.39479e-05
-8.57104e-06
8.92357e-08
1.35531e-07
4.87584e-08
-2.22365e-07
1.73747e-07
4.33387e-07
-1.94007e-07
-2.3924e-07
-3.17969e-07
3.86487e-07
-8.15818e-08
6.24975e-08
1.95319e-08
-4.7739e-06
1.204e-05
-7.24585e-06
2.28106e-08
-4.24676e-07
2.65252e-07
8.53111e-09
2.13719e-07
-6.76811e-08
-1.46133e-07
-4.43557e-05
6.50076e-05
-2.06527e-05
3.39286e-07
3.45574e-09
-3.4257e-07
5.78879e-09
-9.43679e-07
1.79838e-08
1.97953e-07
-2.16001e-07
-1.41014e-05
1.93316e-05
-5.23842e-06
3.29792e-05
-3.26109e-05
-3.65201e-07
8.09087e-06
-6.48716e-06
4.30961e-05
1.25749e-06
-4.4353e-05
-3.43438e-10
-7.37288e-08
1.04336e-07
-3.12815e-08
1.04334e-05
2.96284e-06
2.64761e-06
4.25552e-06
-2.4753e-07
-7.28991e-08
3.20463e-07
8.97171e-07
-1.2289e-05
1.61596e-07
-1.94945e-07
3.304e-08
1.47665e-05
-4.93492e-06
1.95654e-05
-2.57339e-05
-4.79512e-08
-1.03375e-08
5.82645e-08
-9.23417e-06
-9.78372e-07
6.62137e-06
4.71665e-06
4.46668e-06
-2.45688e-06
-2.01043e-06
-0.000197209
7.83818e-05
3.52832e-07
-1.91812e-07
2.08136e-07
1.74198e-07
-7.23212e-08
1.61208e-07
-8.78506e-08
1.31837e-05
1.4466e-06
1.07524e-07
-2.45281e-07
-9.57603e-09
3.67999e-07
-3.58178e-07
-1.10602e-08
-3.38886e-07
3.91859e-07
-5.28355e-08
-7.49028e-07
6.94958e-07
1.38822e-05
1.32912e-05
-2.71774e-05
-6.64047e-07
-5.23954e-06
8.19848e-09
2.30919e-07
-2.38939e-07
-1.48589e-07
7.48382e-08
1.51121e-07
3.65767e-08
-1.89473e-08
-1.75859e-07
1.94932e-07
1.33378e-07
-1.13285e-07
-1.99728e-08
1.31955e-07
3.26686e-08
-1.64296e-07
9.29066e-07
1.77962e-06
-1.03234e-07
9.72627e-08
-3.24088e-07
2.00965e-07
-0.000132117
4.33049e-06
-2.07689e-05
-4.32159e-06
-4.32571e-06
6.55986e-06
1.10872e-05
-7.98152e-06
-2.92059e-07
-1.26428e-05
9.02887e-08
-1.60569e-07
-9.3934e-08
2.54533e-07
4.43759e-07
-3.05714e-07
1.14435e-05
1.10777e-05
1.81757e-07
1.84366e-07
3.589e-06
-8.36181e-06
2.18354e-05
-1.41418e-05
-7.66497e-06
6.30485e-09
2.2177e-07
-2.27943e-07
4.27011e-05
1.02544e-05
3.13163e-05
-2.26211e-05
-8.70013e-06
1.60407e-05
1.43519e-05
-3.23718e-05
3.51226e-05
-1.7953e-05
3.85688e-06
4.48284e-07
-4.07806e-07
-4.06778e-08
1.14431e-06
-2.45706e-06
-1.63794e-05
1.84816e-05
-2.10415e-06
2.49591e-08
9.53939e-05
-9.78797e-06
-8.56056e-05
-1.22081e-05
-4.96321e-06
6.66613e-07
-3.64052e-07
4.92287e-07
-4.61384e-07
-3.18866e-08
-6.09879e-08
1.16198e-07
1.03706e-07
-2.63662e-07
-4.04803e-08
-4.08357e-08
-5.04675e-09
-3.30805e-07
2.04974e-08
1.13077e-07
-5.5969e-07
1.91437e-07
-2.21537e-07
3.07934e-08
-4.22621e-06
-2.71467e-06
3.15938e-07
1.76994e-08
-3.32666e-07
-4.24862e-07
1.21611e-07
3.03374e-07
4.52735e-07
4.23735e-08
1.48873e-07
9.69139e-09
3.30552e-07
-1.72829e-05
-8.37146e-06
2.56621e-05
-1.0769e-06
5.08055e-06
-3.99858e-06
-5.56029e-06
6.95149e-06
-1.39117e-06
1.24997e-05
-6.80411e-06
6.08402e-06
2.13307e-06
1.40729e-05
-1.33342e-05
-7.29278e-07
1.51975e-07
2.81245e-07
-8.62975e-08
1.99596e-08
-2.04002e-07
2.22104e-07
-2.72084e-08
2.18859e-07
6.48962e-06
2.48245e-05
3.53341e-07
-2.215e-07
-1.31261e-07
1.5617e-05
-1.56365e-05
7.01712e-08
-3.12641e-07
2.4269e-07
-4.40272e-08
5.88865e-08
1.86259e-07
-2.25479e-07
4.01039e-08
-5.04595e-07
1.62765e-06
-1.12563e-06
8.7044e-06
-2.42792e-06
-6.2782e-06
9.85731e-07
2.09821e-06
-8.95433e-06
1.07922e-07
8.84782e-06
-1.34233e-05
1.54091e-05
1.09964e-07
-3.57421e-07
-1.56971e-07
5.51506e-07
2.66975e-07
-4.81874e-07
2.15254e-07
-6.94119e-08
-1.0286e-07
1.72327e-07
-3.23432e-07
1.17835e-07
2.05981e-07
2.97292e-08
-3.5663e-08
6.31199e-09
-5.46015e-08
-2.02981e-07
2.57432e-07
2.35776e-08
-9.90762e-08
1.40644e-07
-4.15781e-08
-1.05372e-05
8.43139e-05
-7.37521e-05
1.88941e-07
-1.50763e-07
3.55671e-07
-2.05564e-07
-4.74443e-06
-1.40122e-05
4.42042e-05
-5.25282e-06
-4.05142e-07
2.65384e-07
1.40404e-07
7.79579e-07
-5.64307e-07
-2.15085e-07
3.59527e-06
8.69955e-07
4.86983e-07
-1.27024e-07
-3.60118e-07
-6.37862e-08
1.71086e-07
-1.07253e-07
7.71901e-06
1.22817e-05
-2.0001e-05
5.10811e-08
6.68914e-08
-2.47997e-08
-4.19435e-08
2.57283e-05
-1.76736e-07
1.04718e-07
3.66889e-07
-3.48555e-08
2.65249e-07
-1.20983e-07
-1.02994e-06
1.21026e-06
-1.7823e-07
1.18757e-07
3.07515e-05
-5.33861e-05
2.26353e-05
7.09678e-08
4.21072e-07
-5.95868e-05
4.40582e-05
1.55292e-05
2.91074e-08
7.79987e-10
4.82616e-07
-4.80811e-06
1.28331e-07
-6.88002e-08
-5.93859e-08
6.10383e-06
-2.19446e-05
-0.00013561
0.000125112
-3.56333e-07
-1.15567e-07
4.72304e-07
-2.33812e-07
1.7981e-07
5.43368e-08
3.92342e-05
-8.47973e-06
-1.43728e-07
-1.67192e-06
8.57253e-09
-1.04076e-09
-7.40634e-09
3.05965e-07
-2.90264e-08
-2.01881e-07
8.93148e-08
1.12973e-07
-0.000127168
0.000337152
-2.34381e-09
8.10818e-11
-4.24419e-08
-2.13832e-07
2.56459e-07
-5.83355e-05
7.80589e-08
-8.71728e-08
9.04941e-09
-4.0674e-07
3.13381e-07
9.35916e-08
2.24653e-07
2.42402e-07
-2.44632e-05
-1.05247e-05
1.49304e-05
6.90848e-06
-1.69842e-06
1.51129e-06
1.86604e-07
3.40936e-07
1.44859e-05
-1.4814e-05
-8.7863e-08
-1.45625e-07
-1.37782e-06
1.15928e-07
1.26145e-06
-5.14674e-06
-3.80762e-06
-1.14309e-08
-9.06915e-08
3.77737e-07
-8.37803e-08
-2.93718e-07
3.36681e-07
4.78415e-09
-3.41394e-07
2.59358e-07
-4.28014e-07
1.69137e-07
-4.62198e-08
4.62139e-08
6.07281e-06
7.80939e-06
6.15786e-08
-4.48145e-08
-1.66886e-08
-9.19944e-09
3.75137e-07
1.55029e-07
-1.29945e-07
-2.44925e-08
1.4785e-07
-1.66819e-07
-2.81021e-05
1.08272e-05
-1.13706e-07
2.21332e-07
1.46187e-07
-2.34886e-07
8.95398e-08
-2.25984e-06
5.36911e-07
-4.46845e-06
3.39279e-06
-1.45707e-07
-1.11925e-07
2.57608e-07
3.29843e-07
-2.22636e-07
7.68846e-08
1.4572e-07
-8.77254e-08
1.14416e-07
-2.86467e-08
5.93852e-06
-1.47613e-05
8.82315e-06
3.88841e-05
-1.45609e-05
-2.42742e-05
2.21679e-06
-7.23506e-06
-3.47796e-07
-5.87158e-08
8.12757e-06
-2.17729e-06
-5.9491e-06
3.43449e-07
-2.25455e-07
3.82011e-07
7.21445e-09
-3.89108e-07
-8.09946e-09
9.53724e-09
-1.25503e-09
-2.44884e-08
-1.28858e-07
1.53464e-07
-9.91881e-08
-1.41312e-07
2.40613e-07
-1.46793e-07
1.22383e-07
1.00721e-05
-1.2587e-05
2.52191e-06
2.50984e-07
-3.30765e-07
8.00237e-08
4.52911e-10
8.42511e-05
0.000164421
-0.000248661
-1.38769e-07
-8.38461e-08
2.3407e-05
-9.85695e-06
-1.29976e-05
6.40515e-06
6.59624e-06
5.5714e-07
-1.45412e-07
6.01999e-05
3.51839e-05
-2.78309e-07
-1.26505e-07
2.34701e-06
-2.31207e-05
-1.34014e-06
-3.5858e-07
-1.88314e-07
1.64664e-07
2.39033e-08
1.0404e-09
-9.18742e-08
-1.09576e-07
3.51752e-07
-2.85896e-07
-6.54881e-08
-1.04195e-07
-1.60786e-07
2.64973e-07
2.42598e-06
1.05872e-05
5.16794e-08
4.35312e-08
-1.78362e-07
3.65212e-08
3.25122e-07
-4.81473e-07
-5.15452e-06
-1.5805e-05
-3.76478e-06
-9.48869e-06
1.32555e-05
6.75695e-07
-6.96778e-07
2.04496e-08
2.87766e-07
-2.84161e-07
-2.62789e-09
-2.76951e-07
-1.63249e-07
4.3994e-07
-3.7509e-06
3.06044e-08
4.17739e-07
2.08122e-07
-1.47207e-07
-6.08497e-08
1.25719e-05
1.54186e-07
-1.86298e-07
3.25684e-08
-2.64732e-07
1.19085e-07
-4.53746e-07
-3.64324e-08
4.89155e-07
1.71056e-07
3.67681e-08
-1.65866e-05
1.76433e-05
-1.05354e-06
-3.10877e-07
5.53244e-07
-2.42761e-07
6.82889e-09
-1.56664e-07
1.49885e-07
-5.71785e-07
3.95957e-07
1.76954e-07
1.35171e-08
-3.82341e-09
1.19412e-07
3.55057e-08
2.69113e-05
-4.67801e-07
-2.63152e-05
5.32711e-08
1.24436e-07
-2.23579e-07
4.14679e-06
-3.841e-06
-3.05237e-07
-7.90483e-08
-7.57429e-08
-5.31519e-08
1.17676e-07
-1.85001e-07
6.53927e-08
1.94061e-05
1.30239e-05
-3.24313e-05
-7.16456e-08
9.61515e-08
-2.45841e-08
-1.33968e-07
8.89788e-08
4.49912e-08
-2.24493e-08
-1.04714e-07
3.46899e-07
-3.45339e-08
-3.12259e-07
2.78666e-05
5.11305e-06
-9.03242e-08
1.9056e-08
-1.49667e-07
-3.86786e-08
-3.93477e-06
6.41195e-05
9.44479e-08
1.97585e-07
-2.91722e-07
8.74983e-08
-3.2414e-07
2.37331e-07
1.09864e-05
-2.41366e-05
1.31517e-05
-2.91851e-08
9.56387e-08
-6.78605e-08
-4.28291e-05
3.30383e-05
3.8137e-08
2.16043e-07
-2.53869e-07
8.27568e-06
-7.4221e-06
-8.51153e-07
2.66661e-05
2.11166e-07
-3.04923e-05
1.39068e-05
4.88685e-08
1.64727e-07
-8.68966e-08
8.46709e-08
2.11103e-09
-3.13659e-07
3.8444e-07
-5.07398e-08
2.58556e-07
2.19099e-07
1.69951e-08
-2.35915e-07
-3.11764e-07
2.08932e-07
1.02982e-07
-7.5138e-08
1.16615e-07
-4.14214e-08
-3.70063e-07
-2.01882e-07
3.28914e-07
7.92693e-09
-1.99237e-07
-2.5547e-07
-3.75971e-07
-1.83984e-07
-3.20089e-07
2.77727e-07
-1.87166e-05
1.57952e-05
3.11123e-06
5.59396e-06
-2.41025e-05
3.41772e-05
3.54416e-07
-3.84219e-08
2.38549e-07
-2.00205e-07
-6.0972e-07
-5.83946e-07
1.19561e-06
5.90716e-08
2.60212e-07
1.17931e-07
-1.04861e-05
-5.89371e-06
-3.18551e-09
1.36144e-07
1.29412e-06
6.98464e-06
2.60648e-06
5.52126e-06
-3.26937e-08
-2.95729e-09
-2.67241e-05
-3.28627e-05
-6.07191e-07
1.14983e-06
-5.39861e-07
3.15128e-07
-6.38928e-08
2.17745e-07
-3.78925e-08
1.94005e-05
-3.19895e-05
1.25847e-05
-1.43886e-06
-1.87684e-05
2.02117e-05
2.34923e-07
-2.45818e-07
-5.42609e-08
6.29323e-09
-8.91926e-08
1.09932e-07
1.1001e-05
-3.05032e-06
-7.95033e-06
2.58094e-06
-6.04942e-07
-1.70343e-05
1.75992e-05
-5.648e-07
-1.30527e-05
-6.93227e-08
-6.46083e-08
2.05616e-06
-2.21452e-06
1.58316e-07
4.0941e-07
3.53296e-07
-2.28681e-05
6.53937e-05
-4.25267e-05
-2.70872e-07
-1.10719e-06
-1.74463e-07
8.63143e-08
1.84881e-07
-4.55107e-07
2.702e-07
2.45187e-07
-3.36362e-07
9.15555e-08
1.294e-05
9.42669e-06
-2.23655e-05
1.02703e-05
-4.81106e-06
-5.46183e-06
2.96858e-07
-4.96268e-07
1.32336e-05
-3.86351e-05
2.54032e-05
2.2548e-07
-1.00003e-07
1.0937e-08
-1.69691e-07
-2.23663e-07
3.93482e-07
1.8934e-07
-5.45355e-07
-1.33093e-07
9.87294e-09
1.13815e-05
3.95841e-06
3.73485e-08
2.95958e-08
-2.88463e-06
4.636e-07
-1.24501e-05
1.61455e-07
-5.31653e-07
-1.86483e-07
2.03288e-07
3.18035e-07
-7.26741e-08
1.03336e-07
-2.95377e-06
4.18173e-07
-3.08101e-07
-2.68623e-06
5.10652e-06
3.97084e-08
-1.38568e-07
-3.05672e-07
1.36078e-07
7.43485e-08
1.61173e-07
-2.35537e-07
2.0077e-09
-4.57396e-10
-1.40232e-09
1.58059e-06
-3.44594e-07
-1.23554e-06
-1.41372e-07
2.43948e-06
-1.15362e-05
9.09588e-06
2.62971e-05
-1.28188e-05
-8.05053e-09
-1.6609e-07
-2.58712e-07
6.00908e-08
2.28552e-07
2.53474e-06
-1.01417e-06
-1.51978e-06
1.04511e-07
3.01126e-07
-4.04975e-07
4.19695e-07
9.69689e-09
-4.28707e-07
3.68624e-07
-8.47855e-08
-2.83714e-07
1.78204e-05
6.26275e-06
-2.4163e-05
-3.33765e-07
1.37201e-07
1.96916e-07
-9.88031e-06
4.88465e-05
5.33503e-08
-2.96703e-07
2.43731e-07
-1.86926e-05
-3.67895e-05
4.66862e-06
-2.09627e-06
-2.57319e-06
-2.40242e-08
-1.09037e-07
-1.95086e-07
-2.72095e-07
6.15539e-07
-3.43288e-07
1.20232e-08
2.33191e-07
5.40421e-07
-2.89552e-07
-2.51226e-07
3.29057e-07
-1.76227e-08
-3.11025e-07
1.38955e-05
-1.86561e-05
-2.38246e-07
2.91186e-07
-5.12849e-08
-2.5676e-05
-1.56055e-05
1.02087e-07
-2.15662e-07
-3.90002e-05
2.04704e-05
-9.31574e-05
-6.69144e-07
3.97134e-07
-1.1457e-08
1.15213e-08
4.89903e-08
-2.12038e-05
2.11546e-05
-1.62925e-07
-7.52142e-08
2.38293e-07
-9.73194e-06
-3.72421e-07
1.01078e-05
4.21051e-08
-9.95908e-08
5.63185e-08
-3.05381e-08
3.05718e-09
2.76173e-08
-2.30753e-07
1.93147e-05
3.42249e-07
4.70478e-06
-5.04815e-06
-2.45971e-06
-7.27072e-06
1.61517e-06
4.41118e-07
-4.24054e-07
3.19434e-07
1.05116e-07
-1.92385e-07
2.62655e-07
-2.22516e-05
-1.65674e-06
-1.0462e-07
1.33105e-07
-2.86177e-08
6.46793e-05
-3.22193e-05
-3.24512e-05
3.52985e-05
-3.11615e-05
-8.83438e-08
-1.95638e-07
1.15629e-07
-1.19459e-07
3.91486e-09
-4.02497e-08
-1.17219e-07
1.5765e-07
-6.53595e-07
-8.63949e-08
4.57749e-07
-2.72717e-07
2.4205e-10
-1.53178e-08
4.24713e-08
-1.44412e-06
-3.90656e-07
-3.01059e-08
4.19487e-07
3.74631e-07
1.82843e-07
-8.57862e-08
-3.41718e-08
1.86838e-05
1.0668e-05
-1.08753e-06
2.04938e-05
6.23083e-06
-1.18702e-07
1.60464e-07
-4.16451e-08
1.50125e-07
-3.37295e-08
-1.01183e-08
3.06328e-08
-3.37056e-07
3.06766e-07
2.17345e-07
-2.09081e-07
-2.07506e-05
2.12415e-05
-4.89866e-07
2.07536e-07
5.46313e-08
-2.6204e-07
6.71666e-07
1.97585e-05
-6.23794e-08
-1.1861e-07
-2.58755e-06
2.39843e-05
2.77242e-07
7.4641e-08
1.04441e-05
-1.72551e-07
8.10126e-05
-1.63265e-05
-6.93639e-08
-8.63744e-09
7.82289e-08
1.0128e-07
-7.29662e-08
1.04864e-06
-1.66069e-06
7.87628e-08
2.57846e-07
1.54837e-07
-4.32115e-07
4.34958e-07
-1.49418e-08
-1.77816e-05
3.77437e-05
1.25246e-07
-1.19652e-07
-5.49982e-09
-3.34633e-07
5.6048e-07
-2.25947e-07
3.91983e-09
6.03425e-08
-6.41124e-08
4.26119e-08
2.20577e-07
-2.62724e-07
6.51812e-06
-1.36555e-05
-4.57706e-06
1.82276e-05
7.78868e-07
-7.18691e-07
-5.95843e-08
-1.43582e-07
1.42207e-08
-1.57423e-07
-1.96185e-08
2.47044e-08
-2.4106e-07
2.16448e-07
2.92618e-07
-3.1682e-07
2.39527e-08
9.10708e-08
3.65322e-08
-1.26043e-07
2.86189e-06
1.65374e-05
-4.76338e-08
3.15206e-07
2.9005e-06
8.1003e-06
-2.39979e-07
1.58685e-05
4.82066e-07
-2.59812e-07
-2.20178e-07
-3.30415e-07
-1.98524e-09
3.33125e-07
-9.09858e-06
1.39804e-05
-4.88245e-06
1.08122e-07
1.86961e-07
8.74302e-06
-2.78392e-07
2.11802e-07
-7.54711e-09
-2.27029e-08
3.03114e-08
-1.38115e-07
2.73302e-09
1.34069e-07
3.86037e-08
1.34685e-08
-1.04763e-06
3.32544e-07
7.14544e-07
9.7156e-08
-5.67654e-08
2.02104e-07
1.61632e-08
-3.88598e-07
-6.21427e-08
4.52062e-07
-3.54619e-06
8.56942e-07
2.6887e-06
4.38493e-08
-3.73713e-07
1.79781e-05
-1.60267e-05
-1.94997e-06
2.21665e-07
-3.06724e-07
1.60867e-05
1.89063e-06
-2.94339e-06
1.89437e-06
1.04915e-06
6.2438e-07
-6.87194e-07
6.22482e-08
-2.3692e-07
-5.87414e-07
8.21303e-07
-4.08785e-09
1.08749e-09
3.05833e-09
3.12274e-08
-1.94085e-07
1.62734e-07
-1.42556e-05
-8.81051e-06
-1.67171e-05
2.55269e-05
-1.32086e-07
2.86033e-07
-1.53919e-07
-3.88291e-06
4.22444e-06
-1.43496e-07
3.04194e-10
1.90225e-07
-1.11636e-07
2.57396e-08
3.23891e-07
-3.07854e-08
-2.11082e-05
3.43426e-05
1.84453e-07
-2.88511e-07
-3.12769e-08
-3.20155e-07
3.43066e-07
-3.26439e-07
-1.65539e-08
2.80346e-07
1.11215e-07
-1.51269e-07
5.92207e-07
-2.99407e-07
-2.93348e-07
1.32183e-07
2.8613e-07
1.18147e-07
-2.47419e-09
7.61489e-09
-1.12939e-07
1.056e-07
-2.63906e-07
2.60911e-08
9.77162e-08
-5.05002e-07
-2.79942e-05
2.03011e-05
7.69992e-06
7.77987e-06
5.62454e-09
-7.49555e-08
5.90201e-08
2.82012e-08
-3.58457e-08
1.01512e-05
1.527e-05
-2.54215e-05
-5.69447e-08
-1.19687e-07
6.37296e-07
8.28804e-08
-7.18937e-07
-6.99794e-06
-6.6593e-06
2.76083e-07
1.59195e-07
3.09093e-07
-2.49064e-07
-9.1927e-06
3.05939e-05
-2.14022e-05
-1.46613e-07
2.21033e-07
5.45609e-08
-1.59184e-07
-1.51301e-08
2.86576e-08
3.77328e-07
-8.71262e-09
1.43161e-06
1.10462e-06
-1.02763e-07
2.7653e-08
1.17156e-08
-1.85177e-07
1.73539e-07
1.97498e-06
-1.69889e-05
3.85059e-06
-5.25978e-06
1.41014e-06
2.03301e-07
-1.32707e-07
-7.06951e-08
-3.29331e-07
-1.95904e-06
2.33614e-05
-1.25421e-05
2.56938e-05
-1.73512e-06
1.28778e-06
4.47596e-07
-6.02142e-08
3.1114e-07
-2.50069e-07
4.50844e-07
-1.37104e-07
3.38529e-05
-4.72802e-05
1.34004e-05
1.12566e-07
3.69552e-07
1.12956e-05
-1.66766e-05
5.37368e-06
-3.69853e-05
4.91247e-06
7.55777e-06
-2.75325e-05
1.62762e-05
-4.59412e-08
-2.87522e-07
1.57151e-07
3.05687e-07
-4.61891e-07
-1.79435e-05
3.58969e-06
1.4352e-05
-6.94236e-08
-3.28742e-09
7.27175e-08
2.12968e-05
-2.57089e-07
3.13009e-07
-5.57468e-08
1.67966e-09
4.09284e-10
-1.08053e-05
-5.22902e-07
1.13288e-05
-6.02191e-07
-5.14057e-08
2.51239e-07
-9.39444e-06
2.32887e-05
-4.47672e-06
3.83024e-06
6.46686e-07
-1.03994e-07
2.06187e-07
1.89731e-05
-6.43918e-08
-8.30239e-08
-2.48695e-07
-6.31743e-08
-2.70409e-07
2.30301e-07
4.01517e-08
-1.4686e-07
4.06359e-07
2.73625e-08
-3.20888e-08
3.91496e-09
-1.44352e-05
-5.18084e-06
-6.25e-06
-1.51077e-06
1.22947e-06
2.81647e-07
2.49644e-05
-2.13224e-05
-3.64756e-06
-3.58173e-07
4.32351e-08
3.15294e-07
5.17821e-06
-5.096e-07
-0.000336842
0.000421098
-2.94577e-07
4.52637e-07
5.48855e-06
-9.25432e-06
-3.30073e-07
7.29905e-08
-6.54989e-08
5.12303e-08
1.9946e-07
-2.50735e-07
-1.19988e-08
-7.46518e-08
4.64049e-08
1.04099e-07
-1.5015e-07
5.7771e-06
2.15935e-05
5.04787e-08
1.78754e-07
-2.28483e-07
-1.09974e-05
-1.43553e-05
-3.98962e-07
-5.01796e-08
3.97014e-09
-2.52687e-07
-2.29475e-07
-1.35732e-07
7.81493e-09
1.27837e-07
1.31419e-07
-2.80951e-07
1.49654e-07
3.112e-07
-2.68243e-07
1.31708e-05
7.59263e-06
-3.19117e-07
3.27576e-07
6.31856e-07
5.88376e-09
1.69137e-07
1.8369e-07
-4.83156e-08
9.40601e-08
-4.55308e-08
-5.13339e-07
1.78971e-07
-2.25093e-07
-7.53903e-08
-2.08404e-05
2.50252e-05
-4.18696e-06
2.42874e-06
-6.97411e-06
4.54808e-06
-7.76101e-06
4.15797e-05
-9.92207e-06
2.12152e-05
3.62842e-07
-3.17771e-07
-2.74774e-05
1.68208e-05
-5.01888e-08
4.63269e-08
4.06295e-09
-8.13022e-05
-0.000160264
0.000241604
8.86189e-07
2.33162e-06
-3.21582e-06
1.8418e-07
8.81306e-10
-4.85955e-08
4.61264e-08
-4.72862e-06
-1.96812e-06
-1.77483e-07
5.88428e-08
1.95738e-07
-3.95233e-07
1.99282e-07
-3.07524e-07
2.54323e-07
5.34273e-08
-1.23046e-05
-1.51271e-05
4.46031e-07
-2.49955e-07
-3.12375e-07
1.61415e-07
-3.35052e-07
-3.62329e-07
1.68979e-09
1.62506e-07
-4.29319e-08
-1.19515e-07
3.08246e-07
-3.68142e-07
-4.16515e-05
-8.68907e-07
4.2545e-05
-1.25922e-07
2.29872e-07
-1.03767e-07
-2.35504e-07
-1.23766e-07
3.59401e-07
-9.71885e-09
5.25792e-07
-5.15742e-07
1.53691e-07
2.01553e-07
-6.10633e-06
1.19029e-05
-5.79751e-06
1.27231e-07
1.7254e-07
-2.99783e-07
6.89227e-08
-1.10226e-07
4.19782e-08
-1.50581e-07
1.63718e-07
-9.78446e-09
-1.17333e-09
9.25346e-08
2.79784e-07
-1.42533e-07
-1.3708e-07
6.17652e-08
-1.97469e-08
-4.20349e-08
-1.3983e-05
1.49537e-05
-9.73888e-07
-2.85831e-05
9.77589e-05
-7.47795e-08
-2.13335e-08
9.63634e-08
-1.47631e-08
-2.97804e-07
-2.41135e-07
-2.60947e-07
-6.4146e-06
2.699e-06
6.45156e-08
-9.26258e-08
2.82732e-08
-3.49352e-07
3.70366e-07
-2.10121e-08
5.11576e-08
3.90088e-06
-1.26882e-05
8.76363e-06
-1.81949e-07
1.93751e-07
3.99107e-07
-1.42769e-06
2.72439e-07
3.19609e-07
2.44895e-07
1.3366e-06
-1.285e-07
-2.92788e-05
-0.000113384
0.00014267
-3.20242e-07
-7.0647e-05
1.09799e-05
5.96625e-05
5.68953e-08
2.08968e-07
-2.32286e-05
3.24173e-06
1.9987e-05
4.23207e-07
1.01404e-07
-5.83359e-08
-4.54298e-08
1.02697e-07
7.73166e-08
7.70311e-09
-8.31792e-08
-1.47176e-07
8.98514e-09
-2.11445e-06
3.22966e-06
-1.34406e-06
1.47756e-05
-9.54991e-08
4.72615e-08
-2.40858e-06
-3.3991e-07
2.74833e-06
-1.42647e-05
1.43139e-05
2.90953e-05
-4.10807e-05
4.88043e-06
2.99954e-06
-1.38179e-09
2.90025e-07
6.33147e-06
3.4393e-10
-2.6788e-10
-2.34732e-07
1.0901e-07
-4.78141e-07
4.68718e-07
-6.56124e-05
0.000241509
-0.000175873
-2.65674e-08
1.84339e-07
-1.57881e-07
2.22936e-05
-1.08735e-05
-1.14186e-05
3.48287e-06
-5.07241e-07
-2.97605e-06
-1.91257e-07
-1.2126e-07
-1.13799e-07
5.45986e-09
1.72395e-10
-2.0884e-07
2.96886e-07
1.63708e-07
-1.1691e-07
4.30088e-08
1.80376e-08
4.37382e-08
-3.0363e-08
-2.99889e-06
3.03333e-06
9.31621e-08
-8.30713e-09
5.38135e-07
1.56608e-07
-4.22691e-07
8.94387e-06
-5.06572e-05
1.10713e-08
-1.09907e-08
8.85963e-06
2.80099e-07
-3.93483e-08
-2.40886e-07
2.47258e-08
-8.27568e-07
8.33433e-07
2.2088e-06
-3.75e-06
-7.22377e-08
6.01184e-08
7.19649e-07
-2.44173e-07
4.57428e-07
-2.13128e-07
-4.32618e-07
-8.02277e-08
5.12996e-07
5.23614e-10
8.75253e-09
1.70985e-06
5.5928e-08
6.51709e-08
9.73773e-08
-1.82891e-08
-2.03944e-07
-7.93554e-06
-1.37199e-05
2.16569e-05
7.42684e-06
-3.92822e-06
-3.498e-06
2.49562e-07
-2.80771e-07
-3.60912e-08
3.17022e-07
4.84027e-08
2.43034e-08
4.62975e-06
2.27243e-06
-7.35586e-06
5.08266e-06
-4.14372e-06
-1.90849e-05
-6.30229e-06
7.85086e-06
-1.54709e-06
6.09325e-06
-2.24271e-06
1.44624e-06
-7.67488e-07
-6.78979e-07
-4.7523e-06
-2.87081e-07
2.72342e-07
2.64964e-10
2.03439e-09
2.03082e-06
-1.63431e-05
1.43138e-05
5.00131e-07
-7.68806e-08
7.89413e-06
-4.30903e-06
6.53582e-07
-3.06293e-06
-8.98017e-08
7.81958e-08
-1.82582e-07
-4.69911e-08
1.61735e-06
3.47421e-06
-5.09283e-06
-1.35703e-07
1.86946e-07
1.0036e-05
-1.94312e-05
-2.58847e-07
-1.95934e-07
4.54763e-07
3.62419e-06
-1.43883e-07
-2.35309e-07
-2.35562e-08
2.59129e-07
2.34264e-06
-1.02412e-08
1.31936e-09
8.98679e-09
9.49291e-05
6.94858e-05
-1.36002e-07
2.82448e-07
-3.45034e-08
-2.47771e-07
-1.59665e-07
-2.9809e-07
4.58126e-07
6.38382e-06
-3.95341e-06
-1.77048e-05
-9.77257e-06
-5.32657e-07
2.29206e-06
-1.7589e-06
-4.24694e-08
1.69113e-07
8.34572e-06
-1.15696e-05
-1.43646e-07
1.75584e-08
2.77165e-07
9.00733e-06
-6.2086e-06
-2.80019e-06
-1.23104e-06
-2.79883e-07
6.16481e-06
6.41776e-06
-1.25948e-05
1.31058e-07
-1.87797e-07
5.72916e-08
-2.30773e-07
-7.6621e-08
-4.66746e-06
3.60632e-06
1.04696e-05
1.90745e-06
6.53218e-07
-2.562e-06
-4.80873e-07
2.22149e-07
1.10746e-07
1.31939e-07
-2.42687e-07
8.61054e-07
-4.27653e-07
-4.3252e-07
-3.14834e-07
3.45704e-07
-1.95563e-05
1.88136e-05
7.41847e-07
1.6319e-05
-1.24895e-06
-1.50809e-05
1.01707e-07
-1.71637e-07
1.4505e-07
1.10684e-07
6.04993e-08
-1.71138e-07
-2.93561e-07
-1.30387e-07
-9.60167e-05
6.80281e-05
-2.84852e-07
9.37171e-08
9.6433e-06
6.6704e-06
-1.59322e-05
-4.96932e-05
-6.7807e-06
1.09177e-05
-4.13512e-06
-6.113e-07
2.3547e-07
8.9259e-08
2.9275e-07
5.22232e-09
6.92798e-08
-7.60239e-08
5.25664e-06
-9.3513e-06
4.08973e-06
2.71908e-07
-0.000477518
8.37401e-05
0.000393775
5.63568e-08
-1.91818e-07
1.35117e-07
-1.51911e-07
-4.59372e-07
-3.9621e-09
-7.07399e-08
-1.98486e-08
-7.25119e-08
9.26064e-08
-9.42891e-07
2.84993e-06
-3.18378e-07
-1.41666e-06
-1.25175e-05