/*--------------------------------*- C++ -*----------------------------------*\
| =========                 |                                                 |
| \\      /  F ield         | OpenFOAM: The Open Source CFD Toolbox           |
|  \\    /   O peration     | Version:  v2012                                 |
|   \\  /    A nd           | Website:  www.openfoam.com                      |
|    \\/     M anipulation  |                                                 |
\*---------------------------------------------------------------------------*/
FoamFile
{
    version     2.0;
    format      ascii;
    class       volScalarField;
    location    "200";
    object      k;
}
// * * * * * * * * * * * * * * * * * * * * * * * * * * * * * * * * * * * * * //

dimensions      [0 2 -2 0 0 0 0];


internalField   nonuniform List<scalar> 
14804
(
0.0232925
0.000146405
0.000189499
0.000161326
0.000166357
0.000180201
0.000151406
0.000148691
0.000191273
0.000149166
0.000240383
0.000190966
0.000149397
0.000167062
0.000200631
0.0548698
0.000167147
0.000159937
0.00533468
0.000173869
0.00014994
0.000154049
0.00016259
0.000150273
0.0169266
0.000150263
0.000166401
0.000166209
0.0211855
0.000150415
0.000146332
0.000161204
0.000173832
0.00017021
0.000189453
0.000151413
0.000671144
0.000149579
0.0322234
0.000173436
0.000189496
0.000188366
0.00017784
0.000147663
0.000166304
0.000151372
0.00509509
0.000149203
0.000154439
0.000223574
0.000149493
0.000145937
0.000148069
0.000154537
0.000234378
0.00565353
0.00023317
0.0201019
0.000148736
0.000151474
0.0117914
0.000149642
0.000147648
0.00886201
0.000147637
0.000148212
0.000149873
0.000150876
0.000148231
0.0355024
0.000146853
0.000165408
0.000246571
0.040525
0.000150077
0.0357809
0.0485954
0.00014636
0.000164713
0.000144128
0.0448282
0.000148201
0.000144343
0.000150102
0.000149687
0.000200404
0.000145443
0.000152132
0.000145966
0.000166141
0.000165323
0.000153091
0.000186353
0.000146309
0.000224608
0.0508436
0.0217357
0.000160562
0.000149856
0.000260884
0.0207239
0.0355143
0.000149755
0.000169193
0.000206108
0.0366143
0.000190711
0.000203965
0.000148363
0.000146502
0.000147826
0.0214114
0.000186531
0.0260234
0.0213389
0.0398637
0.000212224
0.000166077
0.000149658
0.000160361
0.0481227
0.000145981
0.000153089
0.000170905
0.000148783
0.000149697
0.000212059
0.000168217
0.000163549
0.000165253
0.000165095
0.000201916
0.0305735
0.000231092
0.00272331
0.000170358
0.000147704
0.00222204
0.00014995
0.000170433
0.000147082
0.0441166
0.000148659
0.0246726
0.0259448
0.000148339
0.000205417
0.000148371
0.000227444
0.00659012
0.000191276
0.00724916
0.000174088
0.000169323
0.00014427
0.0220079
0.000164467
0.000259043
0.0200286
0.00024851
0.000146877
0.000147488
0.030991
0.00861278
0.000155827
0.022151
0.000149331
0.0123759
0.000150296
0.000148686
0.000248861
0.00015447
0.000195516
0.000198614
0.000992047
0.000238885
0.000161096
0.000172405
0.000144873
0.000239656
0.000180213
0.0556227
0.000150937
0.00015706
0.000152775
0.0222453
0.000179385
0.00017824
0.00015788
0.00014463
0.000176866
0.00771072
0.000148522
0.00272164
0.000161835
0.000147214
0.034736
0.00014926
0.000177921
0.0158252
0.0259494
0.000144598
0.000153074
0.000188399
0.000151085
0.0188426
0.000163765
0.000454044
0.000167066
0.000151494
0.000150308
0.0111837
0.000151066
0.000146874
0.000150617
0.000150165
0.000168509
0.00014724
0.000148153
0.000147535
0.000157078
0.000187645
0.000178006
0.0001541
0.000147221
0.000289749
0.000173498
0.00239408
0.0305085
0.000153589
0.000146318
0.000152685
0.000148169
0.0355216
0.0401993
0.000149751
0.000151248
0.000205294
0.000197138
0.000156299
0.0411007
0.000202306
0.000149804
0.000147598
0.000145771
0.000202264
0.000159673
0.00015571
0.00016255
0.00014676
0.0455858
0.000147207
0.000147136
0.000146389
0.0275486
0.000150904
0.000144672
0.000154242
0.000146717
0.000148432
0.00989026
0.00015792
0.000163487
0.000149048
0.000401627
0.000149614
0.00016324
0.000145611
0.0190746
0.0127176
0.0538956
0.0597956
0.000149778
0.000148762
0.0491837
0.000203431
0.000152355
0.0227482
0.000170184
0.0364691
0.000205978
0.00014657
0.0147979
0.0115349
0.049795
0.00064151
0.00017089
0.000152313
0.000157805
0.000214867
0.000147155
0.000149292
0.000153959
0.00015024
0.000179149
0.000135654
0.000203991
0.000163338
0.000147241
0.000157871
0.000145471
0.000146616
0.000158992
0.00017376
0.000164229
0.000150707
0.0170862
0.0369687
0.00019871
0.0245057
0.0173253
0.000150289
0.00015591
0.000156056
0.02772
0.000150666
0.0094377
0.000213607
0.000143853
0.0505233
0.000204326
0.000211391
0.00179886
0.0156363
0.000149685
0.000172982
0.000208899
0.00014879
0.000983829
0.0227034
0.000169133
0.000166449
0.00016079
0.000155384
0.000148466
0.000146119
0.000146681
0.0262344
0.000150527
0.000195478
0.00015395
0.000149735
0.000160158
0.000149498
0.000146318
0.0237699
0.0503775
0.0339572
0.000192638
0.0302993
0.0226367
0.000154218
0.000148136
0.000145563
0.000150501
0.000205216
0.00014945
0.00575718
0.000144544
0.000147102
0.000150359
0.000198204
0.000185627
0.000195229
0.0621811
0.0392852
0.000152056
0.000164862
0.00017854
0.000147327
0.000153206
0.000149044
0.000164409
0.000150452
0.000146309
0.0320916
0.00014571
0.000149741
0.0305029
0.000256424
0.000988524
0.000160542
0.000175995
0.0527404
0.000159667
0.000147267
0.0559583
0.000151363
0.000148528
0.0553339
0.000157311
0.000144796
0.000150334
0.000154458
0.0266139
0.000153318
0.000213867
0.000165762
0.0655596
0.000149107
0.000197103
0.000147516
0.000207297
0.0266199
0.000164801
0.000154105
0.000217998
0.000149407
0.000173294
0.000149766
0.000147422
0.0001594
0.0384124
0.000149147
0.000150338
0.000357353
0.000148585
0.000160578
0.000150264
0.0230343
0.000214459
0.000179076
0.000145061
0.0310582
0.000153983
0.00016637
0.0608819
0.000163511
0.000158181
0.000145723
0.000152365
0.000150112
0.000233498
0.000148379
0.000151445
0.000148331
0.000145457
0.0233409
0.000147138
0.000150244
0.000172201
0.0486077
0.000146577
0.000149604
0.000145494
0.000157803
0.0275634
0.0304979
0.000203424
0.000153073
0.0344152
0.000153132
0.00014966
0.000149752
0.000148866
0.000147491
0.000158941
0.0338311
0.000154515
0.000149693
0.00448783
0.00014545
0.000252793
0.000219864
0.000166949
0.00283648
0.000160656
0.0367082
0.000179206
0.000149729
0.000149692
0.000159235
0.000148584
0.000146539
0.0292864
0.000161046
0.000149278
0.000163674
0.0213107
0.0497107
0.000170297
0.000159672
0.000155809
0.000187669
0.000149905
0.00015626
0.0344803
0.000148354
0.000146589
0.000166279
0.000156444
0.000487694
0.000169928
0.000145957
0.000163279
0.000149684
0.00014834
0.0120206
0.000170768
0.000147407
0.000195654
0.000150216
0.000147037
0.000165433
0.045715
0.000148375
0.00014759
0.00014542
0.00014711
0.0141929
0.000148407
0.00014966
0.00512615
0.00014814
0.000149963
0.0652178
0.000148301
0.000551257
0.000143729
0.000212918
0.0101625
0.00027584
0.0001491
0.000148604
0.000165047
0.000152589
0.000143792
0.000151782
0.00014545
0.000162808
0.000145741
0.000165452
0.000166909
0.000150199
0.0501255
0.000186888
0.0462904
0.000154325
0.000143722
0.000196356
0.000148093
0.000158718
0.000207111
0.000158678
0.000208132
0.0345136
0.000147462
0.0696432
0.000192807
0.000154423
0.000154098
0.067231
0.0595701
0.000144114
0.000146529
0.00014669
0.000209104
0.000188489
0.0590868
0.0460277
0.000147613
0.00017894
0.000177079
0.000379184
0.000165658
0.000157178
0.000158553
0.000146731
0.000204594
0.0600379
0.000164629
0.000173791
0.000143865
0.000146744
0.000147101
0.000163579
0.000145868
0.000210353
0.000148505
0.00563965
0.000229188
0.000161994
0.000170858
0.000146741
0.000147272
0.0341432
0.00015181
0.00598402
0.000146242
0.00014713
0.000146904
0.000149695
0.000176511
0.000160826
0.0419204
0.0442096
0.000148543
0.000149697
0.000159181
0.000194184
0.000171008
0.000159974
0.000146669
0.000294714
0.000152924
0.0217735
0.000145036
0.000242218
0.0138823
0.000145796
0.000147546
0.000170072
0.000149946
0.000143801
0.000169742
0.000150114
0.0137793
0.000178513
0.000351926
0.000147069
0.00022852
0.00186411
0.00017028
0.000149943
0.0141931
0.000146762
0.000212786
0.000148171
0.000149114
0.0102523
0.000192682
0.000323524
0.00017864
0.000159529
0.000144592
0.0414344
0.00014685
0.0145856
0.000320283
0.00015968
0.000145709
0.000147763
0.000165038
0.000159401
0.000149516
0.00018595
0.000171357
0.000165741
0.000148529
0.0504911
0.0446321
0.000241963
0.000147591
0.000165423
0.000144192
0.00014951
0.000163251
0.0183754
0.000159737
0.036438
0.000164307
0.000199732
0.000205573
0.000148705
0.0609435
0.00932806
0.000146777
0.00016113
0.00019708
0.000160012
0.000160339
0.000155157
0.000160716
0.0023322
0.000145582
0.000170212
0.000146157
0.000149398
0.0223997
0.0517952
0.000173736
0.000148259
0.000144761
0.000144166
0.000152757
0.000162411
0.0636212
0.000178573
0.00021251
0.00612218
0.000176936
0.000158994
0.0125708
0.000148619
0.0390475
0.000151686
0.000147011
0.000148135
0.000160178
0.000181298
0.000145396
0.000154348
0.000168993
0.000192983
0.000158724
0.000207081
0.000148333
0.000205323
0.00017552
0.000170113
0.000168014
0.000148959
0.000149167
0.0247889
0.0404125
0.000148614
0.000192613
0.000148258
0.000144679
0.000148536
0.000153125
0.000181521
0.000146398
0.000161888
0.000146859
0.000156054
0.000147767
0.000169587
0.000151825
0.000145765
0.000148389
0.00017767
0.000170516
0.00284081
0.000974795
0.000146838
0.000147537
0.000147163
0.0211697
0.000157024
0.000177933
0.05027
0.000161108
0.000158524
0.0214825
0.000146978
0.000146901
0.000147453
0.000146699
0.000195642
0.000148292
0.000144681
0.000259301
0.000196706
0.000156052
0.000146477
0.023474
0.045677
0.000176551
0.000156092
0.000160889
0.0015182
0.000176231
0.00834816
0.000262886
0.000192586
0.0193678
0.000152907
0.000161695
0.00021853
0.000146519
0.000273659
0.000151057
0.000149601
0.0621767
0.000164227
0.000171927
0.0148601
0.00019318
0.000147072
0.021241
0.000146341
0.000151587
0.000154933
0.000152232
0.000149526
0.0369744
0.060062
0.000166165
0.000203064
0.000155283
0.0148772
0.00378092
0.00016247
0.0494719
0.000151062
0.000146323
0.00014535
0.000148538
0.000148286
0.00699079
0.000161557
0.050892
0.000213367
0.000149381
0.000178142
0.000160392
0.000146922
0.000149258
0.0531331
0.0111882
0.000150109
0.00017785
0.000149547
0.000147265
0.000170736
0.000154452
0.0444061
0.000202068
0.00208264
0.00509484
0.000158251
0.000206349
0.000148597
0.00651504
0.000195247
0.000146776
0.000158865
0.0107146
0.000147552
0.00016799
0.000145261
0.00618064
0.000168117
0.000149862
0.000149514
0.000146128
0.00014582
0.000155723
0.0231096
0.000146702
0.000146991
0.000159189
0.000149807
0.0417082
0.000170862
0.000147934
0.000144791
0.000148354
0.000162168
0.000148623
0.000147023
0.000203639
0.0012005
0.000147687
0.000144449
0.000172384
0.0107355
0.000148005
0.000147428
0.000147237
0.00019414
0.000144674
0.0293718
0.000169858
0.000175849
0.00028581
0.000466222
0.000146837
0.000245039
0.000143089
0.0208995
0.000165285
0.000157964
0.000148386
0.000148119
0.0260041
0.000149231
0.0213945
0.000147302
0.000183166
0.0110973
0.0591408
0.00020124
0.000149056
0.0123712
0.000149936
0.000146722
0.000159006
0.000271969
0.000149559
0.000208434
0.000179938
0.000149732
0.000161226
0.000149765
0.000149836
0.000148349
0.000148907
0.000147062
0.000192065
0.000148558
0.000172269
0.000152176
0.0258249
0.00014994
0.000773288
0.000144714
0.000163208
0.000163014
0.000197319
0.000170611
0.000175643
0.000159753
0.000156576
0.000149864
0.00016022
0.000199881
0.000156435
0.000146302
0.000144601
0.0670913
0.000184995
0.000170493
0.000146854
0.000146441
0.000197037
0.000187605
0.020633
0.0351524
0.000198365
0.000177965
0.0598824
0.000144388
0.000149312
0.00560639
0.00016501
0.000225332
0.000183282
0.000148458
0.000146579
0.000190979
0.000145327
0.0169121
0.000153696
0.000180074
0.00014541
0.000204171
0.000149047
0.00333953
0.000146696
0.000146717
0.000172275
0.000199816
0.00020653
0.0387771
0.000171183
0.0206016
0.000156599
0.000171108
0.0202482
0.000165338
0.00021252
0.000149871
0.000145174
0.000191065
0.025733
0.000181903
0.000153762
0.000146805
0.000178932
0.000149802
0.0329757
0.0133789
0.000147329
0.000149398
0.000147452
0.000158945
0.000684784
0.000149511
0.0149028
0.00028112
0.0300018
0.000166801
0.000149684
0.000148878
0.00143705
0.000146903
0.00243149
0.000153816
0.000167176
0.000147702
0.000148071
0.000181885
0.000176826
0.00141124
0.00022345
0.000167418
0.000144179
0.00014915
0.000149327
0.0141561
0.000188307
0.00931913
0.000148809
0.0362662
0.000204493
0.000175085
0.000150558
0.000150213
0.000148312
0.000149315
0.0369116
0.000170128
0.000144829
0.000193788
0.000270633
0.000159988
0.000170296
0.000160978
0.000147292
0.000262161
0.000148973
0.00016711
0.000148622
0.000175255
0.000172634
0.0001475
0.0251957
0.000151583
0.018059
0.000145597
0.000148884
0.000144951
0.0213274
0.044887
0.000159368
0.000205827
0.00019056
0.000149843
0.00015216
0.000148666
0.0700542
0.0115169
0.000196912
0.000218988
0.000148583
0.000152596
0.01351
0.00015326
0.000161331
0.00253192
0.000154185
0.000154782
0.03684
0.000192799
0.0687383
0.000152538
0.000170767
0.000151539
0.000392543
0.027918
0.000148654
0.000152474
0.0314132
0.00019257
0.000177963
0.000150951
0.0218712
0.0371034
0.000148402
0.00017786
0.000144087
0.000147796
0.0317352
0.000147851
0.000171297
0.00016274
0.000206941
0.00014821
0.000148413
0.000144881
0.000164155
0.000153736
0.0130321
0.0624594
0.000170155
0.00187961
0.000145474
0.000146785
0.000149033
0.00014808
0.000164196
0.000159605
0.0272688
0.000164035
0.000150697
0.000178699
0.000144609
0.000147032
0.00014649
0.000238037
0.0373443
0.0270728
0.0001472
0.000166983
0.0187793
0.000148001
0.000147016
0.00015117
0.0551027
0.0194523
0.000150313
0.000191711
0.000171531
0.000155873
0.000154595
0.000148621
0.000194266
0.000192768
0.000166758
0.000234419
0.00220377
0.000148415
0.00014971
0.000160527
0.000147483
0.000181519
0.000152581
0.000188429
0.0001487
0.0142049
0.0355595
0.000150244
0.000147929
0.00015281
0.000144733
0.00019244
0.000146215
0.000148962
0.000146865
0.000192431
0.00014795
0.000207997
0.000149872
0.00014909
0.00405499
0.000164926
0.000148386
0.000205199
0.0191346
0.000231887
0.000147405
0.0586543
0.000148113
0.000145632
0.000149916
0.000163291
0.00015334
0.000167197
0.000176635
0.000158224
0.000148762
0.000144767
0.0401214
0.000191552
0.0297271
0.000298204
0.000145897
0.0521907
0.000182461
0.000152074
0.000149077
0.000190588
0.0151225
0.000147434
0.000264884
0.06807
0.0675168
0.000163201
0.000148674
0.000165352
0.000155101
0.000149299
0.000146718
0.000186171
0.00014902
0.000146175
0.000149761
0.0468011
0.0206264
0.0223014
0.0233154
0.000164796
0.000145287
0.0406746
0.000270002
0.000193848
0.000144939
0.000147582
0.000147906
0.000160878
0.000156351
0.000171977
0.000146435
0.000161585
0.0292412
0.000158448
0.000158494
0.000191446
0.000169751
0.00014976
0.0245171
0.000145761
0.039455
0.000148028
0.0173334
0.0295786
0.000199487
0.000176504
0.00014616
0.000145932
0.000148197
0.000147647
0.000145382
0.00135689
0.0509084
0.000149349
0.00017142
0.000195693
0.000154876
0.000148689
0.000990169
0.000156835
0.0203566
0.0162067
0.049781
0.000175392
0.000148458
0.000146931
0.0524291
0.000144589
0.000148102
0.000158926
0.00020856
0.000155445
0.000148499
0.000206371
0.0002033
0.000219033
0.0251994
0.055357
0.000146482
0.00014677
0.000205219
0.00014543
0.000148651
0.000146087
0.00022899
0.000205734
0.000149238
0.000159988
0.0126856
0.000148251
0.00017611
0.000214741
0.000148361
0.000148937
0.000179114
0.000159627
0.000167049
0.0190984
0.000193279
0.00014969
0.000149045
0.000143279
0.0273378
0.000145645
0.048585
0.000148088
0.00211496
0.000149595
0.000149708
0.00015531
0.000151337
0.000199736
0.0258285
0.000244129
0.000173591
0.000147504
0.000172238
0.000148506
0.000176893
0.000247092
0.00014451
0.000178681
0.000149338
0.000145135
0.000149196
0.0302447
0.000190756
0.000149084
0.000152304
0.000188993
0.000149886
0.000206531
0.00275591
0.0316495
0.00878971
0.000151566
0.000188168
0.000148226
0.0211315
0.000155981
0.000149301
0.0249111
0.000157298
0.00575983
0.000149187
0.000192786
0.000167911
0.000149884
0.0170016
0.0230409
0.000168329
0.0338608
0.0436947
0.031768
0.000159741
0.000366843
0.000148541
0.000148748
0.000196248
0.0478874
0.000169879
0.00014868
0.000145109
0.000148346
0.000149201
0.000148552
0.0471353
0.0282073
0.000147575
0.000237336
0.000156378
0.000162128
0.0418218
0.0232023
0.000145834
0.000147081
0.000165786
0.0205304
0.00014948
0.00585286
0.000146291
0.000145361
0.000158139
0.000145012
0.000318289
0.000144572
0.042769
0.0182502
0.000153704
0.000178046
0.000152769
0.0001815
0.000147947
0.000154306
0.0214783
0.000234578
0.000148004
0.000199273
0.000154174
0.0209925
0.000191691
0.000146322
0.000151195
0.0646404
0.036351
0.000267177
0.000146466
0.000153968
0.000385795
0.066114
0.000157717
0.000159298
0.000246782
0.000161439
0.000154084
0.022148
0.000191492
0.000187535
0.000265329
0.000149891
0.000151037
0.000146438
0.0261845
0.000151344
0.000150135
0.0587146
0.000149739
0.000149324
0.000148907
0.000195442
0.000148486
0.0483082
0.000148513
0.000179417
0.000158238
0.000191769
0.000157031
0.000164535
0.000155
0.000194656
0.036494
0.0216037
0.000148245
0.0597743
0.00015783
0.000195116
0.000157653
0.000158961
0.000149756
0.000157922
0.000146554
0.0159582
0.000201906
0.000150284
0.000147233
0.000149844
0.000164826
0.000144617
0.000160329
0.00379718
0.00015029
0.000163898
0.0116887
0.00151994
0.000157472
0.000232358
0.000149535
0.000144606
0.000148998
0.000171474
0.000147879
0.000147227
0.000146297
0.000148743
0.000145341
0.0177825
0.000154907
0.0437504
0.0350925
0.000149872
0.000197082
0.000148506
0.00015845
0.0145954
0.000923995
0.0342496
0.000147462
0.000162196
0.00014431
0.00014484
0.0112032
0.000168321
0.000208404
0.000144556
0.000146854
0.000147976
0.000153424
0.00032667
0.000195507
0.000146923
0.00014994
0.000149394
0.00265733
0.000192586
0.000147784
0.0034409
0.00129883
0.0230277
0.000158193
0.000184953
0.0001935
0.000146308
0.000146121
0.000148454
0.000147051
0.00760922
0.0532956
0.000192936
0.000159954
0.000207229
0.000270151
0.000158032
0.000148359
0.000147996
0.000216563
0.000159759
0.000169883
0.000160104
0.000148078
0.000165188
0.000159753
0.000153817
0.000150937
0.0546714
0.0279506
0.000146286
0.000165702
0.000151075
0.00014562
0.000149796
0.0336861
0.00014783
0.000203769
0.000163147
0.000151088
0.000149159
0.000147955
0.00320418
0.000149873
0.000177631
0.0648519
0.0427021
0.000146399
0.000183335
0.000151558
0.000149687
0.000145353
0.000154182
0.000148824
0.000175728
0.000147948
0.00042121
0.000155848
0.000147817
0.000151369
0.000166844
0.000159393
0.000158225
0.000159259
0.000159086
0.000144773
0.000144203
0.000173201
0.000147088
0.000651594
0.000149697
0.000187415
0.0394717
0.0388045
0.00014681
0.000212558
0.000165262
0.0466567
0.049334
0.000309727
0.0213823
0.000144847
0.0560023
0.00015105
0.000153168
0.000210034
0.0457288
0.000170353
0.0015398
0.000146965
0.000154837
0.000215764
0.000203744
0.03749
0.00026859
0.000180823
0.000156685
0.0256336
0.000154758
0.000255086
0.00014883
0.000179024
0.000218217
0.000152652
0.000183696
0.000144131
0.000148563
0.000174717
0.000148404
0.0380369
0.000159767
0.000148524
0.000220847
0.0276837
0.00014495
0.0243919
0.000154633
0.000145934
0.035021
0.0465194
0.000150943
0.000147158
0.000148809
0.000191604
0.000154264
0.0518011
0.0251992
0.000205052
0.0522695
0.000149022
0.000173721
0.000149681
0.0250868
0.000148204
0.00022303
0.0424644
0.000194789
0.0291319
0.000147357
0.000146339
0.000143257
0.000148294
0.000149757
0.000160746
0.0624802
0.000154316
0.000174518
0.000884571
0.0332243
0.030176
0.0229343
0.000147101
0.000147136
0.000165299
0.000151003
0.0240191
0.000170313
0.0001464
0.057166
0.0304824
0.000149961
0.000148589
0.000146148
0.0107159
0.000156625
0.000147056
0.000147454
0.000148796
0.00014846
0.000147718
0.000145331
0.000202155
0.000144203
0.000303696
0.000188508
0.000153169
0.000159506
0.000153464
0.000148403
0.000173836
0.000149763
0.000149872
0.000166772
0.000255664
0.000146362
0.000166239
0.000152083
0.000168575
0.0573853
0.000144747
0.000163291
0.00014778
0.0115613
0.000151217
0.0250134
0.00125164
0.0368449
0.0691841
0.000269376
0.000194072
0.000403031
0.0565462
0.000151057
0.0635789
0.000148223
0.000210388
0.0382316
0.000176002
0.00014596
0.000149315
0.000145749
0.0697918
0.000180674
0.000144961
0.000144563
0.000147572
0.000191572
0.000204593
0.000149266
0.000178379
0.055575
0.000145237
0.000186316
0.000146599
0.000147354
0.000147774
0.000158339
0.0697699
0.000215253
0.000222521
0.000203119
0.0687595
0.000193832
0.00145599
0.0333409
0.000239144
0.061913
0.000146856
0.000188458
0.000148795
0.000149378
0.000148867
0.000161287
0.000148108
0.000151592
0.00630125
0.000152655
0.000154515
0.000154863
0.000161235
0.000146153
0.000200512
0.000149707
0.000149935
0.000193217
0.000170268
0.0300578
0.000163059
0.00015266
0.000172488
0.0705546
0.0114557
0.000149409
0.000196699
0.000152403
0.000166491
0.000148614
0.000149582
0.000153817
0.049692
0.000166334
8.90886e-05
0.000158225
0.0110807
0.0542214
0.0522994
0.0210398
0.000147547
0.000146309
0.0612101
0.000174438
0.000169602
0.0271063
0.000148754
0.000145022
0.000149835
0.000151853
0.00018723
0.0185231
0.000182573
0.000144888
0.000146427
0.000148634
0.000175958
0.000250838
0.000148161
0.000160929
0.000176505
0.000148021
0.000167601
0.000209437
0.0333677
0.0315379
0.00014735
0.000173521
0.0448213
0.000174403
0.00015857
0.000170941
0.0301186
0.000149109
0.000144028
0.000145681
0.00014608
0.000151795
0.0121746
0.000144049
0.000148501
0.000171713
0.000158671
0.0206787
0.00015364
0.000156631
0.000160481
0.000163478
0.000149145
0.043562
0.000149075
0.000149758
0.000191662
0.000163364
0.000146651
0.000149769
0.000170254
0.0486903
0.000158098
0.000154315
0.000188404
0.000170007
0.000154972
0.0321801
0.0305217
0.000158626
0.000150737
0.000150551
0.0166143
0.000219501
0.000160191
0.000176644
0.000144618
0.000183471
0.000146757
0.000156922
0.0201941
0.000157438
0.000169299
0.000153659
0.000506471
0.000177958
0.000148898
0.0001951
0.000191481
0.000149663
0.000179905
0.000148785
0.000170587
0.0184002
0.0168008
0.000655283
0.000170898
0.000234103
0.000198788
0.000180107
0.000148256
0.000148112
0.000156524
0.00016485
0.0588652
0.000160455
0.000150093
0.000148894
0.0594044
0.000181255
0.0641324
0.000151711
0.000146439
0.0114337
0.0566232
0.000148098
0.000149508
0.000145874
0.000162002
0.000174564
0.00015118
0.000157299
0.0001636
0.000158891
0.025766
0.000147982
0.000156142
0.0388578
0.000144743
0.000176981
0.000143927
0.000157826
0.0592698
0.000157503
0.000164971
0.000145704
0.000146817
0.00019176
0.000149198
0.000148128
0.00014844
0.000163365
0.000189188
0.000157621
0.000170615
0.000147995
0.000146366
0.000162403
0.0300839
0.0436617
0.000157712
0.0192603
0.000157942
0.000154534
0.000154207
0.0129405
0.000153774
0.000149079
0.000148349
0.000190282
0.000161911
0.000184117
0.000149985
0.000148408
0.0105815
0.000151116
0.00014965
0.0380628
0.000157528
0.000148555
0.000144752
0.000164272
0.0215078
0.0221725
0.000145896
0.000160259
0.00015417
0.000146759
0.000145323
0.000163744
0.000158861
0.000186178
0.000144986
0.00016636
0.000165847
0.0193965
0.000159092
0.0668882
0.000207495
0.000151293
0.0221012
0.000269225
0.000210666
0.000165598
0.000164958
0.00014906
0.000148841
0.000159557
0.0356229
0.000394438
0.000148718
0.0583011
0.000148783
0.000164799
0.000173125
0.000159615
0.000149005
0.000231072
0.0502881
0.000143483
0.000148066
0.000163877
0.000147622
0.000159537
0.000184727
0.00146343
0.000162946
0.000149868
0.000144919
0.000173496
0.000166301
0.000197206
0.000153559
0.000204472
0.000160138
0.000195985
0.000173109
0.000200178
0.000194655
0.000181182
0.000201376
0.0184828
0.000157033
0.00056507
0.000157026
0.000193247
0.000148447
0.000145037
0.000161086
0.000147687
0.000177683
0.000237953
0.000169134
0.000157707
0.0503259
0.000165599
0.000157885
0.0387452
0.000146314
0.000338427
0.000172241
0.000149876
0.0436722
0.000207109
0.000172923
0.000172839
0.0218064
0.000161395
0.000149594
0.00017401
0.000165872
0.0208343
0.000171254
0.00016475
0.000165017
0.000158329
0.000182517
0.000176191
0.000244641
0.00256535
0.000154215
0.000146281
0.000150073
0.0472529
0.000163045
0.00015318
0.000157298
0.022716
0.000161256
0.0001485
0.000164438
0.000146325
0.000148412
0.000157009
0.000193527
0.000147944
0.018563
0.000149693
0.000146633
0.00017492
0.000161431
0.017884
0.000147504
0.000151283
0.0548167
0.000163703
0.000148125
0.0346826
0.0190723
0.000158054
0.000205923
0.000155308
0.000163807
0.0300086
0.00016269
0.000664603
0.000207675
0.000172322
0.000165568
0.00016527
0.000145845
0.000148182
0.000146128
0.000166552
0.000209562
0.0461451
0.000159839
0.000175486
0.000147434
0.000145784
0.000152426
0.043937
0.000156887
0.000162489
0.000154742
0.000148723
0.0150048
0.000148694
0.000144371
0.000215255
0.000149574
0.000148003
0.000146748
0.000149486
0.000153129
0.019893
0.000191705
0.00014897
0.00014408
0.000170486
0.000153033
0.000154499
0.0238235
0.000492786
0.0414604
0.000148161
0.000175994
0.0368783
0.0696614
0.000218657
0.00750601
0.000155837
0.000147999
0.0208079
0.000164433
0.0315099
0.000152038
0.000148076
0.000152007
0.000152989
0.0223484
0.0192799
0.000154497
0.000163308
0.000213433
0.000149424
0.00455375
0.0624799
0.000151685
0.000176275
0.0640828
0.000147308
0.000206592
0.0374049
0.000149736
0.00014713
0.0394743
0.000147868
0.000148442
0.000155076
0.0234139
0.0218279
0.000146034
0.000163768
0.000150783
0.0250112
0.000205063
0.000148511
0.000145287
0.0279039
0.0347786
0.043838
0.000144828
0.000145876
0.000148372
0.000176551
0.000165572
0.000158426
0.000146716
0.00015718
0.0407148
0.000176401
0.000145943
0.0461227
0.000163767
0.000146112
0.00015314
0.000159566
0.000148537
0.000193446
0.00016767
0.0410495
0.000176679
0.000164792
0.018526
0.000161316
0.00019417
0.0215156
0.000166034
0.0458354
0.000163
0.0415456
0.0393341
0.01803
0.000164005
0.0663472
0.000201426
0.00014656
0.000156452
0.000185786
0.000173857
0.00016142
0.0547484
0.000153268
0.000145978
0.000159357
0.000144763
0.00014751
0.000155753
0.000187155
0.000191892
0.000163782
0.00539791
0.000148939
0.000153905
0.000146242
0.000148412
0.000177908
0.000152517
0.000153155
0.000149656
0.000148501
0.000212338
0.000146657
0.000148847
0.000179102
0.000153415
0.0324596
0.000171978
0.000268498
0.000163658
0.000153534
0.000150499
0.000192675
0.000148032
0.0464599
0.0214755
0.000151931
0.000148654
0.0448789
0.000201268
0.000201056
0.0248154
0.000144137
0.000148036
0.000156311
0.000577094
0.000153606
0.000148922
0.000168615
0.000164681
0.0156028
0.0397446
0.000675047
0.00018684
0.000149465
0.000624702
0.000151533
0.000156987
0.000147689
0.000156911
0.000186556
0.000176179
0.000249655
0.00014728
0.000157626
0.000156751
0.000148109
0.0193932
0.000164129
0.000156738
0.000400822
0.000243937
0.000147652
0.000145872
0.000156467
0.0456116
0.000144261
0.000175898
0.000158039
0.000151044
0.000172233
0.000169247
0.000152654
0.0289803
0.000149401
0.000191461
0.000163618
0.000178734
0.000169298
0.000152985
0.000363525
0.000168121
0.000149252
0.000160247
0.000175544
0.000146066
0.000168443
0.00016287
0.0276157
0.000149573
0.00764333
0.000148029
0.00016231
0.000161961
0.000146655
0.0220672
0.000185129
0.000145828
0.000174992
0.000148473
0.000149074
0.000146988
0.000152358
0.000157568
0.000174587
0.000149869
0.000155471
0.000181447
0.000166579
0.000179178
0.000174005
0.000146299
0.000150462
0.000146232
0.000169302
0.000146607
0.000154587
0.000201018
0.000190758
0.000148199
0.000148428
0.000147693
0.000186734
0.000148964
0.000154038
0.000194751
0.000158892
0.00716573
0.000199121
0.000149708
0.000177329
0.0307456
0.000148664
0.000148109
0.0346401
0.000172091
0.000170385
0.000148691
0.000145413
0.000143551
0.000151896
0.0332811
0.0266522
0.000148168
0.000190029
0.000170977
0.000156679
0.000146129
0.000149489
0.0283875
0.000149126
0.000147853
0.0119624
0.000720035
0.000145059
0.000144762
0.000148005
0.0319629
0.000152048
0.000150501
0.0284439
0.0246796
0.000147176
0.000160696
0.000148911
0.000195048
0.000206101
0.000148088
0.0631424
0.000155751
0.000183762
0.000146964
0.000368101
0.0311849
0.000180242
0.0258004
0.044066
0.000144067
0.0248534
0.000148029
0.00014722
0.0174438
0.000149588
0.00019667
0.000159607
0.00345811
0.000148099
0.00687334
0.033424
0.000147919
0.000149774
0.00019178
0.0180608
0.000154695
0.000148769
0.00015984
0.000186247
0.000160683
0.000146988
0.0273516
0.00015087
0.000158773
0.000151886
0.00017449
0.0259855
0.000146683
0.0302734
0.000182688
0.000209337
0.000149563
0.000151615
0.000177242
0.00020412
0.0675758
0.00014697
0.000148182
0.000145839
0.000363782
0.000201276
0.0231242
0.0708074
0.000188658
0.000145841
0.000149052
0.000147554
0.046084
0.000147317
0.026842
0.0604258
0.000149235
0.000192982
0.000171012
0.000167543
0.000185886
0.000147939
0.000146213
0.000229908
0.00125807
0.000146157
0.000150594
0.0415933
0.000247369
0.000156464
0.000276226
0.000150781
0.000150147
0.0497905
0.066412
0.00014863
0.000153111
0.000145929
0.0229363
0.068317
0.00014628
0.00014718
0.000150807
0.000148208
0.0001595
0.000156065
0.000148225
0.038281
0.000197587
0.000159089
0.000153643
0.00439516
0.000146132
0.000148903
0.000147798
0.0352253
0.000201721
0.000149222
0.000147638
0.021034
0.000158901
0.0491864
0.000149226
0.0339192
0.0521934
0.000171241
0.000146174
0.000149157
0.000147279
0.000162783
0.000225203
0.000193098
0.000277775
0.000162627
0.000148653
0.000221649
0.00459865
0.0176769
0.000160747
0.000146832
0.000146299
0.000143552
0.000206014
0.00414434
0.000152722
0.000160146
0.000147186
0.000148375
0.00014703
0.000174776
0.00014773
0.000189144
0.000145741
0.000181537
0.0376025
0.047464
0.0176172
0.000206211
0.000148408
0.000158528
0.000186803
0.000170567
0.000153484
0.000156988
0.000148324
0.000147708
0.000154927
0.000146736
0.000146881
0.000179786
0.000145389
0.000161467
0.0218099
0.000148974
0.00015821
0.000195641
0.000149762
0.0545817
0.000168878
0.000158583
0.000148427
0.000143776
0.000358119
0.000148191
0.000154422
0.000145745
0.000148111
0.000148994
0.000240018