/*--------------------------------*- C++ -*----------------------------------*\
| =========                 |                                                 |
| \\      /  F ield         | OpenFOAM: The Open Source CFD Toolbox           |
|  \\    /   O peration     | Version:  v2012                                 |
|   \\  /    A nd           | Website:  www.openfoam.com                      |
|    \\/     M anipulation  |                                                 |
\*---------------------------------------------------------------------------*/
FoamFile
{
    version     2.0;
    format      ascii;
    class       volScalarField;
    location    "200";
    object      k_0;
}
// * * * * * * * * * * * * * * * * * * * * * * * * * * * * * * * * * * * * * //

dimensions      [0 2 -2 0 0 0 0];


internalField   nonuniform List<scalar> 
14804
(
0.0232929
0.000146405
0.000189496
0.000161326
0.000166357
0.000180201
0.000151406
0.000148691
0.000191273
0.000149166
0.000237525
0.000190966
0.000149397
0.000167062
0.000200666
0.0548693
0.000167147
0.000159937
0.00533462
0.000173869
0.00014994
0.000154049
0.000162594
0.000150273
0.0169266
0.000150263
0.000166401
0.000166209
0.0211862
0.000150415
0.000146332
0.000161203
0.000173832
0.00017021
0.000189455
0.000151413
0.000671529
0.000149579
0.0322362
0.000173436
0.000189492
0.000188368
0.000177811
0.000147663
0.000166304
0.000151372
0.00509516
0.000149203
0.000154439
0.000222974
0.000149493
0.000145937
0.000148069
0.000154537
0.000237221
0.00565348
0.00023337
0.0201028
0.000148736
0.000151474
0.0117913
0.000149642
0.000147648
0.00886207
0.000147637
0.000148212
0.000149873
0.000150876
0.000148231
0.0355026
0.000146854
0.000165408
0.000247348
0.040525
0.000150077
0.0357811
0.0485955
0.00014636
0.000164723
0.000144128
0.044828
0.000148201
0.000144343
0.000150102
0.000149687
0.000200402
0.000145443
0.000152132
0.000145966
0.000166141
0.000165323
0.000153091
0.000186354
0.000146309
0.000223265
0.0508439
0.0217364
0.000160565
0.000149856
0.000256134
0.0207248
0.035514
0.000149755
0.000169193
0.000206078
0.0366142
0.000190707
0.000203791
0.000148363
0.000146502
0.000147826
0.0214119
0.000186532
0.0260232
0.0213393
0.0398635
0.000212056
0.000166077
0.000149658
0.000160361
0.0481229
0.000145981
0.000153089
0.000170905
0.000148783
0.000149697
0.000212114
0.000168217
0.000163553
0.000165253
0.000165095
0.000201966
0.0305733
0.000229422
0.00272034
0.000170358
0.000147704
0.00224477
0.00014995
0.000170433
0.000147082
0.0441169
0.000148659
0.0246727
0.0259447
0.000148339
0.000205397
0.000148371
0.000227464
0.00659011
0.000191276
0.00724911
0.000174088
0.000169323
0.00014427
0.0220087
0.000164467
0.000254375
0.0200286
0.000248899
0.000146877
0.000147488
0.0309909
0.00861278
0.000155827
0.0221517
0.000149331
0.0123758
0.000150296
0.000148686
0.000250469
0.00015447
0.000195517
0.000198623
0.000988373
0.000235022
0.000161093
0.000172405
0.000144873
0.00023998
0.000180214
0.0556218
0.000150937
0.00015706
0.000152775
0.022245
0.000179385
0.000178237
0.00015788
0.00014463
0.00017683
0.00771115
0.000148522
0.0028415
0.000161915
0.000147214
0.0347355
0.00014926
0.00017792
0.0158252
0.0259495
0.000144598
0.000153074
0.000188398
0.000151085
0.0188427
0.000163765
0.000440796
0.000167066
0.000151494
0.000150308
0.0111836
0.000151066
0.000146874
0.000150617
0.000150165
0.000168509
0.00014724
0.000148153
0.000147535
0.000157078
0.000187644
0.000178004
0.0001541
0.000147221
0.000301576
0.000173498
0.00239385
0.0305083
0.000153589
0.000146318
0.000152685
0.000148169
0.0355217
0.0401992
0.000149751
0.000151248
0.000205303
0.000197144
0.000156299
0.0411009
0.000202318
0.000149804
0.000147598
0.000145771
0.00020229
0.000159673
0.00015571
0.000162553
0.00014676
0.0455988
0.000147207
0.000147136
0.000146389
0.0275476
0.000150904
0.000144672
0.000154242
0.000146717
0.000148432
0.00988934
0.00015792
0.000163491
0.000149048
0.00044383
0.000149614
0.00016324
0.000145611
0.0190747
0.0127177
0.0538948
0.0597947
0.000149778
0.000148762
0.0491837
0.000203378
0.000152355
0.022748
0.000170195
0.0364691
0.000205988
0.00014657
0.0147978
0.0115349
0.0497949
0.000673851
0.000170916
0.000152313
0.000157805
0.000214908
0.000147155
0.000149292
0.000153959
0.00015024
0.000179149
0.000141349
0.000203992
0.000163338
0.000147241
0.000157871
0.000145471
0.000146616
0.000158992
0.00017376
0.00016424
0.000150707
0.017082
0.0369685
0.00019871
0.0245056
0.0173253
0.000150289
0.00015591
0.000156056
0.0277189
0.000150666
0.00943688
0.000213422
0.000143853
0.0505318
0.000204328
0.000211176
0.00179879
0.0156364
0.000149685
0.000172982
0.000208762
0.00014879
0.000924063
0.0227034
0.000169133
0.000166449
0.000160794
0.000155384
0.000148466
0.000146119
0.000146681
0.0262345
0.000150527
0.000195476
0.00015395
0.000149735
0.000160158
0.000149498
0.000146318
0.0237702
0.0503771
0.0339575
0.00019264
0.0302995
0.0226366
0.000154218
0.000148136
0.000145563
0.000150501
0.000205225
0.00014945
0.00575714
0.000144544
0.000147102
0.000150359
0.000198198
0.000185627
0.00019523
0.0621816
0.039285
0.000152056
0.000164862
0.000178539
0.000147327
0.000153206
0.000149044
0.000164411
0.000150452
0.000146309
0.032107
0.00014571
0.000149741
0.0305027
0.000259605
0.00109755
0.000160542
0.000175996
0.0527403
0.000159667
0.000147267
0.0559581
0.000151363
0.000148528
0.0553333
0.000157311
0.000144796
0.000150334
0.000154458
0.026614
0.000153318
0.000211769
0.000165762
0.0655585
0.000149107
0.000197096
0.000147516
0.00020733
0.0266332
0.000164801
0.000154105
0.000217721
0.000149407
0.000173294
0.000149766
0.000147422
0.000159398
0.0384512
0.000149147
0.000150338
0.000351431
0.000148585
0.000160578
0.000150264
0.0230348
0.000214582
0.000179075
0.000145061
0.0310583
0.000153983
0.00016637
0.0608824
0.000163516
0.000158181
0.000145723
0.000152365
0.000150112
0.000243192
0.000148379
0.000151445
0.000148331
0.000145457
0.0233411
0.000147138
0.000150244
0.000172201
0.0486075
0.000146577
0.000149604
0.000145494
0.000157803
0.0275633
0.0305011
0.000203458
0.000153073
0.0344156
0.000153132
0.00014966
0.000149752
0.000148866
0.000147491
0.000158941
0.0338264
0.000154515
0.000149693
0.00469843
0.00014545
0.000252987
0.000220072
0.000166949
0.00277607
0.000160656
0.0367078
0.000179206
0.000149729
0.000149692
0.000159235
0.000148584
0.000146539
0.0292862
0.000161046
0.000149278
0.000163674
0.0213108
0.0497109
0.000170297
0.000159672
0.000155809
0.000187669
0.000149905
0.00015626
0.0344801
0.000148354
0.000146589
0.000166279
0.000156444
0.00048801
0.000169928
0.000145957
0.000163279
0.000149684
0.00014834
0.0120206
0.000170768
0.000147407
0.000195644
0.000150216
0.000147037
0.000165433
0.0457162
0.000148375
0.00014759
0.00014542
0.00014711
0.0141929
0.000148407
0.00014966
0.00502648
0.00014814
0.000149963
0.0652183
0.000148301
0.000515129
0.000143729
0.000212869
0.0101624
0.000276003
0.0001491
0.000148604
0.000165047
0.000152589
0.000143792
0.000151782
0.00014545
0.000162808
0.000145741
0.000165452
0.00016691
0.000150199
0.0501253
0.000186888
0.0462924
0.000154325
0.000143722
0.000196356
0.000148093
0.000158718
0.000207129
0.000158678
0.000207987
0.0345139
0.000147462
0.0696433
0.000192805
0.000154423
0.000154098
0.0672303
0.0595709
0.000144114
0.000146529
0.00014669
0.000209013
0.000188486
0.0590867
0.0460279
0.000147613
0.00017894
0.000177056
0.000385514
0.000165658
0.000157178
0.000158553
0.000146731
0.000204588
0.0600384
0.000164629
0.000173768
0.000143865
0.000146744
0.000147101
0.000163579
0.000145868
0.000210353
0.000148505
0.00563958
0.000229198
0.000161994
0.000170846
0.000146741
0.000147272
0.0341435
0.00015181
0.00598394
0.000146242
0.00014713
0.000146904
0.000149695
0.000176511
0.000160826
0.0419205
0.0442099
0.000148543
0.000149697
0.000159181
0.000194187
0.000171009
0.000159974
0.000146669
0.000293902
0.000152924
0.0217931
0.000145036
0.000242589
0.0138823
0.000145796
0.000147546
0.000170069
0.000149946
0.000143801
0.000169742
0.000150114
0.0137793
0.000178512
0.000345275
0.000147069
0.000229152
0.00180333
0.000170277
0.000149943
0.014193
0.000146762
0.000213032
0.000148171
0.000149114
0.0102523
0.000192685
0.000325603
0.00017864
0.000159529
0.000144592
0.0414346
0.00014685
0.0146355
0.000316607
0.00015968
0.000145709
0.000147763
0.000165038
0.000159401
0.000149516
0.000185949
0.000171373
0.000165741
0.000148529
0.0504909
0.0446328
0.000241565
0.000147591
0.000165423
0.000144192
0.00014951
0.000163249
0.0183755
0.000159734
0.0364381
0.000164307
0.000199736
0.000205559
0.000148705
0.060944
0.00953136
0.000146777
0.00016113
0.000197084
0.000160012
0.000160341
0.000155157
0.000160716
0.00214985
0.000145582
0.000170212
0.000146157
0.000149398
0.0224003
0.0517946
0.000173732
0.000148259
0.000144761
0.000144166
0.000152757
0.000162411
0.0636206
0.000178572
0.00021229
0.00612213
0.000176933
0.000158994
0.0125707
0.000148619
0.0390474
0.000151686
0.000147011
0.000148135
0.000160178
0.000181297
0.000145396
0.000154348
0.000168993
0.000192987
0.000158724
0.000207055
0.000148333
0.000205323
0.00017552
0.000170113
0.000168014
0.000148959
0.000149167
0.0247887
0.0404124
0.000148614
0.000192616
0.000148258
0.000144679
0.000148536
0.000153125
0.000181448
0.000146398
0.000161887
0.000146859
0.000156054
0.000147767
0.000169587
0.000151825
0.000145765
0.000148389
0.00017767
0.000170516
0.00283599
0.0009754
0.000146838
0.000147537
0.000147163
0.0211703
0.000157024
0.000177929
0.0502699
0.000161108
0.000158524
0.0214834
0.000146978
0.000146901
0.000147453
0.000146699
0.000195652
0.000148292
0.000144681
0.000258619
0.00019671
0.000156052
0.000146477
0.0234745
0.0456773
0.000176551
0.000156092
0.000160889
0.00151851
0.000176227
0.00834632
0.000271467
0.000192588
0.0193677
0.000152907
0.000161695
0.000219189
0.000146519
0.000276666
0.000151057
0.000149601
0.0621768
0.000164227
0.000171958
0.0148601
0.000193176
0.000147072
0.0212415
0.000146341
0.000151587
0.000154933
0.000152232
0.000149526
0.0369744
0.0600625
0.000166165
0.000203062
0.000155283
0.0148772
0.00334794
0.00016247
0.0494724
0.000151062
0.000146323
0.00014535
0.000148538
0.000148286
0.00699077
0.000161557
0.0508919
0.000213412
0.000149381
0.000178142
0.000160393
0.000146922
0.000149258
0.0531324
0.011188
0.000150109
0.000177849
0.000149547
0.000147265
0.000170736
0.000154452
0.044407
0.000202111
0.00208299
0.00509262
0.000158251
0.000206312
0.000148597
0.00659666
0.000195242
0.000146776
0.000158866
0.0107145
0.000147552
0.000167989
0.000145261
0.00618062
0.000168116
0.000149862
0.000149514
0.000146128
0.00014582
0.000155723
0.0230405
0.000146702
0.000146991
0.000159189
0.000149807
0.0417082
0.000170866
0.000147934
0.000144791
0.000148354
0.000162152
0.000148623
0.000147023
0.000203652
0.00113061
0.000147687
0.000144449
0.000172384
0.0107354
0.000148005
0.000147428
0.000147237
0.000194143
0.000144674
0.0293719
0.000169858
0.000175849
0.000282556
0.000472443
0.000146837
0.000246175
0.000143089
0.0209
0.000165285
0.000157964
0.000148386
0.000148119
0.0260042
0.000149231
0.0213941
0.000147302
0.000183166
0.0110972
0.0591402
0.000201291
0.000149056
0.0123711
0.000149936
0.000146722
0.000159006
0.000243099
0.000149559
0.000208748
0.000179938
0.000149732
0.000161226
0.000149765
0.000149836
0.000148349
0.000148907
0.000147062
0.00019206
0.000148558
0.000172269
0.000152176
0.0257862
0.00014994
0.000838459
0.000144714
0.000163195
0.000163014
0.000197324
0.000170611
0.000175647
0.000159753
0.000156576
0.000149864
0.00016022
0.000199875
0.000156435
0.000146302
0.000144601
0.0670916
0.000184996
0.000170493
0.000146854
0.000146441
0.000197024
0.000187606
0.0206337
0.0351523
0.000198372
0.000177965
0.0598823
0.000144388
0.000149312
0.00560644
0.00016501
0.000225635
0.000183282
0.000148458
0.000146579
0.000190978
0.000145327
0.0169121
0.000153696
0.000180074
0.00014541
0.000204171
0.000149047
0.00357738
0.000146696
0.000146717
0.000172268
0.000199819
0.000206489
0.038777
0.000171183
0.0206014
0.000156599
0.000171109
0.0202481
0.000165338
0.000212558
0.000149871
0.000145174
0.000191064
0.025733
0.000181903
0.000153762
0.000146805
0.000178931
0.000149802
0.0329758
0.013379
0.000147329
0.000149398
0.000147452
0.000158945
0.000563485
0.000149511
0.0149029
0.000284646
0.0300014
0.000166801
0.000149684
0.000148878
0.00145285
0.000146903
0.00251136
0.000153816
0.000167176
0.000147702
0.000148071
0.000181885
0.000176826
0.00139685
0.000223122
0.000167413
0.000144179
0.00014915
0.000149327
0.0141561
0.000188306
0.00982968
0.000148809
0.0362662
0.000204457
0.000175084
0.000150558
0.000150213
0.000148312
0.000149315
0.0369116
0.000170128
0.000144829
0.000193785
0.000262215
0.000159988
0.000170296
0.000160978
0.000147292
0.00025376
0.000148973
0.00016711
0.000148622
0.000175255
0.000172634
0.0001475
0.0251958
0.000151583
0.018059
0.000145597
0.000148884
0.000144951
0.0213283
0.0448882
0.000159368
0.000205773
0.000190561
0.000149843
0.00015216
0.000148666
0.0700549
0.0115168
0.00019691
0.000219396
0.000148583
0.000152596
0.01351
0.00015326
0.000161331
0.00252642
0.000154185
0.000154782
0.03684
0.000192797
0.068739
0.000152538
0.000170787
0.000151539
0.000396892
0.0279171
0.000148654
0.000152474
0.0314132
0.00019256
0.000177963
0.000150951
0.0218719
0.0371037
0.000148402
0.000177859
0.000144087
0.000147796
0.0317422
0.000147851
0.000171297
0.00016274
0.000206893
0.00014821
0.000148413
0.000144881
0.000164157
0.000153736
0.0130321
0.0624595
0.000170152
0.00186723
0.000145474
0.000146785
0.000149033
0.00014808
0.000164195
0.000159605
0.0272688
0.000164035
0.000150697
0.0001787
0.000144609
0.000147032
0.00014649
0.000235982
0.0373442
0.0270715
0.0001472
0.000166983
0.0187793
0.000148001
0.000147016
0.00015117
0.0551021
0.0194527
0.000150313
0.000191708
0.000171531
0.000155873
0.000154595
0.000148621
0.000194258
0.000192767
0.000166758
0.000235359
0.00235006
0.000148415
0.00014971
0.000160527
0.000147483
0.000181519
0.000152581
0.000188431
0.0001487
0.0142049
0.0355595
0.000150244
0.000147929
0.00015281
0.000144733
0.000192441
0.000146215
0.000148962
0.000146865
0.000192422
0.00014795
0.000207793
0.000149872
0.00014909
0.00405499
0.000164926
0.000148386
0.000205203
0.0191345
0.000225117
0.000147405
0.0586545
0.000148113
0.000145632
0.000149916
0.000163291
0.00015334
0.000167194
0.000176635
0.000158224
0.000148762
0.000144767
0.0401212
0.000191553
0.0297269
0.000315418
0.000145897
0.0521899
0.000182461
0.000152074
0.000149077
0.000190593
0.0151225
0.000147434
0.000265023
0.0680689
0.067515
0.000163202
0.000148674
0.000165352
0.000155101
0.000149299
0.000146718
0.000186172
0.00014902
0.000146175
0.000149761
0.0468013
0.0206264
0.022302
0.0233152
0.000164796
0.000145287
0.0406747
0.000268509
0.000193846
0.000144939
0.000147582
0.000147906
0.000160878
0.000156351
0.000171969
0.000146435
0.000161585
0.0292411
0.000158448
0.000158494
0.000191441
0.00016975
0.00014976
0.0245169
0.000145761
0.0394554
0.000148028
0.0173334
0.0295784
0.000199493
0.000176504
0.00014616
0.000145932
0.000148197
0.000147647
0.000145382
0.0012138
0.0509078
0.000149349
0.000171447
0.000195695
0.000154876
0.000148689
0.000892197
0.000156835
0.0203934
0.0162067
0.0497813
0.000175392
0.000148458
0.000146931
0.052428
0.000144589
0.000148102
0.000158926
0.000208551
0.000155445
0.000148499
0.000206326
0.0002033
0.000218648
0.0251991
0.055356
0.000146482
0.00014677
0.000205237
0.00014543
0.000148651
0.000146087
0.000228625
0.000205571
0.000149238
0.000159988
0.0126856
0.000148251
0.00017611
0.000214621
0.000148361
0.000148937
0.000179114
0.000159626
0.000167049
0.0190984
0.000193272
0.00014969
0.000149045
0.000143279
0.027337
0.000145645
0.0485852
0.000148088
0.00211525
0.000149595
0.000149708
0.00015531
0.000151337
0.000199838
0.0258279
0.000241594
0.000173591
0.000147504
0.000172238
0.000148506
0.000176892
0.000246832
0.00014451
0.000178682
0.000149338
0.000145135
0.000149196
0.0302443
0.000190758
0.000149084
0.000152304
0.000188993
0.000149886
0.000206558
0.00275977
0.0316494
0.00861653
0.000151566
0.000188166
0.000148226
0.0211316
0.000155981
0.000149301
0.0249108
0.000157298
0.00575929
0.000149187
0.000192787
0.000167911
0.000149884
0.0170016
0.0230407
0.000168329
0.033861
0.0436949
0.0317681
0.000159741
0.000362281
0.000148541
0.000148748
0.000196239
0.0478878
0.000169879
0.00014868
0.000145109
0.000148346
0.000149201
0.000148552
0.0471363
0.0282063
0.000147575
0.000237501
0.000156378
0.000162128
0.0418222
0.0232022
0.000145834
0.000147081
0.000165784
0.0205302
0.00014948
0.00583354
0.000146291
0.000145361
0.000158139
0.000145012
0.000307942
0.000144572
0.0427699
0.0182502
0.000153704
0.000178046
0.000152769
0.000181499
0.000147947
0.000154306
0.0214781
0.000240569
0.000148004
0.000199268
0.000154174
0.0209923
0.000191662
0.000146322
0.000151195
0.0646402
0.036351
0.000266323
0.000146466
0.000153968
0.000385613
0.0661133
0.000157717
0.000159299
0.000246173
0.000161436
0.000154084
0.0221478
0.000191493
0.000187589
0.000264271
0.000149891
0.000151037
0.000146438
0.026183
0.000151344
0.000150135
0.0587149
0.000149739
0.000149324
0.000148907
0.000195445
0.000148486
0.0483079
0.000148513
0.000179416
0.000158238
0.000191766
0.000157031
0.000164536
0.000155
0.000194676
0.0364941
0.0216219
0.000148245
0.0597743
0.00015783
0.000195101
0.000157653
0.000158963
0.000149756
0.000157922
0.000146554
0.0159581
0.000202087
0.000150284
0.000147233
0.000149844
0.000164828
0.000144617
0.000160329
0.00379749
0.00015029
0.000163898
0.0116886
0.00170339
0.000157472
0.000233018
0.000149535
0.000144606
0.000148998
0.000171474
0.000147879
0.000147227
0.000146297
0.000148743
0.000145341
0.0177825
0.000154907
0.0437508
0.0350926
0.000149872
0.00019707
0.000148506
0.00015845
0.0145954
0.000865367
0.0342494
0.000147462
0.000162196
0.00014431
0.00014484
0.0112033
0.000168321
0.00020871
0.000144556
0.000146854
0.000147976
0.000153424
0.000326188
0.000195506
0.000146923
0.00014994
0.000149394
0.0025266
0.000192584
0.000147784
0.00344553
0.00123893
0.0230858
0.000158192
0.000184953
0.000193502
0.000146308
0.000146121
0.000148454
0.000147051
0.00741175
0.0532955
0.00019294
0.000159954
0.000207207
0.000270018
0.000158032
0.000148359
0.000147996
0.000217136
0.000159759
0.000169883
0.000160104
0.000148078
0.000165188
0.000159753
0.000153817
0.000150937
0.0546718
0.0279504
0.000146286
0.000165721
0.000151075
0.00014562
0.000149796
0.0336863
0.00014783
0.000203794
0.000163147
0.000151088
0.000149159
0.000147955
0.00320347
0.000149873
0.00017763
0.0648516
0.0427023
0.000146399
0.000183335
0.000151558
0.000149687
0.000145353
0.000154182
0.000148824
0.00017573
0.000147948
0.000436755
0.000155848
0.000147817
0.000151369
0.000166844
0.000159393
0.000158225
0.000159259
0.000159086
0.000144773
0.000144203
0.000173201
0.000147088
0.000652075
0.000149697
0.000187415
0.0394721
0.0388045
0.00014681
0.000212483
0.000165263
0.046657
0.0493344
0.000309005
0.0213823
0.000144847
0.0560014
0.00015105
0.000153168
0.000209999
0.0457291
0.000170353
0.00171181
0.000146965
0.000154837
0.000215826
0.000203751
0.0374901
0.000267644
0.000180832
0.000156685
0.0256337
0.000154758
0.000254251
0.00014883
0.000179024
0.000218308
0.000152652
0.000183696
0.000144131
0.000148563
0.000174718
0.000148404
0.0380368
0.000159767
0.000148524
0.000220741
0.0276836
0.00014495
0.0243919
0.000154633
0.000145934
0.035021
0.0465204
0.000150943
0.000147158
0.000148809
0.000191607
0.000154264
0.0518006
0.0251991
0.000205065
0.0522695
0.000149022
0.000173719
0.000149681
0.0250863
0.000148204
0.000223285
0.0424649
0.000194793
0.029132
0.000147357
0.000146339
0.000143257
0.000148294
0.000149757
0.000160746
0.0624806
0.000154316
0.000174518
0.000883392
0.0332244
0.0301759
0.022934
0.000147101
0.000147136
0.000165299
0.000151003
0.0240189
0.000170313
0.0001464
0.0571662
0.0304823
0.000149961
0.000148589
0.000146148
0.0107161
0.000156625
0.000147056
0.000147454
0.000148796
0.00014846
0.000147718
0.000145331
0.000202166
0.000144203
0.00030182
0.000188509
0.000153169
0.000159506
0.000153464
0.000148403
0.000173839
0.000149763
0.000149872
0.000166773
0.000256148
0.000146362
0.000166239
0.000152083
0.000168576
0.0573855
0.000144747
0.000163289
0.00014778
0.0115927
0.000151217
0.0250133
0.00135402
0.036845
0.0691836
0.000269739
0.000194084
0.000395745
0.0565455
0.000151057
0.063579
0.000148223
0.000210339
0.0382318
0.000176004
0.00014596
0.000149315
0.000145749
0.0697916
0.000180693
0.000144961
0.000144563
0.000147572
0.000191575
0.000204586
0.000149266
0.000178379
0.0555751
0.000145237
0.000186314
0.000146599
0.000147354
0.000147774
0.000158339
0.06977
0.000215411
0.00022221
0.000203166
0.0687593
0.000193822
0.0015237
0.0333383
0.000236108
0.0619134
0.000146856
0.000188458
0.000148795
0.000149378
0.000148867
0.000161287
0.000148108
0.000151592
0.00637452
0.000152655
0.000154515
0.000154863
0.000161235
0.000146153
0.000200517
0.000149707
0.000149935
0.00019322
0.000170268
0.0300578
0.000163059
0.00015266
0.000172488
0.0705552
0.01139
0.000149409
0.000196727
0.000152403
0.000166492
0.000148614
0.000149582
0.000153817
0.0496915
0.000166334
8.77826e-05
0.000158225
0.0109977
0.0542203
0.0522998
0.0210402
0.000147547
0.000146309
0.0612105
0.000174438
0.000169605
0.027105
0.000148754
0.000145022
0.000149835
0.000151853
0.000187231
0.0185233
0.000182573
0.000144888
0.000146427
0.000148634
0.000175956
0.000250241
0.000148161
0.000160929
0.000176505
0.000148021
0.000167602
0.000209381
0.0333676
0.0315362
0.00014735
0.000173521
0.0448214
0.0001744
0.00015857
0.000170942
0.0301185
0.000149109
0.000144028
0.000145681
0.00014608
0.000151795
0.0121747
0.000144049
0.000148501
0.000171712
0.000158671
0.0206788
0.00015364
0.000156631
0.000160481
0.000163473
0.000149145
0.0435621
0.000149075
0.000149758
0.000191664
0.000163364
0.000146651
0.000149769
0.000170254
0.0486904
0.000158098
0.000154315
0.000188403
0.000170004
0.000154972
0.0321802
0.0305217
0.000158626
0.000150737
0.000150551
0.0166143
0.000220202
0.000160191
0.000176644
0.000144618
0.000183472
0.000146757
0.000156922
0.0201941
0.000157438
0.000169299
0.000153659
0.000506937
0.000177958
0.000148898
0.000195098
0.000191484
0.000149663
0.000179905
0.000148785
0.000170587
0.0183525
0.0168008
0.00071029
0.000170899
0.000234029
0.000198753
0.000180108
0.000148256
0.000148112
0.000156524
0.000164853
0.0588653
0.000160455
0.000150093
0.000148894
0.0594051
0.000181256
0.0641318
0.000151711
0.000146439
0.0114336
0.0566244
0.000148098
0.000149508
0.000145874
0.000162002
0.000174567
0.00015118
0.000157299
0.0001636
0.000158891
0.0257652
0.000147982
0.000156142
0.0388576
0.000144743
0.000176979
0.000143927
0.000157826
0.0592698
0.000157504
0.000164971
0.000145704
0.000146817
0.000191767
0.000149198
0.000148128
0.00014844
0.000163365
0.000189183
0.000157621
0.000170616
0.000147995
0.000146366
0.000162403
0.0300837
0.0436617
0.000157712
0.0192603
0.000157942
0.000154534
0.000154207
0.0127891
0.000153774
0.000149079
0.000148349
0.000190259
0.000161911
0.000184117
0.000149985
0.000148408
0.0105814
0.000151116
0.00014965
0.0380628
0.000157528
0.000148555
0.000144752
0.000164272
0.0214718
0.022173
0.000145896
0.000160259
0.00015417
0.000146759
0.000145323
0.000163744
0.000158861
0.000186178
0.000144986
0.00016636
0.000165847
0.0193966
0.000159092
0.0668875
0.000207533
0.000151293
0.0221011
0.000269042
0.00021012
0.000165598
0.000164958
0.00014906
0.000148841
0.000159557
0.035623
0.000394393
0.000148718
0.0583019
0.000148783
0.000164799
0.000173126
0.000159615
0.000149005
0.000231741
0.0502923
0.000143483
0.000148066
0.000163877
0.000147622
0.000159537
0.000184727
0.0013519
0.000162946
0.000149868
0.000144919
0.000173493
0.000166301
0.000197197
0.000153559
0.000204492
0.00016014
0.000195986
0.000173108
0.000200361
0.000194664
0.000181183
0.000201386
0.0184834
0.000157033
0.000507788
0.000157026
0.000193247
0.000148447
0.000145037
0.000161092
0.000147687
0.000177683
0.000239659
0.000169134
0.000157707
0.0503242
0.000165599
0.000157885
0.0387451
0.000146314
0.000355655
0.000172237
0.000149876
0.043674
0.000207093
0.000172918
0.000172838
0.0218064
0.000161393
0.000149594
0.000174011
0.000165872
0.0208341
0.000171257
0.00016475
0.000165017
0.000158329
0.000182516
0.000176194
0.000241424
0.00256599
0.000154215
0.000146281
0.000150073
0.0472523
0.000163045
0.00015318
0.000157298
0.0226853
0.000161256
0.0001485
0.000164438
0.000146325
0.000148412
0.000157009
0.00019352
0.000147944
0.0185629
0.000149693
0.000146633
0.000174918
0.000161431
0.0178851
0.000147504
0.000151283
0.0548159
0.000163703
0.000148125
0.0346827
0.0190724
0.000158054
0.000205984
0.000155308
0.000163807
0.0300086
0.00016269
0.000645776
0.000207464
0.000172323
0.000165568
0.00016527
0.000145845
0.000148182
0.000146128
0.000166552
0.000209691
0.0461463
0.000159839
0.000175488
0.000147434
0.000145784
0.000152426
0.0439387
0.000156887
0.000162489
0.000154742
0.000148723
0.0150048
0.000148694
0.000144371
0.000215305
0.000149574
0.000148003
0.000146748
0.000149486
0.000153129
0.0198939
0.000191703
0.00014897
0.00014408
0.000170486
0.000153033
0.000154499
0.0238235
0.000492489
0.0414626
0.000148161
0.000175992
0.0368785
0.0696617
0.000218225
0.00751771
0.000155837
0.000147999
0.0208088
0.000164433
0.0315101
0.000152038
0.000148076
0.000152007
0.000152989
0.0223481
0.0192808
0.000154497
0.000163308
0.000213525
0.000149424
0.00456158
0.0624797
0.000151685
0.000176276
0.0640824
0.000147308
0.000206582
0.0374052
0.000149736
0.00014713
0.0394757
0.000147868
0.000148442
0.000155076
0.023507
0.0218277
0.000146034
0.000163768
0.000150783
0.0250112
0.000205009
0.000148511
0.000145287
0.0279029
0.0347787
0.0438378
0.000144828
0.000145876
0.000148372
0.000176551
0.000165572
0.000158426
0.000146716
0.00015718
0.0407149
0.000176401
0.000145943
0.046124
0.000163767
0.000146112
0.00015314
0.000159566
0.000148537
0.000193448
0.00016767
0.0410498
0.00017668
0.000164792
0.018526
0.000161316
0.000194173
0.0215163
0.000166032
0.0458355
0.000163
0.0415469
0.0393344
0.0180301
0.000164005
0.0663444
0.000201423
0.00014656
0.000156452
0.000185786
0.000173856
0.000161421
0.0547479
0.000153268
0.000145978
0.000159356
0.000144763
0.00014751
0.000155753
0.000187155
0.000191902
0.000163782
0.00539787
0.000148939
0.000153905
0.000146242
0.000148412
0.000177908
0.000152517
0.000153155
0.000149656
0.000148501
0.00021233
0.000146657
0.000148847
0.000179102
0.000153415
0.0324599
0.00017198
0.000269703
0.000163658
0.000153534
0.000150499
0.000192671
0.000148032
0.0464787
0.0214761
0.000151931
0.000148654
0.0448794
0.000201271
0.000201046
0.0248156
0.000144137
0.000148036
0.000156311
0.000583283
0.000153606
0.000148922
0.000168615
0.000164681
0.0156028
0.0397444
0.00057535
0.000186841
0.000149465
0.0006191
0.000151533
0.000156987
0.000147689
0.000156911
0.000186557
0.000176179
0.000250038
0.00014728
0.000157626
0.000156751
0.000148109
0.0193932
0.000164129
0.000156738
0.000401636
0.000254793
0.000147652
0.000145872
0.000156467
0.0456114
0.000144261
0.000175898
0.000158039
0.000151044
0.000172237
0.000169236
0.000152654
0.0289866
0.000149401
0.000191457
0.000163618
0.000178734
0.000169299
0.000152985
0.0003637
0.000168118
0.000149252
0.000160247
0.000175544
0.000146066
0.000168443
0.00016287
0.0276157
0.000149573
0.00787693
0.000148029
0.000162309
0.000161961
0.000146655
0.0220671
0.000185127
0.000145828
0.000174992
0.000148473
0.000149074
0.000146988
0.000152358
0.000157568
0.000174587
0.000149869
0.000155471
0.000181444
0.000166581
0.000179178
0.000174005
0.000146299
0.000150462
0.000146232
0.000169303
0.000146607
0.000154587
0.000201015
0.000190763
0.000148199
0.000148428
0.000147693
0.000186735
0.000148964
0.000154038
0.000194733
0.000158892
0.00717219
0.000199122
0.000149708
0.000177344
0.0307243
0.000148664
0.000148109
0.0346401
0.000172091
0.000170385
0.000148691
0.000145413
0.000143551
0.000151896
0.0332814
0.0266524
0.000148168
0.00019003
0.000170977
0.000156679
0.000146129
0.000149489
0.0283866
0.000149126
0.000147853
0.0120955
0.000555116
0.000145059
0.000144762
0.000148005
0.031963
0.000152048
0.000150501
0.0284439
0.0246779
0.000147176
0.000160705
0.000148911
0.000195024
0.000206085
0.000148088
0.0631422
0.000155751
0.000183762
0.000146964
0.00036889
0.0311851
0.000180242
0.0258
0.0440657
0.000144067
0.024853
0.000148029
0.00014722
0.0174438
0.000149588
0.000196669
0.000159607
0.00380306
0.000148099
0.00687465
0.0334238
0.000147919
0.000149774
0.000191744
0.0180608
0.000154695
0.000148769
0.00015984
0.000186247
0.000160683
0.000146988
0.0273517
0.00015087
0.000158773
0.000151886
0.000174486
0.0259855
0.000146683
0.0302733
0.000182687
0.000209323
0.000149563
0.000151615
0.000177256
0.000204112
0.0675754
0.00014697
0.000148182
0.000145839
0.000393268
0.000201275
0.0231243
0.070808
0.000188647
0.000145841
0.000149052
0.000147554
0.0460853
0.000147317
0.026842
0.0604249
0.000149235
0.000192982
0.000171012
0.000167547
0.000185861
0.000147939
0.000146213
0.000227893
0.00125924
0.000146157
0.000150594
0.0415942
0.000246161
0.000156464
0.000285464
0.000150781
0.000150147
0.0497898
0.0664113
0.00014863
0.000153111
0.000145929
0.0229363
0.0683163
0.00014628
0.00014718
0.000150807
0.000148208
0.0001595
0.000156065
0.000148225
0.038281
0.000197583
0.000159089
0.000153643
0.0044389
0.000146132
0.000148903
0.000147798
0.0352251
0.000201745
0.000149222
0.000147638
0.0210338
0.000158901
0.0491865
0.000149226
0.0339191
0.0521937
0.000171259
0.000146174
0.000149157
0.000147279
0.000162792
0.00022535
0.000193047
0.000277932
0.000162626
0.000148653
0.000221674
0.00450174
0.017677
0.00016075
0.000146832
0.000146299
0.000143552
0.000206029
0.00414445
0.000152722
0.000160147
0.000147186
0.000148375
0.00014703
0.000174776
0.00014773
0.000189146
0.000145741
0.000181536
0.0376035
0.047462
0.0176172
0.000206262
0.000148408
0.000158528
0.000186804
0.000170567
0.000153484
0.000156988
0.000148324
0.000147708
0.000154927
0.000146736
0.000146881
0.000179784
0.000145389
0.000161467
0.0218105
0.000148974
0.00015821
0.000195665
0.000149762
0.0545808
0.000168878
0.000158583
0.000148427
0.000143776
0.000369147
0.000148191
0.000154422
0.000145745
0.000148111
0.000148994