/*--------------------------------*- C++ -*----------------------------------*\
| =========                 |                                                 |
| \\      /  F ield         | OpenFOAM: The Open Source CFD Toolbox           |
|  \\    /   O peration     | Version:  v2012                                 |
|   \\  /    A nd           | Website:  www.openfoam.com                      |
|    \\/     M anipulation  |                                                 |
\*---------------------------------------------------------------------------*/
FoamFile
{
    version     2.0;
    format      ascii;
    class       volScalarField;
    location    "200";
    object      nut;
}
// * * * * * * * * * * * * * * * * * * * * * * * * * * * * * * * * * * * * * //

dimensions      [0 2 -1 0 0 0 0];


internalField   nonuniform List<scalar> 
14804
(
0.00670861
0.00583
0.00195376
0.00499747
0.00225205
0.00186641
0.00212426
0.00293222
0.00171381
0.00583396
0.000424562
0.00186255
0.00201761
0.00433903
0.000379971
0.00759626
0.00244881
0.00514606
0.000103176
0.00343611
0.0058364
0.00103239
0.000328521
0.00282259
0.00138593
0.00247072
0.00434597
0.00310135
0.00598691
0.00351703
0.00588486
0.000320505
0.00342852
0.0012039
0.00184269
0.00207744
0.000482938
0.00583535
0.00298872
0.00340679
0.00195373
0.00191213
4.98538e-05
0.00502548
0.00259622
0.00103884
0.00166646
0.00216173
0.000972273
0.000173337
0.00205482
0.00587419
0.00583164
0.00564585
0.00017726
0.00203145
0.000640863
0.00575068
0.00583478
0.00105946
0.00209707
0.00184327
0.00501549
0.00291108
0.00485215
0.00583203
0.00583615
0.00197263
0.00583128
0.00768854
0.00589963
0.00447863
0.000391468
0.00817778
0.00587747
0.00762418
0.00793041
0.00582968
0.000154946
0.00583475
0.00786885
0.00583188
0.00583652
0.00587652
0.00583562
0.000806159
0.00582783
0.00579532
0.00582868
0.00291355
0.00124075
0.000962388
0.00213906
0.00589057
0.000157572
0.0081087
0.00617366
0.000383851
0.00236597
0.000421352
0.00594611
0.006895
0.00583586
0.00407908
0.000988974
0.00739231
0.00186982
0.000128672
0.0058364
0.00588844
0.00583612
0.00653584
0.00212002
0.00323261
0.00658053
0.00691287
0.000855053
0.00121401
0.00583553
0.0051121
0.00810085
0.00582859
0.00210442
0.00184306
0.00583471
0.00583567
0.000909697
0.00418715
0.000283006
0.0018465
0.00194903
0.000545328
0.00742996
0.000383861
0.00120904
0.00207986
0.00483818
0.000904839
0.00412163
0.00112134
0.0058304
0.00455516
0.0059255
0.00323873
0.00416428
0.00583201
0.00104988
0.00583582
0.00072887
0.000154921
0.00171123
0.000286184
0.00335412
0.00405247
0.00583547
0.00634324
0.00454585
0.000331778
0.00288806
0.000625165
0.00582875
0.0058298
0.00744161
0.000360286
0.00375197
0.00643197
0.00212887
0.00233246
0.00435018
0.0031612
0.000441825
0.000806782
0.00159181
0.000389124
0.000617842
0.000478035
0.000227612
0.00117245
0.00583092
0.000598305
0.00170275
0.00862858
0.00218832
0.000418819
0.00105275
0.00511764
0.00100549
0.000873712
0.00247786
0.00583275
5.33621e-05
0.00197193
0.00312556
0.00103987
0.000286921
0.00584258
0.0064711
0.00205947
0.000447325
0.00233261
0.00368701
0.00583267
0.00287757
0.000445893
0.00128595
0.00267083
0.00462973
0.000518622
0.00113311
0.00166208
0.00369211
0.00211901
0.00178288
0.00582876
0.00172444
0.00412048
0.00415602
0.00585041
0.0058441
0.00565336
0.000422334
0.00202179
0.000405867
0.000879578
0.00588342
0.000443047
0.003488
0.00106413
0.00728874
0.00110079
0.00588787
0.00293608
0.00536734
0.00788585
0.00828516
0.00583585
0.0011384
0.00105115
0.00065884
0.00124975
0.00522788
6.31295e-05
0.00221883
0.00543058
0.00585029
0.000833855
0.00176309
0.00357287
0.000297493
0.00589306
0.00279418
0.005842
0.00582892
0.00582944
0.00711513
0.00132214
0.00583162
0.00329672
0.00589751
0.00583243
0.0027603
0.00257983
0.000286383
0.00259227
0.000404063
0.00398034
0.00469672
0.00584715
0.00296718
0.00194615
0.008939
0.00580517
0.00583589
0.00583532
0.00432202
0.000382731
0.00566854
0.00326801
8.06905e-05
0.00763768
0.00105663
0.00582791
0.0034777
0.00213627
0.0090396
0.000571641
8.3665e-05
0.00578803
0.000385116
0.000490408
0.00570787
0.00382415
0.00104017
0.00587226
0.00197393
0.000127407
0.000511893
0.000264455
0.00454334
0.000380934
0.00583731
0.00582958
0.000387789
0.00345141
0.000152987
0.00272884
0.00169633
0.00726712
0.000396805
0.00286511
0.00275423
0.00587158
0.000572233
0.0012217
0.00700222
0.0015664
0.00266532
0.000550028
0.00582957
0.00434039
0.00110793
0.000917484
0.00102839
0.0019944
0.00588646
0.00351333
0.000484538
0.0058349
0.000533414
0.00384361
0.00392884
0.0043908
0.000258931
0.000624782
0.00583242
0.00588065
0.00582954
0.00355414
0.00136121
0.00158969
0.000984542
0.0054627
0.00152134
0.0020585
0.00588928
0.00665081
0.00862868
0.00750622
0.00159905
0.00517692
0.0031329
0.00341637
0.00583173
0.00584541
0.00140054
0.00107096
0.00236928
0.000118777
0.00584636
0.00582892
0.00145837
0.000844074
0.00211381
0.000730667
0.00805901
0.00792634
0.00571019
0.00130726
0.00123655
0.00584055
0.00168536
0.00583377
0.000245619
0.00383001
0.00582892
0.00175093
0.00584871
0.00183381
0.00743422
0.000381262
0.000575093
0.00357696
0.000410053
0.0092493
0.00183124
0.00584131
0.0091346
0.00110656
0.00583239
0.00700468
0.00038882
0.00586088
0.00149507
0.00564971
0.00377861
0.00176735
0.000599744
0.00446268
0.00521043
0.00583397
0.00041029
0.00583204
0.000104065
0.00142227
0.000684763
0.000665521
0.00078331
0.00205138
0.00350735
0.00583588
0.00566318
0.000310574
0.0025226
0.00583397
0.00586947
0.000490223
0.00583329
0.00322863
0.0028348
0.00658127
0.000552822
0.00244361
0.00586633
0.00492979
0.00067637
0.00430554
0.00866095
0.000177285
0.00531615
0.00587693
0.00235562
0.00587433
0.000199387
0.00583199
0.00177442
0.00454291
0.00583628
0.00644774
0.00584623
0.0015007
0.00357198
0.00896872
0.00586167
0.00387934
0.00583157
0.00536219
0.00357134
0.00458028
7.09886e-05
0.00178819
0.00777729
0.00170931
0.00588743
0.00583583
0.00592875
0.00462262
0.00605823
0.00445854
0.00349066
0.00583566
0.00102246
0.00583136
0.000463218
0.000773336
0.00433442
0.000817779
0.0035286
0.0070296
0.0024101
0.0017572
0.00583564
0.000301084
0.00362758
0.00585745
0.00405872
0.00502242
0.00220477
0.00132196
0.00337802
0.00758977
0.00208854
0.00443114
0.00118205
0.00201528
0.00588232
0.000496504
0.00540199
0.00344502
0.00586233
0.00088187
0.000477589
0.000344633
0.000960674
0.00585734
0.000597703
0.00583562
0.00476942
0.0016585
0.00212664
0.00502035
0.000451129
0.00176859
0.00583017
0.000181236
0.00821795
0.00583458
0.00583255
0.00582763
0.00588365
0.00255272
0.00583444
0.00183875
0.000995486
0.00346188
0.00193003
0.00810612
0.00583317
0.000428876
0.00583112
0.000963076
0.00115049
0.000289386
0.00245205
0.00583351
0.00454981
0.0057722
0.00583035
0.00124821
0.0058306
0.000610329
0.00587593
0.000869973
0.00289289
0.00587373
0.00865244
0.00199341
0.00520697
0.000879542
0.0058321
0.000892522
0.00583179
0.00525959
0.000496045
0.000319101
0.00101365
0.00764236
0.00582993
0.00577284
0.000942983
0.00319003
0.000615339
0.00821073
0.00702193
0.00583393
0.00582794
0.00582929
0.000442785
0.000442322
0.00915481
0.00785341
0.00583206
0.00296501
5.04478e-05
0.000489056
0.00440103
0.00542834
0.00137482
0.00588233
0.00108294
0.0089547
0.000897972
0.000436905
0.00583024
0.00582919
0.00589698
0.000763083
0.00582862
0.000978897
0.00583242
0.000307668
0.000701637
0.000674517
7.23139e-05
0.00588245
0.00584189
0.00766597
0.00580927
0.00033308
0.00582899
0.00589746
0.0058496
0.0058356
0.00323238
0.00346894
0.00746956
0.00769424
0.0058334
0.00553082
0.00391518
0.00117913
0.000164189
0.000655581
0.00588797
8.5281e-05
0.00100716
0.00355908
0.00584684
0.000436566
0.00197082
0.00582849
0.00529865
0.00032294
0.00583644
0.00583093
0.000903643
0.00481145
0.00352681
0.00119027
0.0005036
0.00584388
0.000469946
8.77336e-05
0.000344624
0.00583643
0.00315181
0.00585282
0.000550677
0.00583374
0.00583401
0.00152566
0.0016863
0.000471274
0.00300242
0.00051671
0.00584782
0.00807821
0.00583178
0.00168903
0.000448906
0.00395296
0.00582807
0.00562945
0.00451633
0.00132503
0.00583512
0.000436999
7.84586e-05
0.00448362
0.00584017
0.0066751
0.00850305
0.000124721
0.00564488
0.000161181
0.00583552
0.00456571
0.000261419
0.00263507
0.000391137
0.00798711
0.000193365
0.000818694
0.00103166
0.00337585
0.00772024
0.00145691
0.00582898
0.00501291
0.000880203
0.00180342
0.000363851
0.00127111
0.000565819
0.000885479
0.00582798
0.000996584
0.00582798
0.00323395
0.00630316
0.00829617
0.000406154
0.00537681
0.00582992
0.00583257
0.00110579
0.000189491
0.00852696
0.00129313
0.000516645
0.000350018
0.000456394
0.000511935
0.00233594
0.00284777
0.0081951
0.00195112
0.00582909
0.00485743
0.00513055
0.000571289
0.00582714
0.000610108
0.00105858
0.000456377
0.000644072
0.00103187
0.00328187
0.00107071
0.00323603
0.00238835
0.00417102
0.00583344
0.00216096
0.00288443
0.00806316
0.0027824
0.00170397
0.00490211
0.00583258
0.00583942
0.001037
0.000503315
0.00585352
0.000383812
0.00588894
0.00120709
0.00518819
0.000891782
0.00580979
0.00582818
0.00583825
0.0011578
0.00117897
0.000658262
0.000699977
0.00582891
0.00583229
0.00582995
0.00648472
0.000439726
0.000689537
0.00884341
0.000527945
0.00370447
0.00627965
0.00566836
0.00583124
0.00582911
0.00588748
0.00116332
0.00588737
0.00582991
0.000414147
0.00152792
0.000515568
0.00589362
0.00670935
0.00552279
0.00324819
0.000794502
0.00310744
0.000932419
0.000445932
0.00234712
0.000436113
0.00160553
0.00335466
0.00103928
0.000486936
8.12851e-05
0.00583161
0.000404452
0.00438252
0.00583537
0.00916213
0.00461817
6.86984e-05
0.00407277
0.000395035
0.00584285
0.00655076
0.0058293
0.00113698
0.00486745
0.00214278
0.00583509
0.00517507
0.00673426
0.00432609
0.00112822
0.00086796
0.0021959
0.000934
0.000487844
0.00737831
0.00477989
0.00582948
0.00584158
0.00583319
0.00343461
0.000454783
0.00467104
0.00874511
0.000860925
0.00589321
0.001415
0.000282868
0.00589921
0.00327872
0.00891077
0.000672305
0.00353067
0.000758012
0.00230729
0.00583015
0.000982053
0.00565074
0.00813266
0.000487165
0.000977266
0.00161475
0.000518437
0.000999513
0.00583255
0.000319555
0.00132053
0.00589191
0.00525642
0.000642921
0.00584237
0.000206536
0.00585317
0.000359133
0.000208408
0.00207478
0.00232307
0.00588404
0.00584526
0.000914181
0.00111246
0.00585337
0.00589443
0.00519124
0.00170472
0.00733903
0.000174629
0.00583303
0.00583337
0.00360039
0.000206105
0.00287965
0.00582856
0.00111257
0.000702295
0.0058305
0.00584523
0.00120105
0.00166977
0.00583142
0.00590685
0.00588531
0.00148816
0.00583041
0.00462871
0.000806729
0.00332271
0.000121337
8.39027e-05
0.00589139
0.000168964
0.00582505
0.00642627
0.00179741
0.00534815
0.00583391
0.00444454
0.00375773
0.00255223
0.00453104
0.00583009
0.00252099
0.00149501
0.00601473
0.000550029
0.00583382
0.00262878
0.00583641
0.00575909
0.00520923
0.000199756
0.00188847
0.000409308
0.00273485
0.00185111
0.0050007
0.00583589
0.00213753
0.00354727
0.00587926
0.00582864
0.000309108
0.00583372
0.00117512
0.00579539
0.00125439
0.00583641
0.000475414
0.00584071
0.000180648
0.00472749
0.000598305
0.00233993
0.000420785
0.0015154
0.00545548
0.00583626
0.00512651
0.000876279
0.000494646
0.00585404
0.00583118
0.00797297
0.00218934
0.000964286
0.00588286
0.00582909
0.000441737
0.00196582
0.00625915
0.0073491
0.00143784
0.00213906
0.00921335
0.00584316
0.00583446
0.000284533
0.00179238
0.000113525
0.00252324
0.00583323
0.00589108
0.00183621
0.00584054
0.00520797
0.00569575
0.00272703
0.00584828
0.00108989
0.00583379
0.000807044
0.00589038
0.00586985
8.98779e-05
0.000492373
0.000999165
0.00714271
0.000151396
0.00438728
0.000386605
0.000162436
0.00428254
0.00442815
0.00010608
0.00167515
0.00585216
0.00183055
0.00397587
0.00264611
0.00569107
0.00584571
0.000664599
0.00451332
0.00584684
0.00194257
0.0058412
0.0020439
0.00584012
0.000567675
0.0002906
0.00192832
0.0025779
0.000142269
0.0071789
0.00374852
0.00588604
0.00583433
0.000706325
0.00584854
0.000609923
0.000665292
0.00337175
0.00583054
0.00583251
0.00264773
0.0032083
0.000743136
0.000770473
0.00033324
0.00583362
0.00583405
0.00205874
0.00353067
0.00204199
0.0016055
0.00583392
0.00679922
0.00107935
0.000290723
0.00205506
0.00531898
0.00324359
0.00588799
0.00605017
0.000835923
0.00584114
0.000892793
0.000322443
0.00513962
0.000896765
0.000510278
0.00583893
0.000342143
0.00306325
0.0042893
0.00276633
0.00327213
0.00354039
0.00584188
0.0035125
0.00171574
0.0023721
0.00583505
0.0029537
0.00584169
0.00619854
0.008114
0.000595297
0.000397161
0.000443273
0.00184203
0.00297052
0.00264607
0.00770861
0.001845
0.000500196
0.000612599
0.00583394
0.00577
0.000660015
0.00320952
0.000658219
0.00106089
0.000624522
0.00129261
0.00614223
0.00165892
0.00785166
0.00286426
8.04061e-05
0.00582357
0.00049544
0.00721714
0.00271347
0.0019612
0.00749646
0.000251839
0.00196487
0.00595833
0.00647763
0.00732292
0.00583714
0.000403096
0.00583198
0.00583538
0.00436079
0.00583528
0.00357858
0.000767732
0.000979345
0.0058335
0.00583214
0.00584165
0.000247333
0.00091318
0.00082542
0.00887784
7.83275e-05
0.000840186
0.00584423
0.0058539
0.00401453
0.0058316
0.000197524
0.00149978
0.00355835
0.000965864
0.00129576
0.00112303
0.00585007
0.00589143
0.00587869
0.000236267
0.00782966
0.00679558
0.00583712
0.00423645
0.00479349
0.00583126
0.00584087
0.00428158
0.00580172
0.00611527
0.00462552
0.00182899
0.00363305
0.00066882
0.00432682
0.00300762
0.000656251
0.000986902
0.00427009
0.00023843
0.000462367
0.00583315
0.00583565
0.000314235
0.00583038
0.00112722
0.00577153
0.00191708
0.00395391
0.00248766
0.00635094
0.00285197
0.00583264
0.00175975
0.00585069
0.00029641
0.00583367
0.0058344
0.00589023
0.000244684
0.00583139
0.000555215
0.00583617
0.00583385
0.00132023
0.00166688
0.00386745
0.00106816
0.00222976
0.000169434
0.00583037
0.00819013
0.00335392
0.00582803
0.00382268
0.00128662
0.00124531
0.000332664
0.00324136
0.000514485
0.00374916
0.00584119
0.00820561
0.00105731
0.00580974
0.000355487
0.0058272
0.0082578
0.0023611
0.00197516
0.00593996
0.000453635
0.00193965
0.00590773
3.10825e-05
0.00515729
0.00670069
0.000208546
0.00267512
0.0044728
0.00349182
0.00420727
0.00585733
0.00207093
0.00583366
0.00583325
0.00583585
0.00504999
0.00304023
0.00659634
0.00113406
0.00458017
0.00582715
0.00784521
0.000557473
0.00159782
0.0058341
0.00590743
0.00583324
0.00193889
0.00547278
9.6632e-05
0.00586888
0.000484236
0.00412238
0.00125941
0.0011217
0.000269334
0.00035612
0.00583587
0.00346888
0.00587315
0.0078393
0.00583961
0.0039277
0.00414983
0.000492787
0.0032448
0.00584087
0.00588157
0.00583185
0.00584435
0.0058489
0.00042928
0.0071464
0.00488671
6.91541e-05
0.00117327
0.00471103
0.00263822
0.000532576
0.00545476
0.000940035
0.00225763
0.008877
0.000270293
0.00583218
0.00587901
0.0075992
0.00585145
0.00365639
0.00525577
0.00102563
0.000692842
0.00583201
0.00109829
0.00111802
0.000789618
0.0068089
0.00788997
0.00587362
0.00587561
0.00107214
0.00584257
0.00285159
0.00583255
0.000623097
0.000587279
0.00589731
0.00489474
0.00203194
0.00583329
0.00329004
0.00049165
0.00583161
0.00282991
0.000617277
0.00038692
0.000604401
0.00472606
0.000396748
0.00583563
0.00401587
0.00582528
0.0071859
0.00582914
0.00748564
0.00362274
0.00113941
0.00583536
0.00588723
0.000630306
0.00106235
9.55581e-05
0.00694191
0.000477807
0.00342639
0.0058303
0.00239301
0.00583829
0.000648721
3.3086e-05
0.00583568
0.00103798
0.00589254
0.00583614
0.00589443
0.00731702
0.00184939
0.00583383
0.00237241
0.00197883
0.00184168
0.00108956
0.000973327
0.00614947
0.0012878
0.00535996
0.00205379
0.00329737
0.00354753
0.00551684
0.00588801
0.00670994
0.00538864
0.00209122
0.00223444
0.00034813
0.000586012
0.00583621
0.00230882
0.00364403
0.00112385
0.00559881
0.00518893
0.00737872
0.00516769
5.43862e-05
0.00583236
0.00353893
0.000699279
0.00729414
0.00270657
0.00583253
0.00584893
0.00583321
0.00583417
0.00583241
0.00812911
0.00710246
0.00583036
0.000674856
0.000467912
0.00484269
0.00805409
0.00532026
0.0058594
0.00579676
0.000246466
0.00453187
0.00589128
0.000864607
0.00586262
0.00583726
0.00533321
0.0058429
0.00042878
0.00584894
0.00795807
0.00295593
0.00117143
0.00291752
0.00102662
0.00113076
0.00583109
0.000612665
0.00530493
0.000212085
0.00583152
0.00139677
0.000682326
0.00355841
8.83401e-05
0.00588654
0.0011073
0.00911832
0.00673843
0.000247267
0.00582982
0.000728277
0.000401593
0.00773971
0.00234541
0.000312484
0.000584823
0.000336509
0.0026204
0.00374188
0.00102738
0.000331039
0.00027576
0.00173917
0.00115924
0.00588399
0.00661014
0.00550597
0.00168177
0.00765615
0.00175249
0.00208993
0.00583339
0.00159409
0.00583215
0.00895838
0.00583409
0.000782967
0.00372176
0.00181876
0.000637027
0.000259625
0.0041855
0.000225699
0.00797446
0.00367047
0.00325946
0.0095042
0.00165865
0.000363007
0.00147371
0.000409135
0.00583584
0.00183766
0.00583156
0.00381285
0.000135363
0.00144363
0.00583858
0.00470301
0.000352647
0.00585127
0.00425502
0.00147228
0.00148614
0.00465996
0.00198069
0.000427786
0.00539007
0.000301046
0.00583519
0.00583062
0.00583423
0.00368735
0.00583257
0.00582907
0.00584987
0.005834
0.00583733
0.00559089
0.000737336
0.00854186
0.00592752
0.00583617
0.00139349
0.00335422
0.000986634
0.00233386
0.000628236
0.00624272
0.00583927
0.00479904
0.00584227
0.00585186
0.00141188
0.000751249
0.000109634
0.00583525
0.00588317
0.00583255
0.0057166
0.000476834
0.000524169
0.00587883
0.00583639
0.00589312
0.000510832
0.000365939
0.00575075
0.00124476
0.000531603
0.00377187
0.000427337
0.0021422
0.00171517
0.00587424
0.00588534
0.00583188
0.00589456
0.00148154
0.00456457
0.000459583
0.00157148
0.00104474
6.32223e-05
0.00533182
0.00583435
0.00583117
0.000187448
0.00516682
0.00295112
0.00198009
0.00362485
0.000707833
0.00149541
0.00279577
0.0012763
0.00832529
0.00524297
0.00585902
0.00012037
0.00124276
0.005836
0.0019841
0.0072569
0.00583268
0.00110543
0.00120622
0.00112943
0.00395582
0.00583131
0.00123653
0.00170106
0.000874304
0.00897555
0.00746916
0.0058524
0.00226611
0.00105361
0.00323448
0.00582818
0.000697099
0.00293988
0.000572517
0.00492017
5.85589e-05
0.000667698
0.00583066
0.00162362
0.000215863
0.00518422
0.00103093
0.00123806
0.00524324
0.00583366
0.00583035
0.00349641
0.00589915
0.000520792
0.00583567
0.0020655
0.00722083
0.00736689
0.00584457
0.000937609
0.00013673
0.00799987
0.00786455
0.000392076
0.00575992
0.00584546
0.00835964
0.00169699
0.00102808
0.00097749
0.00874363
0.00122321
0.000412492
0.00584897
0.000950467
0.000877312
0.00111482
0.00634834
0.00035381
0.000619781
0.00546783
0.00370335
0.00065204
0.000431081
0.005833
0.00214396
0.000832128
0.00576728
0.00147226
0.00582652
0.00583232
0.000163571
0.00398795
0.00786979
0.00301533
0.00358093
0.000790473
0.00680147
0.00586229
0.00422762
0.000678133
0.00587656
0.00707976
0.00847709
0.00118538
0.00583697
0.00583535
0.00166407
0.000748005
0.00915093
0.00602467
0.00102753
0.00729946
0.00583369
0.000357645
0.00359194
0.00657888
0.00488894
0.000753497
0.00820232
0.000333768
0.00666141
0.00582935
0.00583229
0.00582537
0.00356974
0.00583585
0.00470333
0.00869302
0.00566019
0.00333172
0.000544187
0.00748
0.0033093
0.00585968
0.0058812
0.00583584
0.00166855
0.00126839
0.00657679
0.00357123
0.00586142
0.00942694
0.00711784
0.00200751
0.00339372
0.00584149
0.00307841
0.000440901
0.00583049
0.00462383
0.00344275
0.00458871
0.00583557
0.00585578
0.00115363
0.00582975
0.000482395
0.00200927
0.000784447
0.00117477
0.00115091
0.0058349
0.000416991
0.00583593
0.00583621
0.00023352
0.000183584
0.00582901
0.000156733
0.00290265
0.000346158
0.0078305
0.00583139
0.000377026
0.00583249
0.00133901
0.00155842
0.00385676
0.000624363
0.00201179
0.00794519
0.000510109
0.000432073
0.000267493
0.00777962
0.00186573
0.00795992
0.00293313
0.000982778
0.00663119
0.000422419
0.00583855
0.005891
0.00587431
0.00798589
8.90841e-05
0.00584596
0.00585628
0.00583015
0.00178932
0.00106368
0.00583439
0.0026239
0.00935341
0.00583311
0.0002606
0.00587254
0.00473439
0.00449469
0.00139811
0.00704811
0.000845597
0.000794202
0.000501791
0.00717959
0.000641505
0.000493585
0.00195297
0.000265447
0.00901078
0.00587222
0.00204076
0.00583294
0.00212789
0.00583406
0.000566062
0.00584239
0.00101399
0.000345747
0.00576677
0.00317275
0.00459526
0.00187159
0.00582812
0.00116299
0.0017713
0.00588
0.00154132
0.00316786
0.00412843
0.000217984
0.00114891
0.00356355
0.0070918
0.00192937
0.0058941
0.000305348
0.00323346
0.000142342
0.00583372
0.00589029
0.00568811
0.00802944
0.0021675
9.25578e-06
0.000597777
0.00180892
0.00373492
0.0084246
0.00650607
0.00583146
0.00588116
0.00729854
0.00333583
0.000156661
0.00686013
0.00583426
0.00582982
0.00162119
0.00107979
0.00202507
0.00277566
0.000399684
0.00583397
0.00586548
0.00275928
0.00055449
0.000242103
0.00371584
0.000478009
0.00311894
0.00583264
0.000365505
0.00100415
0.00715134
0.00171515
0.00583028
0.00352521
0.008199
0.000502286
0.000638954
0.000140998
0.00533333
0.00500748
0.00582636
0.00586144
0.00583331
0.00231421
0.00175431
0.0058294
0.00426438
0.00257711
0.00300351
0.00571882
0.00569939
0.00114543
0.000604486
0.000178856
0.0058982
0.0076187
0.00481963
0.00583582
0.0016594
0.000627053
0.00583076
0.00213377
0.00289022
0.00893873
0.000610711
0.00212577
0.000328116
0.000320311
0.00124015
0.0067725
0.00706905
0.0052584
0.00128464
0.00134431
0.00284728
0.000261498
0.000623489
0.00146458
0.00582958
0.00251272
0.00583225
0.000558939
0.0034333
0.00062042
0.00042874
0.000748994
0.000505789
0.0021867
0.00583326
0.000743781
0.00179231
0.00588447
0.0028584
0.00583361
0.00156853
0.00125653
0.00306027
0.000304231
0.000188085
0.000253901
8.75675e-05
0.00275858
0.00331475
0.00583876
0.000442226
0.000351316
0.00924865
0.000685907
0.00533214
0.00590094
0.00728985
0.000578948
0.00886894
0.0029634
0.00586748
0.00171524
0.00677233
0.00369538
0.00578767
0.0058808
0.000690108
0.000464391
0.0044083
0.00152192
0.00123013
0.00056886
0.0067784
0.0049295
0.000596922
0.00667074
0.00583083
0.000715053
0.00582958
0.00534878
0.00667181
0.00168301
0.000772152
0.00582926
0.00582645
0.00181319
0.00214482
0.00353973
0.00583375
0.000813375
0.000425055
0.00189039
0.000418361
0.00583105
0.00583149
0.000668665
0.00614753
0.00783968
0.00535532
0.00486119
0.00244228
0.00081106
0.0036106
0.00238446
0.000781537
0.00583433
0.00583824
9.7081e-05
0.000817656
0.00222919
0.0015028
0.00583646
0.00151228
0.00152565
0.00436054
0.00801618
0.000652062
0.00405006
0.00582978
0.00102798
0.00358366
0.00661849
0.00582887
0.000509837
0.00566884
0.00583166
0.0058271
0.00462239
0.000407873
0.00217992
0.00586186
0.00248091
0.000910482
0.00582882
0.00428082
0.00848248
0.00104024
0.00154183
0.00594782
0.000292124
6.13641e-05
0.00447676
0.00451495
0.00231143
0.00489144
0.00295351
0.00793437
0.000401847
0.00583457
0.00751759
0.00583574
0.00144845
0.000293343
0.00516493
0.00573893
0.000288277
0.00305811
0.00582916
0.00583789
0.000803297
0.00541864
0.000663457
0.0023749
0.000689378
0.000979149
0.00583615
0.00584627
0.000408411
0.00127245
0.00138913
0.000682813
0.00100945
0.000387346
0.000836686
0.000514004
0.000119676
0.000335594
0.00261857
0.000633613
0.00579071
0.00237322
0.000453436
0.00544065
0.00103455
0.0030215
0.00582716
0.000200591
0.00470541
0.00189877
0.000305135
0.00107853
0.00386009
0.006952
0.00354267
0.000456024
0.00815973
0.0058313
0.000446082
6.93022e-05
0.00583622
0.00716938
0.00104543
7.12992e-05
0.000414157
0.00596625
0.000271413
0.00583538
0.000546817
0.00434708
0.00276959
0.000372655
0.000994077
0.00456208
0.00424838
0.00258302
0.000541826
0.00020499
0.00120893
0.00496891
0.0058639
0.00217837
0.00712365
0.00476807
0.000795511
0.0054054
0.00313773
0.000738129
0.00583927
0.00461665
0.00587329
0.00482965
0.0054261
0.000293749
0.00583102
0.00379342
0.00583568
0.00583032
0.000583677
0.00490189
0.00548519
0.00582979
0.000941394
0.0071937
0.00467452
0.00583782
0.0069105
0.0060935
0.00533904
0.000373019
0.000643072
0.00167194
0.00473523
0.00475871
4.66486e-05
0.000480378
0.00362176
0.00296089
0.00139132
0.00584164
0.00343894
0.00586903
0.00438047
0.000200902
0.00802723
0.0003331
0.000688768
0.005838
0.00584119
0.00116842
0.00692212
0.00323671
0.000864125
0.000694296
0.00307534
0.00226216
0.00583352
0.00583672
0.000853385
0.0021471
0.0035807
0.00584269
0.00466468
0.00153331
0.00603844
0.00163919
0.00246327
0.00583123
0.00376582
0.00206817
0.00486978
0.00525879
0.000299181
0.00668581
0.00332745
0.000772975
0.00631926
0.00587905
0.000766159
0.000725013
0.00552608
0.00583101
0.00613298
0.00448517
0.00707162
0.00356551
0.00350613
0.00317865
0.000776162
0.00535381
0.00590359
0.00251596
0.00108461
0.00089659
0.00205919
0.000335176
0.00729634
0.00359445
0.000816474
0.0053327
0.00583807
0.00104578
0.00728316
0.00305381
0.00582872
0.00674129
0.00434612
0.00583584
0.000641218
0.00331772
0.00497195
0.00583759
0.00470562
0.00131768
0.00548953
0.000461302
0.00583727
0.00583239
0.0068057
0.00552887
0.00834547
0.00583808
0.0058391
0.00351116
0.000954346
0.00450189
0.00433993
0.0058837
0.00541216
0.00715625
0.00181148
0.00583976
0.00737693
0.00148679
0.00587524
0.000743119
0.000461757
0.00342309
0.00163065
0.00090006
0.00805766
0.00100383
0.00457344
0.00490732
0.000206876
0.0014867
0.00641302
0.000304807
0.00829197
0.00471886
0.00728488
0.00800951
0.00504929
0.00463674
0.00452761
0.00115819
0.00586651
0.000631199
0.00216369
0.00024346
0.0003057
0.00710057
0.00072868
0.00583719
0.000397027
0.00582932
0.00583162
0.000814019
0.00202161
0.000676816
0.00195649
0.000289073
0.00589907
0.00515158
0.00582807
0.00359995
0.00108254
0.00502829
0.000719591
0.0058841
0.00369305
2.71785e-05
0.00583175
0.00583449
0.00270097
0.00544476
0.00719678
0.000310738
0.000489966
0.00220866
0.00309317
0.00213259
0.00143365
0.00328429
0.00317087
0.00645121
0.00580776
0.00332604
0.00870148
0.00129636
0.00118031
0.00514288
0.00583049
0.00467998
0.00151083
0.000474685
0.00525033
0.00241202
0.00136818
0.00373972
0.00434479
0.00686222
0.000410157
0.00210269
0.00303506
6.45301e-05
0.00582572
0.00199275
0.0058425
0.00174005
0.0021336
0.00206055
0.000512952
0.00590132
0.00422829
0.00156334
0.00341879
0.00328477
0.00466925
0.00546336
0.000132038
0.000217122
0.00583593
0.00583718
0.00548294
0.00803746
0.0058267
0.00269304
0.00532675
0.00160003
0.000262639
8.25589e-05
0.00249112
0.00155453
0.00218754
0.000275467
0.00471852
0.00287028
0.000204518
0.00151131
0.000398842
0.00016052
0.00228042
0.00510609
0.00286146
0.00584116
0.000998835
0.00478221
0.00626899
0.0022303
0.000911403
0.00354503
0.0003127
0.00485616
0.00584617
0.00348352
0.00027589
0.00585322
0.00340724
0.00363293
0.00589311
0.00583074
0.00120876
0.00321461
0.00344621
0.00583616
0.00140279
0.000214203
0.000170562
0.00238344
0.00349658
0.00587965
0.00586663
0.00583107
0.000152123
0.00583062
0.00125406
0.00117196
0.00187245
0.00375127
0.00452121
0.00584362
0.000330412
0.00583361
0.000712155
0.000227235
0.00179297
0.000315808
0.00121181
0.00229346
8.27148e-05
0.00201082
0.00583281
0.00397963
0.00546726
0.00363973
0.00262732
0.00583298
0.0058283
0.00582852
0.00254864
0.00735677
0.00405079
0.00334394
0.00193875
0.00372617
0.00544416
0.00583757
0.00583502
0.00705074
0.0058973
0.00481404
0.00185747
0.00026811
0.00583209
0.00583295
0.00583134
0.00733298
0.00102019
0.00134246
0.00694349
0.00619427
0.00515337
0.000253623
0.00442244
0.000358168
0.00107788
0.00583119
0.00919107
0.00380832
0.00150091
0.00584045
0.000280177
0.00675438
0.000288786
0.00672683
0.00778008
0.00583
0.00680475
0.00583765
0.00583939
0.00447741
0.00224492
0.000795247
0.000400571
0.000547993
0.00376537
0.00248689
0.00515379
0.0035793
0.00583587
8.62178e-05
0.00486615
0.0056345
0.00583304
0.00514566
0.000214593
0.00300115
0.0058384
0.00449175
0.00537183
0.00148534
0.00374966
9.63255e-05
0.00317705
0.00583116
0.00572071
0.000436391
0.00101286
0.00583528
0.00123117
9.0143e-05
0.00111463
0.00720858
0.00583089
0.00384386
0.00583238
0.000343855
0.00115601
0.00305845
0.00619131
0.000225041
0.00583195
0.00231872
0.00452617
0.0076654
0.00582971
0.00590942
0.00670163
0.00471732
0.000537352
0.00128904
0.000328479
8.78567e-05
0.00583087
0.00583147
0.000509593
0.000775323
0.00583876
0.00540407
0.00752663
0.000487413
0.000601814
0.000527237
0.00125471
0.00168021
0.00759309
0.00792138
0.00583264
0.0012256
0.00587964
0.00497151
0.00780956
0.00586043
0.00582965
0.00127465
0.00363797
0.000378881
0.000516035
0.00352089
0.00731911
0.00123431
0.00522421
0.000968183
0.000729483
0.00582821
0.00583489
0.00550844
0.00214419
7.73097e-05
0.00589086
0.00584069
0.00488805
0.00185927
0.00887232
0.00221773
0.00598999
0.00654213
8.67462e-05
0.0058283
0.00278447
0.0058368
0.00019701
3.90848e-05
7.64721e-05
0.000347933
0.000369085
0.00323291
3.2614e-05
0.000256746
0.00397752
0.000307247
0.00582834
0.00585588
0.00582919
0.000573782
0.00165833
0.000850718
0.000326927
0.0058298
0.00521103
0.00584002
0.0002189
0.00584274
0.000277161
0.00583382
0.000396689
0.00655324
0.0064055
0.0056968
0.00053227
0.00290016
0.00181009
0.00125798
0.00244397
0.00081734
0.000619278
0.00310964
0.00583041
0.000717704
0.00584864
0.00582837
0.000760923
0.00585405
0.000234095
0.00651935
0.00247715
0.000362086
0.000403893
0.00583587
0.00348348
0.000731208
0.00312094
0.00300112
0.0058291
0.00043304
0.00329128
0.00204397
0.0058512
0.0058324
0.00285893
0.000160035
0.000156777
0.00020873
0.00585297
0.00684565
0.00748615
0.00620219
0.00368603
0.00582931
0.00589631
0.0058337
0.00584382
0.006977
0.00792073
0.000825503
0.00336693
0.000702398
0.00430136
0.0058335
0.00609532
0.00120505
0.00584138
0.00138654
0.000959627
0.000103019
0.000479082
0.0018733
0.000139723
0.00541763
0.00602688
0.00501033
0.000429205
0.00822873
0.00020858
0.00044852
0.00158886
0.000109094
0.00752259
0.00353877
0.000603321
0.00436132
0.0021197
0.000149645
0.00583885
0.000652337
0.00685107
0.00583175
0.000490539
0.00209274
0.00233877
0.00163146
0.00360795
0.0066697
0.00503277
0.00585254
0.00724755
0.00320606
0.000314754
0.00583615
0.00583378
0.00122158
0.00309157
0.00222018
0.00584506
0.000383816
0.000722384
0.00537807
0.00761029
0.00583126
0.00583121
0.00582889
0.00590241
0.000960926
0.0021228
0.00147791
0.00758545
0.000858337
0.00583711
0.00287118
0.00772988
0.00390406
0.00217174