/*--------------------------------*- C++ -*----------------------------------*\
| =========                 |                                                 |
| \\      /  F ield         | OpenFOAM: The Open Source CFD Toolbox           |
|  \\    /   O peration     | Version:  v2012                                 |
|   \\  /    A nd           | Website:  www.openfoam.com                      |
|    \\/     M anipulation  |                                                 |
\*---------------------------------------------------------------------------*/
FoamFile
{
    version     2.0;
    format      ascii;
    class       volScalarField;
    location    "200";
    object      omega;
}
// * * * * * * * * * * * * * * * * * * * * * * * * * * * * * * * * * * * * * //

dimensions      [0 0 -1 0 0 0 0];


internalField   nonuniform List<scalar> 
14804
(
3.47203
0.0251123
0.0969922
0.0322816
0.0378771
0.0639916
0.0262612
0.0253978
0.111607
0.0255686
0.411161
0.102529
0.0255566
0.0385022
0.180532
7.22327
0.0389213
0.0310795
20.4451
0.0506004
0.0256905
0.0280216
0.0405995
0.0257739
12.2131
0.0257786
0.0382885
0.037653
3.53864
0.0257466
0.0248658
0.0382604
0.0507016
0.0448534
0.102813
0.0262812
1.38971
0.0256333
10.7817
0.050909
0.0969915
0.0985111
0.16207
0.0252472
0.0378704
0.0264733
3.05744
0.0255347
0.0283437
0.490375
0.0255876
0.0248437
0.0253905
0.0273717
0.597257
2.78301
0.363837
3.49556
0.0254912
0.0265291
5.62278
0.0256399
0.0252363
3.04423
0.0252389
0.0254135
0.0256801
0.0260731
0.0254201
4.61757
0.024892
0.0369327
0.411917
4.9555
0.0255343
4.69309
6.12773
0.025106
0.0525386
0.0247017
5.69691
0.0254123
0.024731
0.0255427
0.0256505
0.15317
0.0249566
0.0262509
0.0250428
0.0375855
0.0376624
0.0275054
0.0871194
0.0248378
0.503304
6.27025
3.52071
0.0369299
0.0257077
0.491479
3.48528
4.9346
0.0256612
0.0414783
0.208406
4.84462
0.101994
0.429276
0.0254203
0.0248796
0.0253295
3.276
0.0879855
8.05028
3.24274
5.76659
0.2482
0.0388005
0.025646
0.0313689
5.94044
0.0250456
0.027029
0.0446358
0.0254996
0.0256521
0.233109
0.0401746
0.0433527
0.0368807
0.0367869
0.171053
4.11489
0.400391
2.25247
0.04394
0.0252538
2.45573
0.0255772
0.045231
0.0252267
8.6107
0.025088
7.61798
6.23033
0.0254353
0.195657
0.0254241
0.31205
18.8279
0.111777
25.3305
0.0519028
0.0417826
0.0247229
3.4695
0.0361795
0.517442
6.93497
0.397511
0.0251987
0.0252989
4.16455
23.9054
0.0281734
3.44388
0.0255761
5.30596
0.0256916
0.0253979
0.563257
0.0285141
0.122827
0.166022
1.60566
0.400113
0.0405657
0.0483469
0.0248457
0.400558
0.0639805
6.25992
0.0260615
0.0323508
0.027308
4.34678
0.0657434
0.0621285
0.0297062
0.0247962
0.156145
3.91025
0.02534
2.61729
0.56404
0.0251968
4.97053
0.02552
0.0731355
6.78433
7.03804
0.024791
0.0268211
0.110856
0.0262514
7.05497
0.0353725
0.875481
0.0401724
0.026332
0.0256987
5.27778
0.0261589
0.0251982
0.0260598
0.025636
0.0405459
0.0251675
0.0253509
0.025236
0.0321663
0.0928112
0.0731735
0.0282314
0.025023
0.653992
0.0497414
2.2498
4.1857
0.0276758
0.0248508
0.0266173
0.0253481
4.50447
4.85197
0.0256605
0.0264067
0.195305
0.139181
0.0292038
7.17582
0.443753
0.0257081
0.0252433
0.0249168
0.163689
0.0314345
0.0281311
0.0407982
0.0249039
14.7062
0.025198
0.0252424
0.0251121
3.87183
0.0261449
0.0248083
0.027339
0.0248778
0.0254494
3.58303
0.0297014
0.0432864
0.0254709
0.99397
0.0255025
0.0347563
0.0249029
6.42852
6.53476
5.94875
8.46254
0.0256649
0.0254934
10.1684
0.198466
0.0263383
6.96088
0.0892237
4.77489
0.194939
0.0251496
4.25509
5.39957
5.50854
1.12223
0.0915132
0.0263152
0.0333009
0.316176
0.0251657
0.0254246
0.0279131
0.0255846
0.0609984
1.06473
0.18251
0.0436034
0.0251671
0.0335647
0.0249209
0.0251504
0.0351822
0.0503445
0.0510942
0.0259564
10.0724
4.97807
0.165075
8.55315
6.29043
0.0255959
0.0302212
0.0290849
3.95874
0.0260689
3.54092
0.247229
0.0246764
11.6403
0.184422
0.230403
1.7492
7.84012
0.0254288
0.0492358
0.23652
0.0255
1.8444
5.90679
0.0414299
0.0379085
0.0398559
0.029636
0.0254553
0.0248474
0.0251617
7.38136
0.0260307
0.122966
0.0280659
0.0254706
0.0318198
0.0255906
0.0248448
3.57398
5.56211
4.52388
0.12047
5.85277
7.22548
0.0273336
0.0254017
0.024902
0.0260237
0.191618
0.0255986
20.4346
0.0247237
0.0252366
0.0259534
0.14088
0.0878161
0.128696
7.01412
4.77387
0.0262088
0.0373268
0.0605692
0.0252248
0.0271395
0.0255485
0.0465642
0.0257527
0.0251005
18.1856
0.0249131
0.0257237
4.0992
0.500733
1.71889
0.0316684
0.0672639
5.7021
0.0313467
0.0252113
6.12597
0.0264692
0.025466
7.45523
0.0324823
0.0247054
0.0259541
0.0273391
7.0433
0.0271803
0.309191
0.0371441
9.93212
0.0255584
0.153806
0.0252942
0.449456
18.7165
0.039134
0.0285636
0.278303
0.0255701
0.0494087
0.025663
0.0250449
0.0358819
15.2273
0.0255654
0.0256136
0.728959
0.0254719
0.0317347
0.0257849
3.49998
0.249131
0.0604395
0.0247278
6.30009
0.0284363
0.0386409
6.64253
0.0477475
0.0297548
0.0247958
0.0265921
0.0255539
0.766457
0.0254423
0.0263136
0.0253615
0.0249229
3.62001
0.0251679
0.0259069
0.0482089
5.41969
0.025006
0.0255058
0.0249495
0.0294289
7.71795
6.47598
0.449073
0.0270227
4.42509
0.027101
0.0254202
0.0256608
0.0251091
0.0251925
0.0262356
7.57034
0.0274687
0.0256514
4.38923
0.0249426
0.521344
0.284306
0.038517
3.46851
0.0317306
5.01312
0.0609181
0.0256817
0.0256513
0.0357391
0.0253225
0.0250175
7.21568
0.0320654
0.0255255
0.0357148
6.30865
5.92424
0.0437208
0.0308757
0.0289558
0.0931232
0.025484
0.0309487
6.38288
0.0253413
0.0250053
0.0402665
0.0311247
1.41511
0.0453603
0.0249186
0.0380415
0.02565
0.0253644
7.2479
0.0443097
0.0251856
0.143387
0.025896
0.02522
0.0528908
5.48085
0.0254302
0.0253045
0.0249535
0.0250031
5.55992
0.0254364
0.0256636
5.1494
0.0252666
0.0257733
7.36045
0.0254237
1.28535
0.0246486
0.221081
8.83317
0.953192
0.0254816
0.0254741
0.0362756
0.0264352
0.0246627
0.0266777
0.0249459
0.0372866
0.0248031
0.0389179
0.0384697
0.0255713
5.79322
0.093753
8.06823
0.0283235
0.0246433
0.130365
0.0253941
0.0301769
0.22181
0.0347359
0.205329
4.51609
0.0252939
9.62481
0.113214
0.0274167
0.0285809
7.36868
7.01639
0.0247027
0.0251425
0.0251642
0.237637
0.110727
6.45418
5.86086
0.0253107
0.0603503
0.157983
0.775338
0.0376406
0.028955
0.0307651
0.0249443
0.188925
6.70462
0.0376869
0.397778
0.0246756
0.025174
0.0249451
0.0371523
0.0250262
0.214888
0.0254619
18.3303
0.326648
0.0359314
0.0943398
0.0249456
0.0252096
4.45386
0.0261323
17.9657
0.0250887
0.024948
0.0251135
0.0256521
0.0546071
0.0318902
5.61217
5.74581
0.0254643
0.0254601
0.0304233
0.117659
0.0720026
0.0340859
0.02491
1.0519
0.0273395
6.11773
0.024806
0.382287
7.0439
0.0250144
0.0252323
0.0549722
0.0256913
0.0246618
0.0453557
0.0256075
3.90702
0.0607421
0.698821
0.0251664
0.38282
21.2474
0.0554389
0.0256909
4.50315
0.0250753
0.386409
0.0253989
0.0255594
6.71991
0.114263
0.686488
0.0594986
0.0339996
0.0247257
5.12916
0.025181
8.63549
0.705461
0.0308504
0.0250012
0.0252769
0.0365424
0.0315539
0.0256234
0.10007
0.0940715
0.036966
0.0254323
6.57383
5.24895
0.576411
0.025255
0.0528576
0.0247094
0.0254396
0.0437713
6.97339
0.0355939
4.56211
0.0486821
0.149606
0.199264
0.0253522
6.86838
6.40264
0.0251806
0.0321431
0.134563
0.0316246
0.0369208
0.0284358
0.0352423
2.63383
0.0249797
0.0455815
0.0250786
0.0254913
3.55373
5.97967
0.0629987
0.0253566
0.0248307
0.0247174
0.0272097
0.0441868
6.82097
0.060817
0.260351
17.4911
0.0680563
0.033532
5.38149
0.0253605
4.76474
0.0264192
0.0252202
0.0253227
0.0312205
0.0765451
0.0249515
0.0287185
0.0430496
0.130903
0.0331455
0.200684
0.0252962
0.191763
0.0542393
0.043313
0.0402812
0.0255354
0.0255207
8.59403
5.01199
0.0253812
0.113037
0.0253543
0.0248053
0.0254368
0.0274389
0.36065
0.0250103
0.0392674
0.024938
0.0290802
0.0252745
0.0454485
0.0261326
0.0250104
0.0254166
0.0588713
0.0451391
4.31562
1.39261
0.0251913
0.0252967
0.0252426
3.26455
0.0320792
0.0636856
5.68445
0.0358506
0.0299539
3.42098
0.0251164
0.025192
0.0252959
0.0249171
0.124676
0.0251882
0.0248171
0.467515
0.128742
0.0306589
0.0248535
3.49871
8.27064
0.0543536
0.0296245
0.0319721
1.62824
0.0663851
3.55677
0.524064
0.119951
5.77339
0.0273285
0.0366705
0.704344
0.025125
0.536525
0.0258966
0.0256368
6.5989
0.0355612
0.104323
3.64865
0.138736
0.0251712
3.24253
0.0251044
0.026568
0.0276148
0.0265655
0.0256253
6.31674
6.79528
0.03841
0.179986
0.0289565
6.77499
4.0481
0.0380566
5.715
0.0258971
0.0251005
0.024882
0.0254643
0.0253297
15.3717
0.0324804
5.81949
0.247835
0.025348
0.0595538
0.0378882
0.0249054
0.0254508
5.846
16.6415
0.0256504
0.063851
0.0256181
0.0252592
0.0461261
0.027333
5.34032
0.178299
2.13109
3.15519
0.0327705
0.20645
0.0254771
20.3878
0.121339
0.0249114
0.0302232
16.6655
0.0252555
0.0583634
0.0248174
17.2099
0.0582974
0.0257612
0.0255986
0.0248347
0.0249466
0.0292931
20.7735
0.0250628
0.0249373
0.030665
0.0257413
5.68307
0.0729734
0.0253615
0.0248211
0.0253434
0.043665
0.0253787
0.0252246
0.183034
1.70939
0.02533
0.0247124
0.0483676
6.42933
0.0253807
0.0249587
0.0250178
0.130456
0.0248137
6.34556
0.0457045
0.0529233
1.09596
5.07095
0.024924
0.761197
0.0245643
3.25221
0.0369987
0.0295361
0.025435
0.0253195
6.92016
0.0255153
4.33581
0.0252658
0.0726567
7.42289
7.9879
0.169626
0.0255503
4.70605
0.0256897
0.0250628
0.030524
1.36151
0.0256321
0.240165
0.0657946
0.0257115
0.0322407
0.0256628
0.0257187
0.0253384
0.0253275
0.0252309
0.145298
0.0254655
0.048372
0.0262581
20.5876
0.0256904
1.62656
0.0247767
0.0473142
0.0344822
0.141332
0.0439665
0.066796
0.0315441
0.0287007
0.0256782
0.0312532
0.150126
0.0309097
0.0249917
0.0247979
7.52044
0.0844983
0.0459712
0.024963
0.0251224
0.152311
0.0954334
3.29645
4.78323
0.13796
0.057544
6.49952
0.0247107
0.0255913
19.7038
0.0367906
0.770465
0.0726375
0.0254505
0.0248815
0.104007
0.0248825
3.24736
0.0269844
0.0660328
0.0248638
0.187331
0.0255489
4.13798
0.0249044
0.024995
0.0959732
0.163875
0.206703
5.42892
0.0754013
4.25852
0.0315984
0.0729188
4.72808
0.0373379
0.540301
0.0257253
0.0248069
0.104376
6.4723
0.0687434
0.0270181
0.0251132
0.0678207
0.0255251
5.06465
6.88724
0.0252224
0.0255756
0.0252481
0.0333923
2.35645
0.0256322
5.78099
0.909787
4.17916
0.0383175
0.0254303
0.0255176
2.03455
0.0251179
3.98655
0.0282462
0.0387935
0.0253324
0.0253872
0.0686947
0.0551152
1.89904
0.290017
0.0503856
0.0247152
0.0255655
0.0255714
4.00948
0.0922176
5.8045
0.0255076
4.79478
0.174345
0.0731474
0.0259495
0.0256061
0.0252984
0.0253592
6.10092
0.0458939
0.0247946
0.118179
0.652862
0.0311283
0.0459042
0.0357448
0.0252259
0.580504
0.0254263
0.0389598
0.0253871
0.05356
0.0487614
0.0252486
7.17315
0.0263505
7.61308
0.0249522
0.0254327
0.0248133
3.44071
5.53204
0.0333998
0.213847
0.120121
0.0257147
0.026399
0.0253883
8.14855
6.24221
0.14624
0.357474
0.0254686
0.0264464
20.4692
0.0268773
0.0352645
2.38659
0.0286817
0.0282366
5.99782
0.11622
8.02419
0.026587
0.0913802
0.0260218
0.79231
3.86828
0.0253828
0.0266925
4.19041
0.163244
0.05782
0.0253344
3.37643
5.06674
0.0254237
0.0735804
0.0247064
0.0253275
7.27738
0.0253373
0.0449115
0.0363157
0.211306
0.0254067
0.0254474
0.0248013
0.0462186
0.0279516
15.7884
6.86297
0.0886358
2.23713
0.0248918
0.0250748
0.0253683
0.0253926
0.0486076
0.0315142
7.66335
0.0371807
0.0261078
0.0619558
0.0247193
0.024957
0.0249188
0.5694
4.7696
3.98389
0.025218
0.0394158
3.91767
0.0253806
0.0251702
0.0259462
8.07456
3.18094
0.0256644
0.104818
0.047214
0.0299829
0.0274463
0.0253756
0.125331
0.112819
0.0390524
0.431336
4.76627
0.0254434
0.0256544
0.0381968
0.0252956
0.0700262
0.0264369
0.0982899
0.0254037
5.71013
5.59909
0.0257712
0.0253623
0.0268716
0.0247378
0.148915
0.025064
0.0255316
0.0249336
0.160828
0.0253713
0.210279
0.0256798
0.025556
3.07142
0.03681
0.0253551
0.192106
8.58146
0.939392
0.0252823
6.19569
0.0252657
0.0249881
0.0255871
0.0354903
0.0274358
0.049358
0.0544942
0.0326448
0.0254112
0.0247839
4.88951
0.106743
5.11676
0.83886
0.0250373
6.04609
0.077278
0.0266105
0.0250973
0.119856
7.79651
0.0249561
1.872
10.0964
10.0761
0.0451303
0.0253917
0.0365598
0.0277578
0.0254309
0.0250486
0.0898971
0.0255449
0.025059
0.0256622
8.12699
6.78447
3.38088
13.5968
0.0359804
0.0249328
5.18463
0.464525
0.12132
0.0248435
0.0249824
0.0253558
0.0323627
0.0285688
0.0936971
0.024951
0.0368481
7.09328
0.0310412
0.0310627
0.151168
0.0558416
0.0256621
6.72061
0.0248183
5.03298
0.025349
4.41311
7.12767
0.163128
0.0543959
0.0250237
0.0248118
0.0254116
0.0252631
0.0248562
3.16085
7.12364
0.0254001
0.0965678
0.124149
0.027582
0.0253981
1.85921
0.0287519
21.6551
7.1786
5.60787
0.0766611
0.025455
0.0249924
6.31085
0.0247099
0.025296
0.0302383
0.203349
0.0294976
0.0254627
0.187902
0.181839
0.277391
3.70095
6.47003
0.024939
0.0249795
0.191411
0.0248914
0.0253789
0.0250469
0.317082
0.19573
0.025306
0.0311129
6.24311
0.0254147
0.0535283
0.269362
0.0254409
0.025421
0.069109
0.0356761
0.0434106
4.04108
0.139405
0.025651
0.0253755
0.0245961
3.80437
0.0249857
5.98558
0.0252928
1.85618
0.0256359
0.0254293
0.0296319
0.0263908
0.340976
3.72066
0.364116
0.050663
0.0252996
0.0465536
0.0254365
0.0638278
1.52408
0.0247632
0.0618799
0.0253436
0.0248683
0.0253113
4.13347
0.103146
0.0255552
0.0265791
0.0955077
0.0257128
0.189555
2.83143
5.1467
6.82539
0.0260358
0.0916201
0.0253122
5.95667
0.0282737
0.0253568
3.71257
0.0290317
2.75429
0.0255136
0.141758
0.0446387
0.0256818
7.36375
6.32291
0.0417803
6.04785
7.79976
4.30535
0.0309114
3.39234
0.0254685
0.0254086
0.135481
5.44522
0.0428104
0.0254915
0.0248094
0.0254313
0.0255737
0.0254701
5.72769
3.97148
0.0253114
0.351684
0.0311396
0.033479
5.19262
4.36112
0.0248889
0.0251313
0.0499244
4.53023
0.0253731
6.76939
0.0249532
0.0249023
0.0296518
0.0248186
0.712305
0.0247177
5.37429
6.1741
0.0276926
0.0610267
0.0272533
0.0700579
0.0253721
0.0287612
4.04874
0.687807
0.02538
0.142667
0.0286627
5.89941
0.263299
0.024857
0.0262946
6.95977
5.11294
0.658283
0.0251235
0.0283744
0.960661
7.47339
0.0296235
0.0356983
0.404635
0.0386248
0.0273324
5.91894
0.106932
0.566505
0.645427
0.0256929
0.026256
0.0248875
3.96126
0.0259551
0.0258667
7.18195
0.025683
0.025557
0.0255266
0.122604
0.0254599
5.39252
0.025456
0.0679016
0.0298117
0.10544
0.0311162
0.0466737
0.0276806
0.182851
4.57636
5.88581
0.0252839
6.28925
0.0299378
0.152557
0.0299406
0.0344465
0.0256615
0.0298835
0.0251312
4.18536
0.368084
0.0259138
0.0252173
0.0255242
0.0446862
0.0247156
0.0313657
2.57912
0.0259212
0.0351715
5.90134
3.55305
0.0292151
0.486462
0.0256265
0.0248012
0.0255386
0.0465034
0.0253539
0.0252573
0.0250086
0.0254959
0.0248985
3.18062
0.0290145
5.12188
5.92027
0.0256798
0.130687
0.0253045
0.0312878
6.25375
1.47078
5.04728
0.0252535
0.0337977
0.024701
0.0247511
7.93493
0.0433548
0.514991
0.0247729
0.0249618
0.0253707
0.0268383
0.685081
0.137523
0.0249918
0.0256905
0.0253506
5.20196
0.139232
0.0252861
2.7643
2.44323
6.10511
0.0333767
0.0863381
0.112817
0.0249067
0.024828
0.0254557
0.0249468
5.13604
10.0613
0.130361
0.0317485
0.198355
1.78132
0.0296395
0.0254286
0.0253802
0.426606
0.0309202
0.0427469
0.031568
0.025277
0.0397259
0.0316442
0.027126
0.0262347
6.56691
5.33106
0.0249676
0.0581819
0.0262997
0.024952
0.0257125
4.64194
0.0253451
0.184335
0.0354612
0.0262699
0.0253906
0.0253725
2.59127
0.0257181
0.060781
7.00975
5.71712
0.0250153
0.080903
0.0265704
0.0255774
0.0249397
0.0285243
0.0254209
0.0613726
0.0251453
7.19292
0.0299134
0.0253518
0.0263487
0.0540764
0.0307458
0.0310738
0.0315299
0.0303412
0.0248168
0.0247332
0.0495367
0.0249338
1.25116
0.025652
0.0907358
5.23661
5.26743
0.0251191
0.226702
0.0563523
5.83218
5.88368
0.789968
3.71226
0.0247795
6.34066
0.0262044
0.0274894
0.214871
5.22995
0.0452682
3.73293
0.0251266
0.0286294
0.245938
0.182761
5.90549
0.653456
0.074854
0.0286558
6.92172
0.0290286
0.456316
0.0255153
0.0606598
0.26224
0.0264687
0.0753632
0.0247371
0.0254724
0.0863019
0.0253594
4.83328
0.0310201
0.0253723
0.279386
4.07025
0.0247258
5.76965
0.0288992
0.0248332
4.94663
5.48766
0.0262327
0.0252114
0.0255014
0.115142
0.0285459
5.66075
4.18268
0.199559
6.63688
0.0255451
0.0633391
0.0255722
3.81323
0.0253492
0.295993
5.17712
0.156084
4.37322
0.0252784
0.0250912
0.0245919
0.025331
0.0256615
0.031764
6.79054
0.0272634
0.0523808
1.62549
4.44175
8.82814
3.91391
0.025012
0.0252126
0.0371081
0.0262239
3.6521
0.043254
0.024977
6.06411
4.28254
0.0257595
0.0253188
0.0250189
3.481
0.0314198
0.025222
0.0251827
0.0254149
0.0253808
0.0253134
0.0248183
0.175234
0.0247356
0.629558
0.0938189
0.027697
0.0317684
0.0275665
0.0254336
0.0610303
0.0256623
0.0256798
0.0534059
0.586797
0.0251093
0.0571623
0.0263993
0.0516044
7.12881
0.0248221
0.0412876
0.0253373
8.63423
0.0262924
6.4856
2.00466
16.2248
7.83341
0.444673
0.138918
1.5067
6.64188
0.0261396
7.1756
0.0253031
0.214074
5.76541
0.0667894
0.0249993
0.0253463
0.0248113
7.92637
0.160955
0.0247968
0.0246851
0.0252464
0.107064
0.192345
0.0255839
0.0585869
5.94169
0.0248987
0.124778
0.0249635
0.0251721
0.0251473
0.0305852
8.28681
0.254557
0.280182
0.181605
8.11305
0.123717
2.94982
17.0719
0.538222
6.871
0.0250086
0.0923469
0.0255094
0.0255415
0.0255168
0.035863
0.0253505
0.0265916
18.225
0.0264714
0.0274853
0.0275891
0.0326841
0.0250771
0.172411
0.0256557
0.0254991
0.125358
0.0432198
7.28068
0.0448981
0.0271284
0.0484034
8.42442
5.93754
0.0253489
0.169607
0.0265067
0.0583723
0.025475
0.0253946
0.0270419
6.11797
0.0379968
9.62518
0.0323755
6.12559
11.7141
6.20794
3.23387
0.0253019
0.0248775
7.19485
0.0522922
0.0694696
3.95127
0.0254967
0.0248759
0.0257146
0.0267406
0.0924559
6.67342
0.0886253
0.0248353
0.0249643
0.0253927
0.0610188
0.618428
0.0253003
0.0360604
0.0565912
0.025378
0.0484591
0.208573
4.66594
18.3878
0.0252732
0.0492229
5.46668
0.0601132
0.0324019
0.0767472
5.64724
0.0253425
0.0247201
0.0248541
0.0250424
0.0263425
6.93983
0.0247108
0.0253819
0.0457995
0.0301547
3.61591
0.0269573
0.0293685
0.0345565
0.0475962
0.0252865
5.71777
0.0253423
0.0256618
0.115501
0.0378952
0.0251513
0.0257017
0.0432266
5.44711
0.0320579
0.0275255
0.124722
0.0563765
0.0283611
4.64625
4.31766
0.0301662
0.0260936
0.0260446
5.83516
0.340934
0.0341251
0.055994
0.0248076
0.073017
0.025163
0.0312212
5.88184
0.0316389
0.0511191
0.0280982
1.00135
0.0579519
0.0255257
0.12769
0.106835
0.0254336
0.0629389
0.0255047
0.0446591
14.6437
5.48999
2.1539
0.0693645
0.418602
0.349989
0.0652899
0.0253237
0.025367
0.0313736
0.0444895
6.21951
0.0340149
0.0255725
0.0252322
7.01029
0.0768497
6.83429
0.0262227
0.0249577
6.66592
7.03904
0.0252776
0.025395
0.0248052
0.0357557
0.0615697
0.0259438
0.0297541
0.0357675
0.0333106
3.8012
0.0251448
0.0302969
5.82511
0.0248238
0.0618911
0.0246891
0.0295069
7.30927
0.029773
0.0390864
0.0249952
0.0250587
0.105759
0.0255353
0.0252391
0.0254451
0.0367079
0.116194
0.0297287
0.0531204
0.0253804
0.0250993
0.0362449
4.661
5.56932
0.0294496
3.96205
0.0297574
0.0285659
0.0272965
5.42701
0.0281424
0.0255521
0.0254098
0.237967
0.0350612
0.0825937
0.025754
0.0254277
6.99704
0.02627
0.0254865
4.74825
0.0314163
0.0252817
0.0248299
0.0370963
6.00161
3.35008
0.0250298
0.0348397
0.027196
0.0251658
0.0249392
0.0354242
0.0345109
0.0854056
0.0247337
0.0379639
0.0392958
3.32769
0.0303974
7.29797
0.199469
0.0263437
3.71585
0.575797
0.530025
0.0369907
0.0365359
0.0254939
0.0252871
0.0308744
4.48969
0.981562
0.025489
7.13433
0.0254951
0.036917
0.0674599
0.0309037
0.0252903
0.432465
13.5002
0.0246147
0.0253629
0.0373368
0.0252536
0.0332771
0.077783
2.12282
0.0356192
0.0256792
0.0247884
0.0616826
0.0389519
0.131593
0.0280946
0.173211
0.0361285
0.129933
0.0561944
0.323663
0.152838
0.0691913
0.165174
3.19181
0.0291071
1.2462
0.0288617
0.114374
0.0253469
0.0248898
0.0410395
0.0252453
0.0572613
0.462881
0.0434161
0.0293904
6.35057
0.0368827
0.0328845
4.74835
0.0250911
0.758665
0.103871
0.0256804
5.60734
0.19811
0.109792
0.0579329
3.65497
0.0400804
0.0256356
0.0570225
0.0381571
7.5225
0.0568848
0.0376533
0.0361713
0.0298544
0.0706602
0.062579
0.536268
2.122
0.027225
0.0249461
0.0257893
6.093
0.0341952
0.0277096
0.0291002
7.23962
0.034612
0.0254312
0.0356186
0.0249137
0.0253778
0.0289358
0.152456
0.0253719
4.89348
0.0256514
0.0251501
0.0578027
0.0329324
3.26041
0.0253018
0.0264316
6.68598
0.0350202
0.0253734
5.01882
3.12995
0.0296035
0.216617
0.0294663
0.0353796
6.3373
0.0341879
14.247
0.432317
0.0475798
0.0369833
0.0374496
0.0249664
0.0253122
0.0248982
0.0380214
0.372181
5.5714
0.0363965
0.0579577
0.0252542
0.024958
0.0270041
5.78645
0.0288736
0.0354099
0.028932
0.025404
6.63297
0.0254895
0.024735
0.252237
0.0256453
0.0252634
0.0251165
0.0254427
0.0271244
3.2944
0.104943
0.0254576
0.0247083
0.0452719
0.0268928
0.0273651
4.53021
1.64711
5.58604
0.0252841
0.0580577
5.83586
9.55032
0.285394
10.3529
0.0282003
0.0253813
3.39278
0.0354948
4.45583
0.0263204
0.025249
0.0263158
0.0275752
4.17429
3.2658
0.0275788
0.0357228
0.23805
0.0256077
13.5861
7.34632
0.0261631
0.057724
9.64999
0.0252322
0.187212
5.1358
0.02561
0.0252423
5.39358
0.0251645
0.0254362
0.0293676
7.05722
4.3902
0.0250161
0.0348026
0.026146
4.27331
0.206077
0.0254419
0.0249103
4.10008
6.29037
5.25291
0.0248075
0.0249827
0.0252839
0.0574547
0.0367783
0.0298708
0.0249361
0.029042
5.6894
0.0548518
0.0249912
5.80469
0.0355598
0.0248691
0.0277034
0.0343645
0.0253737
0.112993
0.0422597
5.09447
0.0569475
0.0360324
3.77517
0.0414884
0.130604
3.35499
0.046877
5.52769
0.0345422
5.42397
4.91093
3.5708
0.0353708
10.4359
0.173914
0.0249826
0.0305186
0.0858654
0.0723128
0.0395695
6.71252
0.0278143
0.0250082
0.0349408
0.0248335
0.0252948
0.0293977
0.0925771
0.114927
0.0351663
18.6732
0.0252479
0.0270631
0.0250927
0.0253582
0.0605151
0.0264429
0.0276999
0.025434
0.0253716
0.842353
0.025148
0.0255115
0.0603027
0.0268309
4.5103
0.0654063
0.547994
0.0348922
0.0269817
0.0259275
0.109597
0.0252719
14.0712
3.3289
0.02616
0.0253921
5.15762
0.155256
0.170342
4.8252
0.0247213
0.0251683
0.0291092
1.21574
0.0269272
0.0254558
0.0416887
0.0358146
3.59116
5.7918
1.64582
0.0888575
0.0255256
9.68079
0.026011
0.0292068
0.0252783
0.0292552
0.0874373
0.0540503
0.486703
0.0249571
0.0293134
0.0292513
0.0252671
5.90397
0.0351511
0.0286889
3.03566
0.612579
0.0253004
0.0249901
0.0285371
5.67488
0.0247587
0.0533026
0.029669
0.026224
0.0660506
0.0811659
0.0266973
18.6425
0.0255992
0.149969
0.0346757
0.0622705
0.0629933
0.0270517
0.911451
0.0627203
0.0255023
0.0313836
0.0524718
0.0250064
0.042764
0.0340575
4.32354
0.0256414
8.38634
0.0252595
0.0404659
0.0333516
0.0250856
6.33474
0.115773
0.0249142
0.0513587
0.0253662
0.0252963
0.0252092
0.026943
0.0293693
0.0506606
0.0256794
0.0285436
0.113113
0.0570215
0.0607967
0.0497645
0.0248822
0.0256471
0.0250782
0.0684024
0.0251443
0.0281469
0.171524
0.101876
0.0252967
0.0253738
0.0252742
0.114417
0.0255354
0.028354
0.18079
0.0307222
22.6901
0.164317
0.0256688
0.136132
15.2901
0.0254875
0.0253091
6.33591
0.0472812
0.043459
0.0254914
0.0249495
0.0246291
0.0263654
4.52387
6.57952
0.0252753
0.0980164
0.0458854
0.0287792
0.0250324
0.0256193
4.02618
0.0252873
0.025135
6.44013
2.6856
0.0248726
0.0248179
0.0253809
4.35878
0.0268629
0.0260066
4.09648
3.98426
0.025157
0.0390696
0.0253325
0.150957
0.191209
0.0253958
6.71577
0.0281344
0.0752394
0.0251631
1.31382
4.56677
0.0918187
3.83545
5.66395
0.0247113
3.65236
0.0253576
0.0252115
3.89596
0.0256621
0.132876
0.0351291
6.31051
0.0253004
2.76382
6.48532
0.0252293
0.0256644
0.27023
3.71151
0.027455
0.0255046
0.0310631
0.136235
0.0318683
0.025176
6.08929
0.0258082
0.0307853
0.0262464
0.1105
8.17913
0.0251549
5.29191
0.0899874
0.20668
0.0256307
0.0265776
0.132694
0.183129
7.96936
0.0252054
0.0253156
0.025005
1.05795
0.174112
7.56077
9.07288
0.147071
0.0250072
0.0254763
0.0252052
5.76924
0.0252701
4.33891
7.46665
0.0253798
0.125791
0.0458869
0.0496063
0.207275
0.0253716
0.0250731
0.451161
1.62263
0.0250323
0.0257124
5.38925
0.416855
0.0305683
0.523913
0.026146
0.0258681
6.15417
7.49028
0.0254825
0.0273253
0.0248194
4.61356
7.74238
0.0249606
0.0252469
0.0260872
0.0253138
0.0358828
0.0306177
0.0253227
5.23028
0.16008
0.0304522
0.0278548
6.02504
0.0250732
0.0255195
0.0252835
11.8763
0.408844
0.0253312
0.0252776
4.30315
0.0306529
5.54381
0.0255449
5.66265
6.77477
0.0928831
0.02508
0.0254761
0.0252329
0.0446449
0.982277
0.297453
0.798356
0.0398798
0.0253913
1.01028
17.9113
4.39206
0.0380201
0.0251928
0.0249833
0.0246264
0.195369
2.49911
0.0273599
0.0373894
0.0252471
0.0253784
0.0251763
0.0827843
0.0252843
0.133953
0.024982
0.0852282
5.29343
6.38935
3.09247
0.200142
0.0253225
0.0304352
0.0864919
0.043811
0.0278845
0.0309458
0.0253281
0.0253341
0.0290506
0.025089
0.025201
0.0688714
0.0248356
0.0413138
3.34541
0.0254611
0.0337754
0.150189
0.0256624
13.1452
0.0450683
0.030142
0.0253355
0.0246652
0.826988
0.0252834
0.0276299
0.0249085
0.0253945
0.0254464
0.555967
1.96828
0.0677325
0.0247042
5.81951
4.11485
5.81072
0.0270699
0.0247256
0.02495
0.0247758
0.0249426
4.90827
4.75011
0.114295
6.66332
0.0282913
0.0386625
0.0255392
5.60316
0.0268116
0.0246811
0.0260298
0.0427473
2.67045
0.518142
0.0256862
1.53576
0.029005
5.40594
3.23101
5.70803
5.80367
0.101632
0.67388
12.8414
0.375834
4.67051
13.8835
0.0335521
0.0379975
0.0883368
0.691459
0.0251625
0.0355578
6.70694
0.0254159
0.581945
0.0261167
0.0260519
0.0307489
0.0252484
5.19825
9.8127
0.0248246
4.4679
0.025313
0.935255
0.0256777
0.025551
0.162023
6.85927
16.8407
0.0251055
0.15111
0.0368598
0.0269555
4.99456
0.024887
0.0249173
0.0251224
0.0251959
4.28379
15.1612
0.103011
5.28744
0.0376678
0.0250252
0.0271242
7.3488
0.0272955
0.025783
1.0532
0.0253094
0.0368592
0.296057
0.0931878
4.40898
0.0255088
0.0329367
0.742314
0.0259647
0.156463
0.0260845
0.0360885
0.0252821
0.0346351
0.129308
7.91564
17.303
0.025112
5.77065
4.19736
0.0720592
0.182854
0.191475
7.65572
6.24207
0.0294553
6.71821
0.0262747
5.60159
0.0258388
0.0445348
0.0326687
1.50035
0.0247882
0.0251136
0.0262061
0.130319
7.78749
0.0266305
0.0368273
0.387505
1.93705
0.0782189
6.75314
0.0364019
1.18777
0.0255724
0.0248112
0.0251533
0.0956943
0.460572
0.0372197
0.0296684
0.0460195
0.0253575
0.119098
5.58862
5.07493
9.16423
0.527725
0.0253305
1.95047
0.0249147
0.025162
0.86667
7.25843
6.04479
7.04668
7.17497
5.88515
1.22103
0.0253185
0.0249438
0.383098
4.20555
3.67913
0.0621303
0.0551682
5.18443
5.20234
4.23362
5.74219
0.0254145
0.0308194
0.0289906
0.0311814
0.0253023
0.0367429
0.0255059
0.025361
0.0307694
0.0253292
0.0262251
0.0809218
0.0286324
0.0334003
0.0522178
0.0351858
0.0350583
3.83301
0.0251697
6.42664
0.0256525
0.0360077
3.92848
13.2031
0.356079
0.0304029
0.0252757
4.82339
2.50041
5.61267
9.22863
0.02538
0.576029
7.8208
0.0371161
0.0255337
0.0290671
0.242569
8.40735
0.0944755
6.88571
0.0254783
3.46661
0.046605
5.76302
0.31006
0.0262665
4.16973
4.09062
0.0249885
13.3856
0.371096
0.0299713
0.0871376
5.36451
8.46268
0.200176
5.68677
0.893617
0.0791071
0.0364844
0.0259578
0.030299
6.00433
1.78554
4.67152
1.93798
0.148781
0.0256645
0.350405
0.311172
0.0779678
0.0252133
0.0253828
0.0260068
4.61014
4.4709
5.95579
0.271235
0.0253127
0.0310749
0.0286682
0.484102
0.0993787
0.0284738
0.0256801
2.16504
0.025357
13.6119
0.0640267
3.82587
5.21967
5.68031
0.0256516
0.214039
0.0253255
1.7367
0.0250767
0.899463
4.64511
0.0339578
0.0253222
0.0478831
7.58272
0.443634
0.898026
3.66313
0.0254685
0.0253031
0.0810177
11.6613
0.0248241
0.432223
0.0247337
0.0304803
6.83095
0.237283
0.047734
3.34395
0.265876
9.726
0.0253182
0.0414435
0.0365954
8.82876
4.8652
0.0255187
5.00837
0.0397773
0.0256363
3.26044
0.0249156
1.72025
0.0252154
5.14275
0.0311533
5.63791
0.0499415
0.0265551
0.167969
8.65401
0.177209
4.99187
5.92006
0.0350155
0.122112
0.024701
0.026428
0.0254465
0.0249345
0.0288056
0.0250741
0.0255492
4.65147
0.480049
0.184133
8.68319
5.14327
0.279183
0.038591
6.43098
0.0312061
4.50183
5.92642
3.61869
0.0280266
0.0256503
0.0841002
4.73161
0.187272
0.0251276
7.45922
0.0560969
0.831808
0.0450541
5.68585
0.0287221
0.0263147
0.0340509
0.0324915
0.169682
0.0253608
0.67381
0.0385472
0.189305
0.0255493
0.0364246
4.94993
7.35189
0.0291712
0.03745
0.0254763
0.0271587
0.336363
5.77927
14.3845
0.0447911
3.20185
0.0365888
0.025103
0.0261604
0.487687
7.18894
0.0262401
0.0250983
0.101321
1.2291
0.0592925
6.51864
0.0253504
8.27098
10.0856
0.25356
8.0418
0.0254329
0.0250818
0.131764
0.0383872
4.06876
0.031095
0.142204
0.0514595
0.033432
0.230156
0.188288
0.0249173
0.0254789
0.037709
0.804138
5.72785
5.65284
0.0988108
0.0249444
0.167915
0.0332644
3.92192
0.241515
0.0252552
0.0323594
2.36167
0.0249162
0.0256378
0.326146
0.0254928
0.285117
0.0391438
0.0602022
7.96708
0.0253254
0.0249832
0.0253269
0.0253304
0.0246911
0.0275897
0.0253363
0.025345
0.0253565
0.159992
0.0253676
0.0471173
0.0253197
0.0253814
0.0253967
0.543889
0.0254129
0.136329
0.0254307
0.0319576
0.0315016
8.41173
6.25584
6.66695
0.0254498
0.035396
0.85435
0.170097
0.031421
0.0254854
0.0280913
5.55755
0.0393971
0.100687
0.0373354
0.104311
21.704
0.0919361
0.025089
0.0254347
2.68294
1.11536
0.0288488
0.0253039
0.0387624
5.19442
0.367791
0.15885
0.0335479
6.72086
0.605156
0.0270264
0.0255
4.32243
7.18044
0.025471
0.0364632
5.71494
6.31039
0.174586
0.0249055
0.0388982
0.0249222
6.33502
0.0250193
6.17724
5.76539
0.0340161
6.94245
0.0248547
0.147363
0.0253135
0.0261683
0.0613151
4.21783
0.0305958
0.070844
0.051124
0.0407713
0.0246676
0.0249712
0.0273491
0.0247313
0.0332837
0.0262465
5.98663
0.0253667
0.0249118
6.52901
0.0481778
7.60638
0.217108
6.56399
0.0281396
0.0250162
6.75165
4.45105
5.7133
5.89217
0.0353457
0.51497
0.142191
0.0252181
5.67053
0.0255185
5.79667
4.02429
5.97586
6.53561
0.0372966
0.0528317
7.562
5.71105
0.0247283
3.13845
0.0549278
3.9443
1.40996
0.0833039
0.0253573
1.056
4.78927
11.5492
0.0384707
0.601725
0.029306
7.32389
6.26216
8.75325
0.0252709
0.180083
0.033215
6.03703
5.74029
5.84557
2.17487
0.0591393
9.77861
0.0291283
0.999549
0.0421745
0.0377422
0.0252396
0.135291
0.0262372
0.0362497
4.347
5.94918
0.0337845
5.22853
0.0365863
1.88214
0.052074
5.487
0.0260814
5.38837
0.0378108
8.09637
0.0249911
0.036876
0.0252607
0.0569085
0.124449
0.0348022
6.16121
0.232137
0.604759
0.718377
0.0390208
0.0255038
0.0252873
5.78878
0.0252618
3.44003
4.26593
0.219476
0.0297716
0.711424
0.0253554
0.042502
0.0309121
0.0447606
0.0342876
4.09601
0.0498761
0.592489
0.0256705
0.0278634
0.031601
0.0303006
0.0285622
0.15477
0.0254935
0.0252396
6.0114
0.0252364
0.134364
0.213392
9.40526