/*--------------------------------*- C++ -*----------------------------------*\
| =========                 |                                                 |
| \\      /  F ield         | OpenFOAM: The Open Source CFD Toolbox           |
|  \\    /   O peration     | Version:  v2012                                 |
|   \\  /    A nd           | Website:  www.openfoam.com                      |
|    \\/     M anipulation  |                                                 |
\*---------------------------------------------------------------------------*/
FoamFile
{
    version     2.0;
    format      ascii;
    class       volScalarField;
    location    "200";
    object      omega_0;
}
// * * * * * * * * * * * * * * * * * * * * * * * * * * * * * * * * * * * * * //

dimensions      [0 0 -1 0 0 0 0];


internalField   nonuniform List<scalar> 
14804
(
3.472
0.0251123
0.0969909
0.0322816
0.0378771
0.0639914
0.0262612
0.0253978
0.111603
0.0255686
0.413415
0.102529
0.0255566
0.0385022
0.180675
7.22324
0.0389213
0.0310795
20.4449
0.0506006
0.0256905
0.0280216
0.0405922
0.0257739
12.2132
0.0257786
0.0382885
0.037653
3.53862
0.0257466
0.0248658
0.0382605
0.0507017
0.0448532
0.102814
0.0262812
1.38997
0.0256333
10.7808
0.0509091
0.0969891
0.0985114
0.161695
0.0252472
0.0378703
0.0264733
3.05497
0.0255347
0.0283437
0.49026
0.0255876
0.0248437
0.0253905
0.0273717
0.597101
2.78299
0.362671
3.49554
0.0254912
0.0265291
5.6228
0.0256399
0.0252363
3.04424
0.0252389
0.0254135
0.0256801
0.0260731
0.0254201
4.61759
0.024892
0.0369327
0.408734
4.95547
0.0255343
4.69312
6.12775
0.025106
0.052545
0.0247017
5.69691
0.0254123
0.024731
0.0255427
0.0256505
0.153255
0.0249566
0.0262509
0.0250428
0.0375855
0.0376625
0.0275054
0.0871207
0.0248378
0.503188
6.27029
3.52069
0.0369312
0.0257077
0.480997
3.48525
4.93462
0.0256612
0.0414783
0.208369
4.84465
0.101995
0.429367
0.0254203
0.0248796
0.0253295
3.27596
0.0879863
8.0503
3.24271
5.76659
0.248305
0.0388005
0.025646
0.0313689
5.94047
0.0250456
0.027029
0.0446358
0.0254996
0.0256521
0.233084
0.0401746
0.0433691
0.0368808
0.0367869
0.171037
4.11492
0.40363
2.25263
0.0439401
0.0252538
2.43867
0.0255772
0.0452309
0.0252267
8.6108
0.025088
7.61795
6.23034
0.0254353
0.195619
0.0254241
0.308623
18.8278
0.111773
25.3304
0.0519029
0.0417826
0.0247229
3.46947
0.0361795
0.515888
6.93498
0.395578
0.0251987
0.0252989
4.16459
23.9054
0.0281734
3.44385
0.0255761
5.30601
0.0256916
0.0253979
0.563487
0.0285141
0.122822
0.166044
1.60568
0.401139
0.0405968
0.0483465
0.0248457
0.399593
0.0639804
6.25988
0.0260615
0.0323524
0.027308
4.34674
0.0657436
0.0621298
0.0297062
0.0247962
0.155774
3.90597
0.02534
2.60458
0.564208
0.0251968
4.9705
0.02552
0.0731357
6.7843
7.03806
0.024791
0.0268211
0.110852
0.0262514
7.05497
0.0353725
0.874178
0.0401724
0.026332
0.0256987
5.27778
0.0261589
0.0251982
0.0260598
0.025636
0.0405459
0.0251675
0.0253509
0.025236
0.0321663
0.092811
0.0731731
0.0282314
0.025023
0.685024
0.0497413
2.24961
4.18574
0.0276758
0.0248508
0.0266173
0.0253481
4.50448
4.85194
0.0256605
0.0264067
0.195324
0.139243
0.0292038
7.17584
0.44374
0.0257081
0.0252433
0.0249168
0.16384
0.0314345
0.0281311
0.0408043
0.0249039
14.7062
0.025198
0.0252424
0.0251121
3.87185
0.0261449
0.0248083
0.027339
0.0248778
0.0254494
3.58308
0.0297014
0.0433094
0.0254709
0.983162
0.0255025
0.0347563
0.0249029
6.4285
6.53478
5.94872
8.4624
0.0256649
0.0254934
10.1685
0.198486
0.0263383
6.9609
0.089227
4.77492
0.19496
0.0251496
4.25512
5.39959
5.50854
1.09137
0.09157
0.0263152
0.0333011
0.316411
0.0251657
0.0254246
0.0279131
0.0255846
0.060998
1.08411
0.182343
0.0436001
0.0251671
0.0335648
0.0249209
0.0251504
0.0351822
0.0503444
0.0511319
0.0259564
10.0711
4.97806
0.165033
8.55313
6.29039
0.0255959
0.0302212
0.0290849
3.95876
0.0260689
3.54106
0.249119
0.0246764
11.64
0.184432
0.230643
1.749
7.84008
0.0254288
0.049236
0.236507
0.0255
1.83887
5.9068
0.0414299
0.0379085
0.0398603
0.029636
0.0254553
0.0248474
0.0251617
7.38133
0.0260307
0.122961
0.0280659
0.0254706
0.0318198
0.0255906
0.0248448
3.57396
5.5621
4.52391
0.120471
5.85278
7.22549
0.0273336
0.0254017
0.024902
0.0260237
0.19164
0.0255986
20.4346
0.0247237
0.0252366
0.0259534
0.140772
0.0878162
0.128734
7.01418
4.77385
0.0262088
0.0373269
0.0605681
0.0252248
0.0271395
0.0255485
0.0465619
0.0257527
0.0251005
18.186
0.0249131
0.0257237
4.09923
0.491105
1.74943
0.0316685
0.0672652
5.7021
0.0313467
0.0252113
6.12594
0.0264692
0.025466
7.45516
0.032482
0.0247054
0.0259541
0.0273391
7.04329
0.0271803
0.309811
0.0371441
9.93235
0.0255584
0.153782
0.0252942
0.449536
18.7164
0.0391339
0.0285636
0.278141
0.0255701
0.0494087
0.025663
0.0250449
0.035882
15.2269
0.0255654
0.0256136
0.721654
0.0254719
0.0317347
0.0257849
3.49995
0.251069
0.0604389
0.0247278
6.30007
0.0284363
0.0386409
6.64258
0.0477395
0.0297548
0.0247958
0.0265921
0.0255539
0.782995
0.0254423
0.0263136
0.0253615
0.0249229
3.61999
0.0251679
0.0259069
0.0482089
5.41968
0.025006
0.0255058
0.0249495
0.0294289
7.71795
6.4755
0.449147
0.0270227
4.42513
0.027101
0.0254202
0.0256608
0.0251091
0.0251925
0.0262356
7.57058
0.0274687
0.0256514
4.39954
0.0249426
0.524865
0.284715
0.038517
3.48535
0.0317306
5.0131
0.060917
0.0256817
0.0256513
0.0357391
0.0253225
0.0250175
7.21569
0.0320654
0.0255255
0.0357148
6.30865
5.92425
0.0437208
0.0308757
0.0289558
0.093123
0.025484
0.0309487
6.38289
0.0253413
0.0250053
0.0402662
0.0311247
1.41757
0.0453597
0.0249186
0.0380414
0.02565
0.0253644
7.24795
0.0443098
0.0251856
0.14339
0.025896
0.02522
0.0528902
5.48082
0.0254302
0.0253045
0.0249535
0.0250031
5.55994
0.0254364
0.0256636
5.1488
0.0252666
0.0257733
7.36048
0.0254237
1.28019
0.0246486
0.221026
8.83322
0.950787
0.0254816
0.0254741
0.0362756
0.0264352
0.0246627
0.0266777
0.0249459
0.0372871
0.0248031
0.0389178
0.0384698
0.0255713
5.79321
0.0937536
8.06817
0.0283235
0.0246433
0.130358
0.0253941
0.0301769
0.222282
0.0347358
0.205246
4.51612
0.0252939
9.62494
0.113219
0.0274167
0.0285809
7.36859
7.01647
0.0247027
0.0251425
0.0251642
0.237598
0.11072
6.45416
5.86087
0.0253107
0.0603507
0.157725
0.773072
0.0376406
0.028955
0.0307651
0.0249443
0.18889
6.70467
0.0376869
0.39778
0.0246756
0.025174
0.0249451
0.0371522
0.0250262
0.214919
0.0254619
18.3302
0.326569
0.0359314
0.0942303
0.0249456
0.0252096
4.4539
0.0261323
17.9657
0.0250887
0.024948
0.0251135
0.0256521
0.0546075
0.0318903
5.61217
5.74582
0.0254643
0.0254601
0.0304233
0.117665
0.0720092
0.0340862
0.02491
1.05112
0.0273395
6.12058
0.024806
0.38752
7.04387
0.0250144
0.0252323
0.0549738
0.0256913
0.0246618
0.045356
0.0256075
3.90702
0.0607427
0.71038
0.0251664
0.381489
21.2374
0.0554379
0.0256909
4.50319
0.0250753
0.386328
0.0253989
0.0255594
6.71989
0.114265
0.687063
0.0594988
0.0339998
0.0247257
5.12912
0.025181
8.62842
0.706047
0.0308504
0.0250012
0.0252769
0.0365424
0.0315539
0.0256234
0.100072
0.0941697
0.036966
0.0254323
6.57382
5.24892
0.576204
0.025255
0.052857
0.0247094
0.0254396
0.0437665
6.97339
0.0355933
4.56212
0.048682
0.149746
0.199225
0.0253522
6.86844
6.39873
0.0251806
0.0321431
0.134596
0.0316246
0.0369213
0.0284358
0.0352415
2.6219
0.0249797
0.0455814
0.0250786
0.0254913
3.55371
5.97967
0.0629961
0.0253566
0.0248307
0.0247174
0.0272097
0.0441591
6.82091
0.0608161
0.260658
17.4911
0.0680555
0.0335321
5.38154
0.0253605
4.76472
0.0264192
0.0252202
0.0253227
0.0312205
0.0765454
0.0249515
0.0287185
0.0430496
0.130901
0.0331455
0.200719
0.0252962
0.191782
0.0542393
0.0433129
0.0402812
0.0255354
0.0255207
8.59403
5.01196
0.0253812
0.113042
0.0253543
0.0248053
0.0254368
0.0274389
0.360636
0.0250103
0.0392617
0.024938
0.0290802
0.0252745
0.0454491
0.0261326
0.0250104
0.0254166
0.0588731
0.0451391
4.28342
1.39303
0.0251913
0.0252967
0.0252426
3.26452
0.0320791
0.0636848
5.68446
0.0358511
0.0299539
3.42094
0.0251164
0.025192
0.0252959
0.0249171
0.124675
0.0251882
0.0248171
0.451669
0.12875
0.030659
0.0248535
3.49868
8.27069
0.0543533
0.0296245
0.0319721
1.62824
0.066384
3.5564
0.516259
0.119953
5.77337
0.0273285
0.0366716
0.704803
0.025125
0.544835
0.0258966
0.0256368
6.59893
0.0355612
0.104509
3.64864
0.138673
0.0251712
3.2425
0.0251044
0.026568
0.0276148
0.0265655
0.0256253
6.31674
6.79533
0.03841
0.179981
0.0289565
6.77496
4.04429
0.0380562
5.71501
0.0258971
0.0251005
0.024882
0.0254643
0.0253297
15.3717
0.0324804
5.81947
0.247623
0.025348
0.0595532
0.0378886
0.0249054
0.0254508
5.84597
16.6415
0.0256504
0.0638509
0.0256181
0.0252592
0.046126
0.027333
5.34029
0.178203
2.13114
3.15485
0.0327704
0.206414
0.0254771
20.3899
0.121333
0.0249114
0.0302232
16.6656
0.0252555
0.058358
0.0248174
17.2099
0.0582905
0.0257612
0.0255986
0.0248347
0.0249466
0.0292931
20.7745
0.0250628
0.0249373
0.030665
0.0257413
5.68307
0.0729707
0.0253615
0.0248211
0.0253434
0.0436308
0.0253787
0.0252246
0.183064
1.73989
0.02533
0.0247124
0.0483673
6.42935
0.0253807
0.0249587
0.0250178
0.130463
0.0248137
6.34554
0.045704
0.0529238
1.09531
5.07346
0.024924
0.763025
0.0245643
3.25218
0.0369987
0.0295362
0.025435
0.0253195
6.92018
0.0255153
4.33574
0.0252658
0.0726565
7.42294
7.98784
0.169671
0.0255503
4.70607
0.0256897
0.0250628
0.030524
1.35155
0.0256321
0.239217
0.0657946
0.0257115
0.0322407
0.0256628
0.0257187
0.0253384
0.0253275
0.0252309
0.145283
0.0254655
0.0483712
0.0262581
20.5882
0.0256904
1.64275
0.0247767
0.0472892
0.0344822
0.141333
0.0439665
0.0667974
0.0315441
0.0287007
0.0256782
0.0312532
0.150087
0.0309097
0.0249917
0.0247979
7.52043
0.0844987
0.0459713
0.024963
0.0251224
0.152297
0.0954339
3.29642
4.78321
0.13797
0.0575443
6.49949
0.0247107
0.0255913
19.704
0.0367905
0.770911
0.0726374
0.0254505
0.0248815
0.104005
0.0248825
3.24735
0.0269844
0.0660328
0.0248638
0.187341
0.0255489
4.14174
0.0249044
0.024995
0.0959792
0.163896
0.206667
5.42891
0.075389
4.25852
0.031595
0.0729187
4.72806
0.0373379
0.540409
0.0257253
0.0248069
0.104373
6.47231
0.0687438
0.0270181
0.0251132
0.0678214
0.0255251
5.06468
6.88722
0.0252224
0.0255756
0.0252481
0.0333923
2.3064
0.0256322
5.78097
0.909513
4.17919
0.0383175
0.0254303
0.0255176
2.03805
0.0251179
3.98246
0.0282462
0.0387936
0.0253324
0.0253872
0.068695
0.0551143
1.9072
0.289813
0.0503783
0.0247152
0.0255655
0.0255714
4.00949
0.0922158
5.84593
0.0255076
4.7948
0.174262
0.0731508
0.0259495
0.0256061
0.0252984
0.0253592
6.10091
0.0458944
0.0247946
0.118196
0.63268
0.0311283
0.0459039
0.0357445
0.0252259
0.570035
0.0254263
0.0389598
0.0253871
0.05356
0.0487614
0.0252486
7.17312
0.0263505
7.6131
0.0249522
0.0254327
0.0248133
3.44068
5.532
0.0334
0.214091
0.120125
0.0257147
0.026399
0.0253883
8.14855
6.24227
0.146236
0.358106
0.0254686
0.0264464
20.4693
0.0268773
0.0352644
2.38753
0.0286818
0.0282366
5.99781
0.11622
8.02424
0.026587
0.0914413
0.0260218
0.789513
3.8683
0.0253828
0.0266925
4.19044
0.163198
0.0578208
0.0253344
3.37639
5.06675
0.0254237
0.0735815
0.0247064
0.0253275
7.27709
0.0253373
0.0449116
0.0363157
0.211275
0.0254067
0.0254474
0.0248013
0.0462163
0.0279516
15.7885
6.86296
0.0885429
2.24164
0.0248918
0.0250748
0.0253683
0.0253926
0.0486086
0.0315142
7.66334
0.0371808
0.0261078
0.0619571
0.0247193
0.024957
0.0249188
0.558885
4.76958
3.9839
0.025218
0.0394158
3.91767
0.0253806
0.0251702
0.0259462
8.0744
3.18093
0.0256644
0.104816
0.047214
0.0299829
0.0274463
0.0253756
0.125337
0.112824
0.0390525
0.430963
4.68006
0.0254434
0.0256544
0.0381979
0.0252956
0.0700257
0.0264369
0.0982902
0.0254037
5.71014
5.59908
0.0257712
0.0253623
0.0268716
0.0247378
0.148888
0.025064
0.0255316
0.0249336
0.160816
0.0253713
0.210568
0.0256798
0.025556
3.07008
0.03681
0.0253551
0.192138
8.58147
0.936043
0.0252823
6.19572
0.0252657
0.0249881
0.0255871
0.0354903
0.0274358
0.0493634
0.0544936
0.0326448
0.0254112
0.0247839
4.88949
0.10674
5.11677
0.856968
0.0250373
6.04609
0.077278
0.0266105
0.0250973
0.119862
7.79646
0.0249561
1.87226
10.0966
10.0763
0.0451305
0.0253917
0.0365598
0.0277578
0.0254309
0.0250486
0.0898978
0.0255449
0.025059
0.0256622
8.127
6.78447
3.38084
13.5965
0.0359804
0.0249328
5.18456
0.465485
0.121318
0.0248435
0.0249824
0.0253558
0.0323627
0.0285688
0.0936984
0.024951
0.0368488
7.09328
0.0310412
0.0310627
0.151183
0.0558368
0.0256621
6.72051
0.0248183
5.03298
0.025349
4.41312
7.12768
0.16312
0.0543967
0.0250237
0.0248118
0.0254116
0.0252631
0.0248562
3.15092
7.12355
0.0254001
0.0968
0.124148
0.027582
0.0253981
1.85554
0.0287519
21.6552
7.17856
5.60788
0.0766665
0.025455
0.0249924
6.31082
0.0247099
0.025296
0.0302384
0.203264
0.0294976
0.0254627
0.187813
0.181814
0.277531
3.70095
6.47
0.024939
0.0249795
0.191405
0.0248914
0.0253789
0.0250469
0.316739
0.196252
0.025306
0.0311129
6.24316
0.0254147
0.053528
0.267174
0.0254409
0.025421
0.0691096
0.035676
0.04341
4.04108
0.139527
0.025651
0.0253755
0.0245961
3.80438
0.0249857
5.98564
0.0252928
1.85615
0.0256359
0.0254293
0.0296319
0.0263904
0.34112
3.72067
0.367324
0.050663
0.0252996
0.0465536
0.0254365
0.0638268
1.52414
0.0247632
0.0618814
0.0253436
0.0248683
0.0253113
4.1335
0.103145
0.0255552
0.0265792
0.0955076
0.0257128
0.189501
2.82987
5.1467
6.8434
0.0260358
0.0916193
0.0253122
5.95668
0.0282737
0.0253568
3.71257
0.0290317
2.75418
0.0255136
0.141969
0.0446393
0.0256818
7.36371
6.32293
0.0417803
6.04783
7.79968
4.30539
0.0309114
3.3928
0.0254685
0.0254086
0.135472
5.44523
0.0428105
0.0254915
0.0248094
0.0254313
0.0255737
0.0254701
5.72769
3.9715
0.0253114
0.35106
0.0311396
0.033479
5.19257
4.36111
0.0248889
0.0251313
0.0499234
4.5302
0.0253731
6.76556
0.0249532
0.0249023
0.0296518
0.0248186
0.725375
0.0247177
5.37425
6.17407
0.0276926
0.0610269
0.0272533
0.0700578
0.0253721
0.0287612
4.04872
0.699373
0.02538
0.142678
0.0286627
5.89939
0.263023
0.024857
0.0262945
6.95979
5.113
0.656939
0.0251235
0.0283744
0.960635
7.47337
0.0296235
0.0356984
0.407485
0.0386232
0.0273324
5.91893
0.106931
0.566667
0.653114
0.0256929
0.026256
0.0248875
3.96127
0.0259551
0.0258667
7.18202
0.025683
0.025557
0.0255266
0.122607
0.0254599
5.39251
0.025456
0.0679011
0.0298117
0.105438
0.0311162
0.0466755
0.0276806
0.183018
4.57638
5.88804
0.0252839
6.28927
0.0299378
0.152315
0.0299406
0.0344466
0.0256615
0.0298835
0.0251312
4.18539
0.368181
0.0259138
0.0252173
0.0255242
0.0446841
0.0247156
0.0313657
2.57913
0.0259212
0.0351715
5.90137
3.50196
0.0292151
0.471558
0.0256265
0.0248012
0.0255386
0.0465034
0.0253539
0.0252573
0.0250086
0.0254959
0.0248985
3.18061
0.0290145
5.12189
5.92025
0.0256798
0.130694
0.0253045
0.0312879
6.25373
1.49115
5.04727
0.0252535
0.0337977
0.024701
0.0247511
7.93495
0.0433549
0.515095
0.0247729
0.0249618
0.0253707
0.0268383
0.683989
0.137522
0.0249918
0.0256905
0.0253506
5.19382
0.139065
0.0252861
2.75828
2.48049
6.10992
0.0333767
0.0863387
0.11282
0.0249067
0.024828
0.0254557
0.0249468
5.1352
10.0613
0.13036
0.0317486
0.198338
1.78137
0.0296395
0.0254286
0.0253802
0.426846
0.0309202
0.042747
0.031568
0.025277
0.0397258
0.0316442
0.027126
0.0262347
6.56697
5.33107
0.0249676
0.0582314
0.0262997
0.024952
0.0257125
4.64196
0.0253451
0.184348
0.0354612
0.0262699
0.0253906
0.0253725
2.59146
0.0257181
0.0607829
7.00975
5.71712
0.0250153
0.0809032
0.0265704
0.0255774
0.0249397
0.0285243
0.0254209
0.0613738
0.0251453
7.19125
0.0299134
0.0253518
0.0263487
0.0540785
0.0307458
0.0310738
0.0315299
0.0303412
0.0248168
0.0247332
0.0495368
0.0249338
1.25279
0.025652
0.0907366
5.23648
5.26742
0.0251191
0.226853
0.0563283
5.8322
5.8837
0.789371
3.71226
0.0247795
6.34062
0.0262044
0.0274894
0.214913
5.22996
0.0452681
3.74052
0.0251266
0.0286294
0.246095
0.182757
5.90549
0.650549
0.0748545
0.0286558
6.92171
0.0290286
0.451741
0.0255153
0.0606605
0.262302
0.0264687
0.075363
0.0247371
0.0254724
0.0863018
0.0253594
4.83328
0.0310201
0.0253723
0.27943
4.07027
0.0247258
5.76965
0.0288992
0.0248332
4.94663
5.48765
0.0262327
0.0252114
0.0255014
0.115144
0.0285459
5.66073
4.18267
0.199574
6.6369
0.0255451
0.0633365
0.0255722
3.81323
0.0253492
0.295731
5.17707
0.155965
4.37326
0.0252784
0.0250912
0.0245919
0.025331
0.0256615
0.031764
6.79059
0.0272634
0.0523808
1.62513
4.44176
8.82804
3.9139
0.025012
0.0252126
0.0371081
0.0262239
3.6521
0.0432541
0.024977
6.06414
4.28258
0.0257595
0.0253188
0.0250189
3.48092
0.0314201
0.025222
0.0251827
0.0254149
0.0253808
0.0253134
0.0248183
0.175246
0.0247356
0.629133
0.093819
0.027697
0.0317684
0.0275665
0.0254336
0.0610325
0.0256623
0.0256798
0.0534021
0.585732
0.0251093
0.0571676
0.0263993
0.0516058
7.12886
0.0248221
0.0412832
0.0253373
8.63062
0.0262924
6.48561
2.06049
16.2245
7.83332
0.435855
0.138921
1.47519
6.64185
0.0261397
7.17564
0.0253031
0.214177
5.76541
0.0667906
0.0249993
0.0253463
0.0248113
7.92628
0.161084
0.0247968
0.0246851
0.0252464
0.107069
0.192315
0.0255839
0.0585872
5.9417
0.0248987
0.124776
0.0249635
0.0251721
0.0251473
0.0305852
8.28674
0.254846
0.279048
0.181587
8.11298
0.123715
2.93582
17.0721
0.534777
6.87099
0.0250086
0.0923479
0.0255094
0.0255415
0.0255168
0.0358631
0.0253505
0.0265916
18.229
0.0264714
0.0274853
0.0275891
0.0326841
0.0250771
0.172407
0.0256557
0.0254991
0.125365
0.0432198
7.28067
0.0448982
0.0271284
0.0484034
8.42438
5.93638
0.0253489
0.169305
0.0265067
0.0583668
0.025475
0.0253946
0.0270419
6.11796
0.0379968
9.63267
0.0323755
6.12355
11.7142
6.20798
3.23384
0.0253019
0.0248775
7.19489
0.0522923
0.0695416
3.95129
0.0254967
0.0248759
0.0257146
0.0267406
0.0924548
6.67341
0.0886225
0.0248353
0.0249643
0.0253927
0.0610176
0.618695
0.0253003
0.0360598
0.0565911
0.025378
0.0484656
0.208621
4.66593
18.3872
0.0252732
0.0492227
5.46668
0.0601104
0.032402
0.0767103
5.64725
0.0253425
0.0247201
0.0248541
0.0250424
0.0263425
6.93986
0.0247108
0.0253819
0.0457995
0.0301547
3.61591
0.0269573
0.0293685
0.0345563
0.0476112
0.0252865
5.71777
0.0253423
0.0256618
0.115503
0.0378954
0.0251513
0.0257017
0.0432266
5.44712
0.0320579
0.0275255
0.124714
0.0563705
0.0283611
4.64627
4.31769
0.0301662
0.0260936
0.0260446
5.83513
0.33916
0.0341252
0.0559917
0.0248076
0.073017
0.025163
0.0312212
5.88182
0.0316389
0.051118
0.0280982
1.00949
0.057953
0.0255257
0.127663
0.106838
0.0254336
0.0629395
0.0255047
0.0446593
14.6295
5.48995
2.16008
0.0693649
0.425766
0.350009
0.0652901
0.0253237
0.025367
0.0313735
0.0444967
6.21953
0.0340149
0.0255725
0.0252322
7.01036
0.07685
6.83425
0.0262227
0.0249577
6.66599
7.03913
0.0252776
0.025395
0.0248052
0.0357557
0.0615694
0.0259438
0.0297541
0.0357675
0.0333107
3.80121
0.0251448
0.0302969
5.82511
0.0248238
0.061892
0.0246891
0.0295069
7.30928
0.029773
0.0390862
0.0249952
0.0250587
0.105759
0.0255353
0.0252391
0.0254451
0.0367078
0.116208
0.0297287
0.0531217
0.0253804
0.0250993
0.036245
4.661
5.56932
0.0294496
3.96205
0.0297574
0.0285659
0.0272965
5.41534
0.0281424
0.0255521
0.0254098
0.237811
0.0350611
0.0825935
0.025754
0.0254277
6.9971
0.02627
0.0254865
4.74826
0.0314163
0.0252817
0.0248299
0.0370963
6.00027
3.35004
0.0250298
0.0348393
0.027196
0.0251658
0.0249392
0.0354242
0.0345109
0.0854059
0.0247337
0.0379639
0.039296
3.32768
0.0303974
7.29791
0.199509
0.0263437
3.71585
0.573957
0.530065
0.0369907
0.036536
0.0254939
0.0252871
0.0308744
4.48971
0.980795
0.025489
7.13437
0.0254951
0.0369169
0.0674465
0.0309037
0.0252903
0.436232
13.5005
0.0246147
0.0253629
0.0373369
0.0252536
0.0332771
0.0777831
2.11352
0.0356192
0.0256792
0.0247884
0.061681
0.0389519
0.13159
0.0280945
0.173209
0.0361287
0.129984
0.0561942
0.323731
0.153178
0.0691914
0.165329
3.1918
0.0291071
1.22564
0.0288617
0.114369
0.0253469
0.0248898
0.0410385
0.0252453
0.0572619
0.471773
0.0434163
0.0293904
6.35054
0.0368827
0.0328845
4.74833
0.0250911
0.777208
0.103957
0.0256804
5.60732
0.198114
0.109854
0.0579343
3.65496
0.0400794
0.0256356
0.0570221
0.0381571
7.52253
0.0568899
0.0376533
0.0361713
0.0298544
0.0706601
0.0625795
0.531422
2.12231
0.027225
0.0249461
0.0257893
6.09311
0.0341952
0.0277096
0.0291002
7.24691
0.0346119
0.0254312
0.0356186
0.0249137
0.0253778
0.0289358
0.152452
0.0253719
4.89345
0.0256514
0.0251501
0.0578032
0.0329324
3.26039
0.0253018
0.0264316
6.68596
0.0350202
0.0253734
5.01882
3.12993
0.0296035
0.216007
0.0294663
0.0353796
6.33729
0.0341879
14.2461
0.432278
0.0475798
0.0369833
0.0374495
0.0249664
0.0253122
0.0248982
0.0380215
0.372168
5.57139
0.0363964
0.0579572
0.0252542
0.024958
0.0270041
5.78651
0.0288736
0.03541
0.028932
0.025404
6.63293
0.0254895
0.024735
0.252982
0.0256453
0.0252634
0.0251165
0.0254427
0.0271244
3.29437
0.104941
0.0254576
0.0247083
0.0452719
0.0268928
0.0273651
4.53021
1.60502
5.58604
0.0252841
0.0580579
5.83585
9.55047
0.285777
10.2976
0.0282003
0.0253813
3.39275
0.0354949
4.45586
0.0263204
0.025249
0.0263158
0.0275752
4.17427
3.26578
0.0275788
0.0357228
0.238142
0.0256077
13.5902
7.34635
0.0261631
0.0577235
9.65012
0.0252322
0.1872
5.13581
0.02561
0.0252423
5.39359
0.0251645
0.0254362
0.0293676
7.05691
4.39019
0.0250161
0.0348026
0.026146
4.27333
0.206165
0.0254419
0.0249103
4.1001
6.29036
5.2529
0.0248075
0.0249827
0.0252839
0.0574549
0.0367784
0.0298708
0.0249361
0.029042
5.6894
0.0548507
0.0249912
5.80467
0.0355598
0.0248691
0.0277034
0.0343644
0.0253737
0.112995
0.0422597
5.09448
0.0569478
0.0360325
3.77519
0.0414965
0.130612
3.35495
0.0468749
5.52769
0.0345422
5.42389
4.91092
3.57081
0.0353708
10.436
0.173894
0.0249826
0.0305186
0.085865
0.0723112
0.0395726
6.7125
0.0278143
0.0250082
0.0349407
0.0248335
0.0252948
0.0293977
0.0925762
0.114926
0.0351663
18.6731
0.0252479
0.0270631
0.0250927
0.0253582
0.0605136
0.0264429
0.0276999
0.025434
0.0253716
0.842037
0.025148
0.0255115
0.060302
0.0268309
4.51034
0.0654087
0.549431
0.0348922
0.0269817
0.0259275
0.109595
0.0252719
14.0714
3.32887
0.02616
0.0253921
5.15763
0.155264
0.170319
4.8252
0.0247213
0.0251683
0.0291092
1.21459
0.0269272
0.0254558
0.0416889
0.0358146
3.59116
5.79179
1.58516
0.0888581
0.0255256
9.68377
0.026011
0.0292068
0.0252783
0.0292552
0.087438
0.0540514
0.486533
0.0249571
0.0293134
0.0292513
0.0252671
5.90395
0.0351511
0.0286889
3.03447
0.634134
0.0253004
0.0249901
0.0285371
5.67487
0.0247587
0.0533015
0.029669
0.026224
0.0660455
0.0810792
0.0266973
18.6424
0.0255992
0.149985
0.0346757
0.0622708
0.0629882
0.0270517
0.911699
0.0626951
0.0255023
0.0313836
0.0524728
0.0250064
0.0427639
0.0340575
4.32356
0.0256414
8.39744
0.0252595
0.0404627
0.0333516
0.0250856
6.33475
0.115774
0.0249142
0.0513588
0.0253662
0.0252963
0.0252092
0.026943
0.0293693
0.0506607
0.0256794
0.0285436
0.113108
0.0570242
0.0607961
0.0497646
0.0248822
0.0256471
0.0250782
0.0683965
0.0251443
0.0281469
0.171544
0.101879
0.0252967
0.0253738
0.0252742
0.11441
0.0255354
0.028354
0.180751
0.0307222
22.6929
0.164322
0.0256688
0.13615
15.2884
0.0254875
0.0253091
6.3359
0.0472812
0.043459
0.0254914
0.0249495
0.0246291
0.0263654
4.52391
6.57953
0.0252753
0.0980172
0.0458854
0.0287792
0.0250324
0.0256193
4.0262
0.0252873
0.025135
6.44493
2.84353
0.0248726
0.0248179
0.0253809
4.35883
0.0268629
0.0260066
4.0965
3.98427
0.025157
0.03907
0.0253325
0.151259
0.191181
0.0253958
6.71578
0.0281344
0.075239
0.0251631
1.30314
4.56679
0.0918186
3.83545
5.66395
0.0247113
3.65236
0.0253576
0.0252115
3.89598
0.0256621
0.132934
0.035129
6.30488
0.0253004
2.76397
6.48533
0.0252293
0.0256644
0.269964
3.71153
0.0274551
0.0255046
0.0310631
0.136239
0.0318684
0.025176
6.08933
0.0258082
0.0307853
0.0262464
0.110479
8.17913
0.0251549
5.29191
0.0899835
0.206741
0.0256307
0.0265776
0.132732
0.183102
7.96932
0.0252054
0.0253156
0.025005
1.02828
0.174131
7.56078
9.07295
0.147114
0.0250072
0.0254763
0.0252052
5.76929
0.0252701
4.33894
7.46666
0.0253798
0.125781
0.045887
0.0496157
0.207184
0.0253716
0.0250731
0.45138
1.62306
0.0250323
0.0257124
5.38924
0.417981
0.0305683
0.510581
0.026146
0.0258681
6.15417
7.49025
0.0254825
0.0273253
0.0248194
4.61355
7.74231
0.0249606
0.0252469
0.0260873
0.0253138
0.0358828
0.0306177
0.0253227
5.23027
0.160086
0.0304522
0.0278548
6.0086
0.0250732
0.0255195
0.0252835
11.8764
0.40889
0.0253312
0.0252776
4.30313
0.0306529
5.54381
0.0255449
5.66265
6.77476
0.0929881
0.02508
0.0254761
0.0252329
0.0446365
0.982744
0.297095
0.786062
0.0398856
0.0253913
1.01021
17.9113
4.39163
0.038018
0.0251928
0.0249833
0.0246264
0.195242
2.49908
0.0273599
0.0373893
0.0252471
0.0253784
0.0251763
0.0827841
0.0252843
0.133953
0.024982
0.0852271
5.29339
6.38933
3.09246
0.200474
0.0253225
0.0304352
0.0864914
0.043811
0.0278845
0.0309458
0.0253281
0.0253341
0.0290506
0.025089
0.025201
0.0688712
0.0248356
0.0413211
3.34537
0.0254611
0.0337756
0.150278
0.0256624
13.1449
0.0450689
0.030142
0.0253355
0.0246652
0.82154
0.0252834
0.0276299
0.0249085
0.0253945
0.0254464
0.55601
2.06153
0.0677483
0.0247042
5.81951
4.11488
5.8107
0.0270699
0.0247256
0.02495
0.0247758
0.0249426
4.90826
4.75013
0.114303
6.66333
0.0282913
0.0386625
0.0255392
5.60314
0.0268116
0.0246811
0.0260298
0.0427474
2.67002
0.538429
0.0256862
1.62057
0.029005
5.40594
3.231
5.76371
5.80368
0.101623
0.675231
12.858
0.375922
4.6705
13.8835
0.033552
0.0379975
0.0883362
0.698684
0.0251625
0.0355577
6.70686
0.0254159
0.5813
0.0261167
0.0260519
0.0307489
0.0252484
5.19825
9.81256
0.0248246
4.46792
0.025313
0.883625
0.0256777
0.025551
0.162009
6.85851
16.8419
0.0251055
0.151055
0.0368599
0.0269555
4.99454
0.024887
0.0249173
0.0251224
0.0251959
4.22412
15.1605
0.10301
5.28743
0.0376679
0.0250252
0.0271242
7.34879
0.0272955
0.025783
1.05375
0.0253094
0.0368592
0.296207
0.0931884
4.409
0.0255088
0.0329368
0.742536
0.0259647
0.156409
0.0260845
0.0360884
0.0252821
0.0346351
0.1293
7.91566
17.3015
0.025112
5.77064
4.19736
0.0720586
0.182852
0.191399
7.65571
6.24207
0.0294553
6.71818
0.0262747
5.60159
0.0258388
0.0445349
0.0326687
1.50064
0.0247882
0.0251136
0.0262061
0.130325
7.78748
0.0266305
0.0368274
0.387785
1.93745
0.0783342
6.75274
0.0364022
1.14615
0.0255724
0.0248112
0.0251533
0.095694
0.460368
0.0372198
0.0296684
0.0460205
0.0253575
0.119095
5.58862
5.07489
9.16425
0.532803
0.0253305
1.95022
0.0249147
0.025162
0.867286
7.25842
6.04508
7.04673
7.17498
5.88514
1.21499
0.0253185
0.0249438
0.38337
4.20556
3.5314
0.0621585
0.0551414
5.18443
5.20233
4.23364
5.74219
0.0254145
0.0308206
0.0289906
0.0311817
0.0253023
0.0367429
0.0255059
0.025361
0.0307694
0.0253292
0.0262251
0.0809216
0.0286324
0.0334002
0.0522132
0.0351863
0.0350586
3.83302
0.0251697
6.42659
0.0256525
0.0360077
3.92847
13.2029
0.35602
0.0304029
0.0252757
4.82342
2.55553
5.61268
9.16314
0.02538
0.572027
7.83056
0.0371161
0.0255337
0.0290671
0.242667
8.40736
0.0944695
6.88585
0.0254783
3.46661
0.0466024
5.76303
0.310666
0.0262665
4.16975
4.09025
0.0249885
13.3819
0.370455
0.0299713
0.0871382
5.36449
8.46253
0.200201
5.68678
0.888196
0.0791073
0.0364844
0.0259578
0.030299
6.00435
1.78546
4.67153
1.96886
0.148771
0.0256645
0.356232
0.312695
0.0779676
0.0252133
0.0253828
0.0260068
4.61017
4.47094
5.95034
0.271751
0.0253127
0.0310745
0.0286682
0.476616
0.0993766
0.0284738
0.0256801
2.12257
0.025357
13.5821
0.0640254
3.82588
5.21549
5.68035
0.0256516
0.214152
0.0253255
1.73689
0.0250767
0.920287
4.64513
0.0339579
0.0253222
0.0478866
7.58261
0.443898
0.87939
3.66313
0.0254685
0.0253031
0.0810177
11.6613
0.0248241
0.432907
0.0247337
0.0304803
6.83092
0.237314
0.0477339
3.34394
0.265406
9.72632
0.0253182
0.0414361
0.0365954
8.8288
4.86518
0.0255187
5.00837
0.0397816
0.0256363
3.26043
0.0249156
1.76137
0.0252154
5.14952
0.0311535
5.63792
0.0499393
0.0265551
0.168041
8.65396
0.177212
4.99185
5.92008
0.0350153
0.122184
0.024701
0.026428
0.0254465
0.0249345
0.0288056
0.0250741
0.0255492
4.65146
0.462695
0.184167
8.68314
5.14327
0.279283
0.0385871
6.43094
0.0312061
4.50185
5.92639
3.61869
0.0280272
0.0256503
0.0841011
4.73159
0.187308
0.0251276
7.45913
0.056098
0.831295
0.0450571
5.68585
0.0287221
0.0263147
0.0340509
0.0324914
0.169878
0.0253608
0.684687
0.0385472
0.189334
0.0255493
0.0364246
4.94992
7.35192
0.0291712
0.0374499
0.0254763
0.0271587
0.329575
5.78155
14.3835
0.0447871
3.20183
0.0365891
0.025103
0.0261604
0.473948
7.18896
0.0262401
0.0250983
0.101312
1.28844
0.0592855
6.51867
0.0253504
8.2709
10.0861
0.253757
8.04175
0.0254329
0.0250818
0.131756
0.0383866
4.06879
0.031095
0.142211
0.0514612
0.033432
0.23016
0.188418
0.0249173
0.0254789
0.0377091
0.807073
5.72786
5.65284
0.0988067
0.0249444
0.167916
0.0332652
3.92194
0.241473
0.0252552
0.0323594
2.31365
0.0249162
0.0256378
0.328889
0.0254928
0.286013
0.0391439
0.0602043
7.96712
0.0253254
0.0249832
0.0253269
0.0253304
0.0246911
0.0275897
0.0253363
0.025345
0.0253565
0.16012
0.0253676
0.0471131
0.0253197
0.0253814
0.0253967
0.550255
0.0254129
0.136332
0.0254307
0.0319576
0.0315016
8.41168
6.25585
6.66702
0.0254498
0.0353959
0.841896
0.170094
0.031421
0.0254854
0.0280913
5.55755
0.0393971
0.100686
0.0373354
0.104309
21.7047
0.0919327
0.025089
0.0254347
2.67934
1.0586
0.0288488
0.0253039
0.0387633
5.19442
0.374603
0.159137
0.0335477
6.72079
0.605793
0.0270264
0.0255
4.32244
7.18041
0.025471
0.0364682
5.71495
6.31038
0.174568
0.0249055
0.0388982
0.0249222
6.33502
0.0250193
6.17728
5.76539
0.034016
6.94248
0.0248547
0.147357
0.0253135
0.0261683
0.061318
4.21785
0.0305958
0.0707814
0.0511222
0.0407708
0.0246676
0.0249712
0.0273491
0.0247313
0.0332837
0.0262465
5.98666
0.0253667
0.0249118
6.52896
0.0481821
7.60633
0.21709
6.56403
0.0281396
0.0250162
6.75163
4.45108
5.7133
5.89215
0.0353458
0.523788
0.142198
0.0252181
5.67054
0.0255185
5.79666
4.02428
5.97587
6.5356
0.0372966
0.0528197
7.56541
5.71103
0.0247283
3.10828
0.0549296
3.9443
1.40681
0.0833046
0.0253573
1.08237
4.78924
11.5514
0.0384707
0.60085
0.029306
7.32389
6.26213
8.75341
0.0252709
0.180101
0.033215
6.03702
5.74029
5.84559
2.17487
0.0591401
9.77805
0.0291283
1.00025
0.0421749
0.0377188
0.0252396
0.135293
0.0262372
0.0362599
4.35305
5.94919
0.0337847
5.22854
0.0365863
1.92067
0.0520739
5.487
0.0260814
5.38836
0.0378108
8.09631
0.0249911
0.0368761
0.0252607
0.0569119
0.124455
0.0348021
6.16121
0.231991
0.608553
0.742488
0.0390563
0.0255038
0.0252873
5.78879
0.0252618
3.44003
4.26596
0.219499
0.0297716
0.709245
0.0253554
0.042502
0.0309121
0.0447606
0.0342876
4.09603
0.0498756
0.5877
0.0256705
0.0278634
0.031601
0.0303006
0.0285622
0.154808
0.0254935
0.0252396
6.01139
0.0252364
0.134363
0.213332
9.40539
3.25894
5.12476