/*--------------------------------*- C++ -*----------------------------------*\
| =========                 |                                                 |
| \\      /  F ield         | OpenFOAM: The Open Source CFD Toolbox           |
|  \\    /   O peration     | Version:  v2012                                 |
|   \\  /    A nd           | Website:  www.openfoam.com                      |
|    \\/     M anipulation  |                                                 |
\*---------------------------------------------------------------------------*/
FoamFile
{
    version     2.0;
    format      ascii;
    class       volScalarField;
    location    "200";
    object      p;
}
// * * * * * * * * * * * * * * * * * * * * * * * * * * * * * * * * * * * * * //

dimensions      [0 2 -2 0 0 0 0];


internalField   nonuniform List<scalar> 
14804
(
-0.0161116
0.0196648
-0.0220326
-0.0218996
-0.0306264
-0.0367219
0.00120793
0.0525857
-0.0186638
0.024181
-0.106611
-0.0226225
0.0619649
-0.0245717
-0.127561
-0.275246
-0.0314895
-0.0217673
-0.01593
-0.0210253
0.0321105
0.018876
0.0482432
-0.00204084
-0.0522311
-0.000772604
-0.0209133
-0.0282977
-0.0154239
-0.00836964
-0.00322714
0.0677755
-0.0210034
-0.0471889
-0.0193368
0.000108329
-0.0213134
0.0280911
-0.264139
-0.0218232
-0.0216202
-0.0195159
0.240282
0.0367372
-0.0298454
0.0744062
-0.0218413
0.0489227
0.0185465
-0.157009
0.0633587
0.00593845
0.031334
-0.0169881
-0.154515
-0.0159666
-0.015223
-0.0157459
0.0347682
0.0766687
-0.017684
0.0648365
0.0350846
-0.0163489
0.035467
0.0319184
0.0321209
0.0080487
0.0229974
-0.00516262
-0.00536429
-0.0208161
-0.11721
-0.0121531
-0.011307
-0.00623206
-0.265815
0.0193617
0.173304
0.00396581
-0.214263
0.0316308
0.0041875
-0.011153
0.0267952
-0.0589087
0.013797
-0.0139882
0.0168075
-0.0288985
-0.0417247
0.045017
-0.0196379
-0.00430304
-0.166036
-0.263915
-0.0155066
0.0689885
0.0131552
-0.110523
-0.0168073
-0.0114208
0.0269554
-0.025012
-0.0175849
-0.00869698
-0.0225383
-0.135644
0.0385127
-0.0036451
0.0375443
-0.017723
-0.0196233
-0.196741
-0.0195338
-0.212186
-0.0173391
-0.0432012
0.0264337
-0.0221984
-0.258502
0.0166603
-0.00816735
-0.0365902
0.0343319
0.0280615
-0.0165886
-0.0247004
0.0510469
-0.0348661
-0.0347663
-0.0931067
-0.00567153
-0.0954265
-0.0134736
-0.0357049
0.0374554
-0.0718285
-0.0085576
-0.049066
0.0252671
-0.298721
0.00569817
-0.262774
-0.0242564
0.0231977
-0.0177873
0.0380199
-0.0407137
-0.0132408
-0.0186646
-0.0212712
-0.0217947
-0.0243566
0.00425172
-0.0163962
-0.0204766
-0.150814
-0.0108556
-0.0396984
0.0215337
0.0214461
-0.00757787
-0.0503026
-0.0204339
-0.0171719
0.0493691
-0.016308
-0.00902303
0.0526032
-0.0135433
0.03623
-0.0297545
-0.122633
-0.0126171
-0.0971895
0.171804
-0.0491493
0.0102257
-0.0151876
-0.0358433
-0.0553959
-0.000309439
0.140867
0.04536
-0.0103361
-0.0620485
-0.0605414
-0.0249892
0.00707567
0.253969
-0.0194131
0.0178566
-0.0550331
-0.0211416
0.0308941
-0.00994189
0.0605067
-0.0849052
-0.00582033
-0.0432847
0.00679997
-0.0156565
-0.106073
0.0795627
-0.00943415
-0.0204085
-0.058561
-0.0445373
0.00254994
-0.00848688
-0.0190181
0.00660604
0.0213931
0.0289408
-0.00895715
-0.0243212
0.0274248
0.043319
0.0351062
0.134482
-0.0193715
-0.0880756
0.0382821
0.00084855
-0.0715279
-0.0210348
-0.0155106
-0.00835374
0.0167143
-0.00384883
-0.014592
0.0439552
-0.0117266
-0.013364
0.0273853
0.0706462
-0.0199797
-0.0749637
-0.0159941
-0.300106
-0.061627
0.014648
0.0360659
0.00633167
-0.0592879
-0.0299399
-0.0202775
0.0535959
-0.00391792
-0.295891
0.031029
0.0215079
0.0194242
-0.00966043
0.0791007
0.00781612
-0.0183205
-0.00500956
0.0321266
-0.0139078
-0.0253979
0.0555274
0.0573459
-0.124309
-0.00615018
-0.020267
0.00668327
-0.0081903
-0.00929823
-0.0531079
-0.27756
0.0265772
0.0341279
-0.296421
-0.129924
-0.0144706
-0.0232155
0.217379
-0.00845475
-0.0202014
0.0186134
-0.0154625
-0.016839
-0.0836478
-0.0707956
0.209501
-0.0142871
0.132954
-0.0139865
0.0271458
-0.00460101
0.0164401
-0.0113635
-0.0369588
-0.22118
-0.0937599
0.0656709
0.0269433
0.138207
0.0102937
0.0209399
0.122466
-0.0209996
0.177922
0.000575106
-0.257874
-0.0104859
-0.120392
-0.226058
-0.00608078
-0.0115094
0.0738924
-0.0139861
-0.00931966
0.0304256
-0.0141493
-0.102882
0.00493878
-0.274575
-0.0214108
-0.0180684
-0.0162803
-0.00684626
-0.010478
-0.0210484
-0.124804
0.0339323
-0.176233
-0.010315
-0.0254639
-0.0223257
0.168905
0.0733633
0.031865
-0.00294761
0.021344
-0.257223
0.0591671
-0.029312
0.0315399
-0.00976928
-0.0309289
0.0633156
-0.0041725
-0.0141239
-0.0501684
-0.0083203
-0.0184199
-0.0444851
-0.0289148
-0.0183072
0.0309949
0.00706495
0.0603397
-0.0213195
0.0168732
-0.0145676
0.00137993
0.0215489
0.055677
-0.0614986
-0.0208702
-0.0730502
-0.0915369
-0.0156779
-0.0140597
-0.0411279
-0.0466812
0.0332111
-0.00781092
0.0329764
0.0558788
-0.00888643
0.0186706
-0.304429
0.00675474
0.0407067
-0.0114712
-0.12161
-0.0718679
-0.0246283
-0.0801194
-0.0822216
-0.0296858
0.032108
-0.206651
0.0727434
0.0286755
-0.273755
0.129008
-0.00168403
0.0567998
-0.0168904
-0.0693212
-0.00836716
-0.0195285
-0.0221403
-0.238594
0.0329498
-0.11574
0.0314229
-0.125005
-0.296711
-0.0388904
0.095702
-0.0203501
0.0620708
-0.0210176
0.0305436
0.000700032
0.121764
-0.295386
0.0241299
-0.0116069
-0.121343
0.0349444
-0.0253551
-0.000339084
-0.0151592
-0.106328
-0.0311622
-0.0022923
-0.263033
0.0926769
-0.020815
-0.0881015
0.171477
-0.0189539
-0.00304526
-0.0102693
0.0171816
-0.211202
0.0282776
0.00391777
0.0458011
0.0105691
-0.0149027
0.0278041
0.0528592
-0.0217083
-0.049851
0.00795827
-0.00561488
0.012781
-0.0195993
-0.210975
-0.0827739
-0.0637452
-0.00950825
-0.00968306
-0.00653199
-0.0103601
0.0309263
0.00675635
0.0279516
0.00677118
-0.151097
-0.0190429
0.0307096
-0.197697
0.0123859
-0.147964
-0.043886
-0.0248574
-0.179027
-0.0245444
-0.0112642
-0.0306948
0.0649456
0.0272084
0.116076
0.00853065
0.0103423
-0.199386
-0.021534
0.0603058
-0.0392849
-0.00999724
-0.0319258
-0.0343432
-0.0234561
-0.0110848
-0.0193847
-0.0107624
0.104578
-0.213894
0.0471024
0.00736533
-0.046594
0.108025
-0.0216573
-0.0523317
0.00949339
-0.0230064
0.0310793
0.0457579
-0.0110561
-0.0353591
0.0278663
-0.109506
0.053622
0.0248078
0.112779
-0.0229471
0.0372607
0.0324166
0.0134857
0.000424286
-0.00973808
0.0369199
0.0634194
-0.183868
0.0199171
0.0219432
-0.221895
0.0355562
-0.172678
0.00386756
-0.0152763
-0.0109582
-0.0224498
0.0580626
0.0352088
-0.0220878
-0.014727
0.00440644
0.0478987
0.0130285
-0.0228857
-0.0028803
-0.045088
-0.028498
-0.0112339
-0.212443
-0.0207952
-0.156802
0.0317421
0.00364457
-0.0562131
0.0316144
-0.019168
-0.121576
0.125387
-0.0158044
-0.00845387
0.0211766
-0.243345
-0.0551543
-0.0186372
0.0975801
-0.159706
-0.0756937
0.00428266
0.0184038
0.0216806
-0.134825
-0.104922
-0.213529
-0.261527
0.032017
-0.0241785
0.225645
-0.017718
-0.0207055
-0.0192976
-0.0276282
-0.00115971
-0.0182894
-0.0795736
-0.0428375
-0.016078
0.00471154
0.0215445
-0.00442579
-0.0360043
0.016146
-0.0172122
0.0289501
-0.0155125
-0.0428137
-0.0205247
0.264405
-0.000705304
0.0319242
-0.00847116
-0.0136477
-0.01521
0.0182619
-0.00481174
0.020763
0.0245722
-0.0248188
-0.0253191
-0.116598
-0.254487
0.0353045
-0.0094719
-0.0233841
-0.0435364
0.0104325
0.00463803
-0.00308017
-0.162522
0.0376332
-0.0828626
0.00320541
-0.114326
-0.00654774
0.0160064
0.0348735
-0.0397945
0.0295268
0.00419332
-0.0529453
-0.0097318
-0.0189672
-0.0506455
-0.0575542
0.0275227
-0.104129
-0.267174
-0.0436981
0.0303225
-0.0126769
0.0163643
-0.0136042
0.0367105
0.0331077
-0.0199788
-0.0191284
-0.0134633
-0.0244002
0.0314015
0.00105644
-0.0131479
0.0252099
-0.24499
-0.15753
-0.0230965
0.0149314
0.0395018
-0.020873
-0.0294997
0.0278806
-0.102844
0.180881
-0.0246527
0.0374267
-0.270729
-0.019972
-0.164627
0.0371398
0.106202
0.00392343
-0.00791912
0.0720368
-0.00889929
0.0763784
-0.0117028
0.111925
-0.0614466
-0.0180708
0.00889105
-0.0829103
-0.242832
0.0216253
-0.0220155
-0.0574427
-0.0305068
0.0757214
-0.00961651
0.00337853
-0.0518405
0.0142955
-0.0515568
0.0171506
-0.00132873
-0.0144015
-0.0390528
-0.0674333
0.0449467
0.00978193
0.00493463
0.0304459
0.165306
-0.165076
-0.0479436
-0.137225
-0.0133993
-0.0808459
0.0409133
-0.0144856
0.0185936
-0.0124381
0.00152318
0.020389
0.0448158
-0.0212186
-0.0819543
0.0138302
0.100834
-0.0476695
-0.109019
0.0424918
-0.0158768
0.0183831
-0.0161371
-0.0209349
-0.0329783
-0.0215631
0.0239851
0.051964
-0.209078
-0.0136621
0.0279017
-0.0194309
0.0450708
0.00756905
0.037152
0.030857
-0.0163999
0.0106918
0.0503859
-0.00272698
-0.0132905
0.03962
-0.0533759
-0.0137566
0.0151134
0.0391713
-0.0496285
-0.0472824
-0.243063
-0.0213826
0.0214537
0.0318517
0.0203726
-0.0187516
0.124195
-0.069445
-0.0372446
0.00424055
-0.0227513
-0.0164355
0.0206649
0.0249896
0.0214801
-0.0027932
-0.0431045
0.012781
0.0086274
-0.100752
-0.0315672
0.0975233
-0.004679
-0.0136647
-0.297262
-0.0267651
0.00799769
-0.0261029
-0.0180321
-0.0780731
-0.0116284
-0.103293
-0.0184412
-0.307373
0.0354713
0.00831484
-0.124106
0.0175023
-0.113512
-0.0119806
0.0246344
-0.115025
-0.0207598
0.263128
-0.0190488
-0.11901
0.0281155
-0.0186271
0.0191216
0.0459265
-0.0183837
-0.00905324
0.0321882
-0.297401
-0.0828286
-0.0208879
-0.0218846
0.0158287
-0.00678589
-0.1973
0.00436035
-0.0351088
-0.0123293
0.0171689
0.00727799
0.0349408
0.0460293
-0.0105232
-0.0229537
-0.208703
-0.0164919
0.0168817
-0.0453165
0.111057
0.00484096
-0.000534715
-0.0528615
-0.02211
-0.00739223
-0.0706112
0.0179309
0.0258248
-0.0522598
-0.0167011
-0.0186328
-0.101821
-0.0174686
-0.0121873
0.0466969
-0.0171683
0.0279101
-0.281777
-0.0382686
-0.0039803
-0.0202764
-0.0204957
0.0364915
0.0273284
0.00192583
-0.0145981
0.0183321
0.039688
0.0154178
-0.00356623
0.0115806
0.0102382
-0.302171
0.0151098
-0.00382698
-0.0190437
0.0423728
-0.125339
0.0227781
0.035185
0.00949933
0.0474984
0.167703
0.0255668
0.0204684
-0.0164768
-0.0584125
0.0266863
0.00142728
-0.0474974
-0.0170175
0.0298977
-0.00652915
0.000308625
-0.0182472
0.00836809
-0.0683146
-0.0551325
-0.0251398
-0.148674
-0.125961
-0.0034944
-0.205914
0.00421583
-0.0191606
-0.0361364
-0.0201458
0.0365206
0.0446676
-0.0538985
0.0596802
-0.00920572
0.0257327
-0.0257882
-0.0125342
-0.271358
-0.0953422
0.0331479
-0.0167349
0.024479
0.0145084
-0.0189724
-0.219847
0.0614027
-0.143172
-0.0206016
0.0380708
-0.0225111
0.0282756
0.0232017
0.04658
0.0175652
0.0207729
-0.130964
0.0355239
-0.0491795
-0.0141557
-0.30359
0.0314534
-0.0542641
0.0041411
0.17339
-0.020187
-0.0775848
-0.0338665
-0.0770451
-0.0303348
-0.0176876
0.0300096
-0.0216875
-0.0567554
0.101724
0.0120855
0.00762659
-0.21022
-0.0204631
-0.0532301
-0.000342815
0.0179524
-0.113638
-0.0197817
-0.0190369
-0.0150362
-0.030981
-0.0320313
-0.209472
0.00180565
0.0242641
-0.00739541
-0.0359392
-0.113938
-0.02524
0.0353292
0.0055318
-0.0207603
0.00773724
-0.0189711
-0.0155282
-0.0205955
0.00472369
-0.02164
0.0262065
-0.194816
-0.00358554
0.00457438
0.114676
-0.100355
-0.0171462
-0.0768032
0.0234976
-0.013024
0.136637
0.0114965
-0.00640604
-0.0207694
-0.12087
0.0673878
0.00196256
-0.021113
-0.0300704
-0.0238622
-0.0156341
0.0216422
-0.0739911
-0.00865471
-0.0116573
-0.00834038
0.0329739
0.0603243
0.0350644
0.0310913
-0.230929
0.0375513
-0.00824422
-0.207935
-0.00973962
-0.0278135
-0.0103239
0.0338358
-0.0489306
0.0215698
-0.200459
0.103331
-0.0276929
0.026501
0.0343401
-0.0242857
-0.0264128
-0.0516041
-0.0269615
-0.0117683
0.00463433
0.0260386
0.0527191
-0.0162594
-0.0213428
-0.208761
0.0343708
-0.0125359
-0.0396095
-0.0668633
0.00857062
-0.0107274
0.0196797
-0.00888807
-0.124484
-0.0547341
0.00456968
-0.0567581
-0.183693
-0.0208909
-0.054007
0.0159635
0.0326572
-0.162285
0.00975143
-0.0215356
0.0301586
-0.0209555
-0.0213163
0.0356595
-0.268203
0.000736905
-0.0132775
0.012167
0.0550974
0.00491764
-0.0170481
-0.0198052
0.00850914
-0.134753
-0.108061
0.0668631
-0.0130439
0.0269232
-0.206392
-0.0153435
-0.100996
-0.0187418
0.0356787
-0.0146968
-0.136517
-0.0161907
-0.0167124
-0.0173966
0.10661
-0.00752159
-0.115385
-0.018816
-0.218108
-0.0140604
0.192628
-0.0131667
-0.0172839
-0.00909279
0.0245814
-0.00774563
-0.00718886
-0.138225
-0.0327277
0.00542905
-0.016726
-0.0373762
0.0384397
-0.0865398
0.00487908
0.0370451
-0.137797
0.0374362
-0.0271298
-0.0330631
-0.016686
0.0364123
0.0285712
0.00453873
0.0627215
0.0368693
-0.13532
-0.215702
0.234902
-0.0177325
0.00704735
0.0156856
-0.00320899
0.0306219
0.118927
-0.0302811
-0.228224
-0.0410391
0.0693663
-0.0532505
0.000455589
-0.00296612
-0.000920544
-0.201232
-0.0157939
-0.0102717
0.0314199
-0.0208473
-0.00949875
0.0285506
0.0278205
-0.0120882
-0.284542
-0.0214964
-0.0101172
-0.0260494
-0.0217441
0.0528622
-0.018199
0.0233827
-0.0778655
-0.0533628
-0.0207832
-0.194636
-0.253402
0.0353036
0.0320765
0.105913
0.0266701
-0.0512505
-0.0145805
-0.0196048
0.0476092
-0.00899367
-0.0745495
-0.00185425
0.0342847
-0.00894523
0.000674525
-0.133662
0.0183809
0.0334111
-0.00306155
-0.139459
0.030237
-0.0919866
0.031676
0.0265547
-0.0176253
-0.0370828
0.0480108
-0.0161453
-0.0158512
-0.215934
0.0263719
-0.121125
0.0210163
0.0144941
-0.00698214
-0.0384964
0.0107928
-0.011526
-0.0259652
0.0501596
0.0476449
0.00411984
-0.0141808
-0.0502587
-0.0193277
-0.191287
0.0158123
-0.0404533
-0.0228347
0.000980279
0.00527324
-0.106345
-0.00499117
-0.00664127
0.0135516
-0.253058
-0.251132
0.116831
0.0292228
-0.0249184
-0.0194737
-0.00410539
0.0124361
-0.0203804
0.0263634
0.0179567
0.0317199
-0.295146
-0.0145795
-0.0157245
-0.307419
-0.0222639
0.0129381
-0.0149915
-0.0591877
-0.0186083
0.00805872
-0.00683557
0.0356
-0.0308516
-0.0175461
0.106728
0.00278418
0.0120972
-0.223994
-0.023546
-0.0243258
-0.134119
-0.0323329
0.0287595
-0.308143
-0.00224689
-0.0371848
0.0207145
-0.00941218
-0.194521
-0.102697
-0.0244186
0.0151733
-0.00346292
0.0228804
0.0379471
0.00430796
-0.241958
-0.282058
-0.00755933
0.246467
-0.0393347
-0.0179975
0.0314696
-0.16473
-0.0189234
-0.299209
-0.00741447
-0.0344917
-0.0705422
0.0280556
0.00912892
-0.0417162
-1.66842e-05
0.0410093
-0.0202634
-0.0159778
0.0473208
0.023675
-0.0388259
-0.0187618
-0.0209393
-0.0137408
-0.0533418
0.00835564
0.00215335
-0.0196017
0.00742753
0.0225317
0.0172462
-0.0269633
-0.0896337
-0.00991364
-0.0222073
-0.0120832
0.0358946
-0.0257527
-0.145914
0.0233376
0.00947913
-0.0763598
0.0820437
-0.0438173
-0.00958615
-0.120297
0.0311395
-0.00275734
0.00469132
-0.0116475
0.0145423
-0.0301235
0.0404721
-0.0182313
0.0320109
-0.0106125
0.0771013
0.0839239
-0.105739
-0.0112165
-0.0656361
-0.0213667
0.0267718
-0.0324014
0.0375542
-0.0757918
0.0211244
0.00533018
-0.0519643
-0.00954807
0.0105088
-0.00934402
-0.00943496
-0.0208249
0.0269464
-0.0102603
-0.0209677
0.0678748
-0.0165031
-0.0218039
-0.0259093
-0.252946
-0.0134815
-0.0217373
0.040327
-0.00849354
-0.0173399
-0.00872676
-0.0143727
-0.0196839
-0.0156997
0.0577437
-0.125937
-0.0468924
0.0244577
-0.00544871
-0.0164641
-0.045807
-0.257387
-0.140536
-0.00879631
-0.0205116
-0.0814017
0.0275955
0.0481222
-0.0791536
-0.0328139
-0.0303328
0.023765
0.00276621
0.0356769
0.0328924
0.0281417
-0.0253499
-0.010857
0.0265132
-0.0284615
0.110197
-0.0200015
-0.0155427
-0.0064769
0.00879002
0.0224707
0.032883
-0.00827927
-0.00996052
-0.246582
0.00442942
0.00954216
-0.0199244
0.00484928
-0.169337
0.000733203
-0.0168835
-0.00703857
0.0101312
-0.0209434
0.0397739
-0.0525443
0.0282
0.103117
-0.00837887
-0.212246
0.0306154
-0.0346738
0.103392
-0.307841
-0.0742396
-0.00360433
0.0815603
-0.118362
-0.012077
-0.200215
0.0201246
0.0750406
-0.0146024
-0.125668
-0.0252393
0.125839
-0.0577928
0.0603527
-0.0178152
-0.307591
-0.0519686
-0.021079
-0.201528
0.0673903
0.0802288
-0.00280193
-0.0109105
-0.0129762
0.0367282
-0.258489
0.0652597
0.0587644
0.0275715
-0.0308896
0.0234985
-0.0532309
0.0361901
-0.0703341
-0.0227285
-0.0265103
0.0406651
0.0521648
-0.0187263
-0.14508
-0.00954579
-0.0771904
0.017642
-0.132798
-0.0264361
-0.127646
-0.0253461
0.0822443
0.0313579
-0.0264907
0.0219968
-0.0122972
-0.138478
0.0655868
0.0318569
-0.00902498
0.0151957
7.46534e-05
-0.0226568
-0.0182559
0.0663115
-0.0208157
-0.0163587
-0.228811
-0.0186743
-0.159348
0.0300839
0.00792849
0.033365
-0.0210805
0.0338562
0.0217767
0.0117881
0.0347947
0.00909331
-0.019086
0.0488885
-0.0394495
-0.258608
0.0312506
-0.0365207
0.00718086
-0.0189882
-0.00758917
-0.0664694
-0.0121778
0.0351662
-0.0202728
0.00189539
0.000571819
-0.00761508
-0.0512723
-0.135057
0.00563489
-0.000793822
0.0341504
-0.0153202
-0.0262792
-0.0970875
0.00157181
0.0294212
-0.0100635
-0.244351
-0.123961
0.0400228
-0.0229672
-0.200609
-0.0762878
0.086936
-0.021678
-0.0314995
-0.000440881
-0.00374605
0.0235569
0.00625689
-0.195831
-0.291981
-0.107303
-0.0314065
-0.0169847
-0.0385181
-0.018947
0.0369119
0.0278915
-0.177017
-0.0203961
-0.0292123
-0.0296413
0.0330234
-0.0416981
-0.0311543
-0.0175356
0.0707906
-0.255695
-0.0197697
0.00626335
0.197133
0.0731128
0.0119659
0.0261074
-0.00916452
0.033931
-0.0170609
-0.0386126
0.0821517
-0.00423673
0.0295374
-0.0120026
0.0677339
-0.0604285
-0.123883
-0.249922
0.0114436
-0.0228849
0.0812828
-0.00174617
0.0129724
0.0784355
0.0538164
-0.0735209
0.000258639
-0.162286
0.0491887
0.0264298
0.0160509
0.0322832
-0.0193669
-0.0189655
-0.028732
-0.0205516
0.00744722
0.00610846
-0.0210829
-0.00506124
-0.0350836
0.0285331
-0.0197858
-0.0131628
-0.0644729
0.0223699
-0.023642
0.198884
-0.253099
-0.0316827
-0.0138153
-0.00998829
0.00288888
-0.0566276
0.0163815
0.0333946
-0.0154143
-0.0365142
-0.0492812
-0.248379
0.0224161
0.0159243
-0.0219982
-0.0198919
-0.235664
-0.195287
-0.0788852
-0.018585
-0.0611611
0.0764277
-0.127657
0.023875
-0.0345159
-0.0261924
-0.014628
-0.0415941
0.00756234
0.0254925
-0.0350884
0.0483289
-0.0108201
-0.0254163
0.0500608
-0.0263663
-0.00738384
-0.00173441
-0.305475
0.0693706
-0.00248356
-0.025519
-0.024247
0.069476
0.03066
0.033248
-0.0187433
0.0664662
-0.0551798
-0.00688803
-0.0194313
-0.265641
0.026735
-0.0657722
-0.00131632
-0.00871552
0.0446395
-0.0297036
-0.0156701
-0.133158
-0.00976769
0.0223542
0.0199847
0.00454472
0.0462356
0.0292151
-0.0231324
-0.0994874
-0.0164297
-0.0211582
-0.0136102
-0.00988638
-0.304481
-0.00840685
0.00143415
0.0302826
-0.0372755
0.0810033
-0.0100722
-0.0269853
0.00636045
-0.121546
-0.00830351
0.0206123
0.00737363
0.0145292
-0.0114754
0.125654
0.0254577
0.0261966
0.0482466
0.0460389
0.0367122
0.00708522
-0.0173973
0.0063626
-0.0260354
-0.0207413
0.0807066
-0.0292279
0.0144206
0.0372748
-0.0695124
0.0313111
0.0291982
0.0286755
-0.195718
0.0191136
0.127232
-0.0124852
-0.0266991
-0.260384
0.00830121
0.0257564
0.0335255
-0.262767
0.0192306
-0.0290446
-0.170984
-0.305907
-0.163095
-0.0673656
-0.113421
-0.222871
-0.0584088
0.00558066
-0.10208
0.0320627
-0.023698
-0.25646
-0.0771415
0.0137744
-0.00920026
-0.00246382
-0.175697
0.00760455
0.0032124
-0.0011195
0.0361306
-0.0200717
-0.0184856
0.0328339
-0.0296236
-0.129154
0.0115414
-0.120386
0.00221544
0.0259083
0.00565109
-0.0270569
-0.173246
-0.0322143
-0.0395262
-0.0991582
-0.159834
-0.0799699
-0.223845
-0.299743
-0.180717
-0.21933
0.00461354
-0.0225915
0.0238712
0.0603993
0.0340867
-0.00375757
0.0425198
0.080852
-0.287514
-0.0145528
-0.0189738
-0.0183198
-0.0318146
0.0174284
-0.0199541
0.0663233
-0.0108362
-0.0185152
-0.028868
-0.129612
0.122442
0.0278779
-0.0211178
-0.186151
-0.14372
-0.01014
-0.138321
-0.0140419
0.120296
0.0353703
-0.0104019
-0.015667
-0.0328407
-0.0323138
-0.242251
0.0270739
-0.1582
-0.295399
-0.251044
-0.0185107
0.0302099
-0.00233948
-0.0883575
-0.0211008
0.0463065
-0.0111361
0.0346926
0.0111412
0.0666611
0.0606505
-0.0196228
-0.00606219
-0.0986668
0.00800644
0.00446233
0.0323851
-0.0736424
-0.189478
0.0403021
0.0201589
-0.0208978
0.0345182
-0.0236795
-0.0155041
-0.0154553
-0.297132
0.0206744
-0.021696
-0.102431
-0.0710482
0.00952649
0.041267
-0.291071
-0.00686673
0.00724333
0.00740251
0.0170638
-0.00768024
-0.00984183
0.00703914
0.0470415
-0.0315338
-0.0246517
-0.0118405
-0.0154115
-0.0190863
-0.00205302
0.161775
-0.00965271
-0.23458
-0.0064465
0.0321002
-0.0187183
-0.0277602
0.0224279
0.0174063
-0.0299474
-0.0388316
0.0230887
-0.0175484
-0.122098
-0.0355262
-0.00661648
-0.0087505
-0.00990631
-0.0188563
0.0779779
0.0668841
-0.00792144
-0.184269
-0.00457091
-0.0447412
0.00845464
-0.0279989
0.0244504
0.053126
-0.305964
0.0556581
-0.0408908
0.0819462
-0.0352181
-0.0343972
0.0258495
-0.0708232
-0.0202875
-0.00997525
-0.0241798
0.0235974
-0.041395
-0.283566
-0.00753891
-0.23668
-0.00265215
-0.194015
-0.0919711
-0.0206129
0.0435579
0.0407221
0.12074
0.0136523
-0.123216
-0.0144021
-0.0104398
-0.00913089
-0.074567
-0.0829621
-0.15095
-0.0114576
0.00332253
-0.0130767
-0.0736784
0.0309122
-0.00964361
0.0045932
-0.0259412
-0.0722185
-0.0123736
-0.0240931
-0.0395767
0.0273576
-0.0123145
-0.000382777
0.0550314
-0.182716
0.00855838
-0.0710406
0.00525467
-0.0187117
-0.0895931
-0.0254345
-0.0412658
0.0148326
0.0126915
-0.0233762
0.0501045
0.0110984
0.0360773
-0.038084
-0.110566
-0.0257859
-0.05235
0.0266724
0.0199546
-0.0250043
-0.00937493
-0.12173
-0.0185265
-0.0106402
-0.025727
0.0332303
-0.018011
-0.0868919
0.0664618
0.0330177
0.0395655
-0.0704778
-0.0305152
-0.0216538
0.0693327
0.0382028
-0.0143286
0.0239793
-0.00782828
-0.011743
0.0227217
0.00108366
0.00906809
-0.0418602
-0.0869274
-0.0155831
0.015623
0.0239022
-0.0161717
0.0240231
0.013135
-0.0204369
0.0869351
-0.0200586
-0.00161502
-0.0317412
-0.0452099
-0.0152385
-0.0225818
-0.1476
-0.0157576
0.0208177
-0.00990117
-0.148979
-0.0847121
-0.021744
-0.0206818
0.0503705
-0.00574294
-0.0254414
-0.00901056
-0.0133884
0.0348553
-0.0784337
0.0330723
-0.0391682
-0.0541361
-0.019605
-0.00794475
-0.193384
-0.301447
0.003741
0.040055
-0.038835
0.0369362
-0.00311281
-0.0276607
-0.0663872
-0.0384923
0.032136
0.00280675
-0.0648035
-0.0419391
-0.037483
0.100064
-0.0443795
0.0638537
-0.0641763
-0.0671818
-0.130307
-0.131814
-0.0204695
-0.0795045
-0.0216628
-0.024069
-0.160364
-0.0189475
-0.0499364
0.0321346
0.0116599
0.181936
0.0365265
-0.0349805
-0.173136
-0.0487221
-0.0220922
-0.0401094
-0.0265785
0.0825642
-0.0145236
0.019433
-0.161284
0.215184
0.0296607
-0.0194577
-0.0157107
0.183103
-0.0649003
-0.0146519
0.104852
0.0302484
-0.069309
-0.0209936
-0.020077
-0.0525145
-0.0428587
-0.0234399
-0.0221168
-0.0249999
-0.0756147
-0.203946
-0.0122486
-0.0171236
0.00388202
0.0125117
-0.0319172
-0.0206704
0.0825229
-0.0186569
-0.170057
-0.0235552
0.0377646
-0.0218214
1.01421e-05
0.0453248
-0.0181987
-0.13447
0.0275849
-0.00754842
0.0289927
0.0218892
-0.0699515
-0.0200233
-0.0200246
0.0236545
0.0820285
-0.0548402
-0.0205908
0.0401213
-0.028893
-0.0193007
-0.0202159
-0.13774
0.0585552
-0.0356332
-0.0715118
-0.0201623
-0.248318
-0.0146426
-0.0210648
-0.0294181
-0.0404104
0.0112872
0.0435393
0.000578195
-0.0240749
-0.168131
-0.0223177
0.102608
-0.0682682
0.0345723
0.0110785
0.0323242
-0.0228695
-0.0223036
-0.0353471
0.0594558
0.0526497
-0.00548428
0.0235352
0.0070268
-0.0467129
0.0261375
0.0299198
0.0223554
-0.00748248
-0.00580823
-0.0192253
-0.0332219
0.0551591
0.00514521
-0.0216183
-0.0124768
-0.0175084
-0.00651667
-0.230727
-0.0184985
0.0272633
-0.0651261
-0.250971
-0.232068
-0.0706417
-0.272579
-0.0172617
0.0261232
-0.0185704
-0.0246342
-0.00876229
-0.0136715
0.0179718
-0.0130628
0.0897873
-0.00752382
-0.0199872
-0.0187986
-0.0395598
-0.0318782
0.0356513
-0.27792
-0.0988302
-0.0128171
-0.0609838
-0.228548
0.0329244
-0.0435826
-0.0428869
0.000532999
0.0210551
-0.0152533
0.00580918
0.037513
0.0691502
-0.161101
-0.00661317
0.0151627
-0.0221239
0.0728127
-0.00939988
-0.120157
0.0371632
0.0108741
-0.00989507
-0.13619
-0.0664431
0.00568859
0.0129278
0.00922139
-0.056679
-0.0239082
-0.0221306
-0.00112804
-0.0182518
-0.135104
-0.0384701
0.0131486
-0.0244496
-0.0375889
-0.00155941
0.0971397
0.0357992
0.0508091
-0.0326538
-0.0490652
-0.0430637
-0.051804
-0.0216594
-0.0118023
0.187228
-0.0181938
-0.0188973
0.00248983
-0.112462
-0.0202563
-0.016276
-0.026661
-0.013843
-0.0205651
-0.248265
-0.0224621
0.00514248
0.043212
-0.0197645
-0.059398
0.092157
-0.0564614
0.10191
0.0147696
0.0713832
0.009311
0.0305704
0.013203
-0.0196092
-0.078963
-0.0334193
-0.0157741
-0.00887333
-0.0167068
0.0178411
0.0487438
-0.055553
-0.0148596
0.104027
-0.00993492
0.0495167
0.171157
0.0229639
0.0338739
-0.0300206
-0.0159436
-0.00890746
-0.0432614
-0.139301
-0.0311542
-0.0166737
0.00766429
-0.036242
0.031753
-0.294447
-0.0173611
-0.0138434
0.0515853
-0.0408204
-0.0339674
-0.0188312
-0.00875745
0.00574502
0.000926204
-0.0177426
-0.01966
-0.0163092
0.0497703
-0.0426104
-0.0262839
-0.016614
-0.171081
-0.196001
-0.0196562
0.00150125
-0.239145
-0.0132244
-0.0243528
0.0385832
-0.0238511
-0.0197733
-0.0348774
-0.0140227
-0.0053362
-0.0215467
-0.0224216
0.0231957
-0.00718661
-0.0232287
-0.0183426
-0.16675
-0.209285
0.0363734
0.0134258
-0.0178975
-0.164483
0.00806842
-0.0316432
-0.0187374
0.0224475
-0.0463665
0.237765
-0.0115131
-0.299555
0.0385129
-0.136123
-0.0216824
-0.0208616
0.0130531
-0.00419201
-0.0199334
0.0617831
0.0588044
-0.0200856
-0.0290779
0.0140463
-0.0498219
-0.0204468
-0.00898456
0.0232401
-0.261837
0.0271238
0.060259
-0.0199734
0.0188025
-0.0148233
-0.11489
0.00535992
-0.0258605
0.0493886
-0.0084665
0.0251564
0.0274069
-0.0230687
-0.0242565
0.0307112
-0.0147795
-0.0902583
0.112251
-0.0319305
-0.0229995
-0.00204992
-0.0116445
0.018599
0.05755
0.0219035
-0.00443997
-0.0210436
-0.0232621
0.0311644
0.0465268
0.0386485
-0.116481
0.0326802
0.0723333
-0.145461
-0.028809
-0.295411
-0.0202671
0.0126549
0.0425384
-0.293499
0.0290746
0.0438615
-0.139531
-0.0210325
-0.0311623
0.0327915
0.0131936
0.00420738
-0.0100657
-0.0086218
-0.0394333
0.0221555
-0.0245305
-0.0212904
-0.0178425
0.0161973
0.0266786
-0.00950451
-0.00955478
0.00159219
-0.168395
-0.239642
0.00977027
0.00773433
0.029231
-0.00837167
0.0629595
0.0710699
-0.00752597
-0.0111249
0.0256412
0.147906
-0.00342656
-0.125839
-0.0174595
0.0262884
-0.129423
-0.0199428
-0.0405925
0.0269622
-0.216781
-0.00948191
-0.0952057
-0.0084243
-0.18511
0.00565846
-0.0102849
0.0399741
0.0315503
-0.0127778
0.0438425
-0.059583
0.0658805
-0.267347
0.0426098
-0.0187511
-0.184671
0.0212097
0.0319202
-0.0595419
-0.0134655
-0.0172677
0.0287755
-0.0198719
-0.116284
-0.0261707
0.0280118
-0.306364
-0.0121256
-0.0285973
-0.0134822
0.0604155
-0.107668
0.0229564
-0.021958
-0.100212
-0.0154615
0.0268724
0.0433296
0.0351537
-0.0177799
-0.147636
0.0253468
0.0442327
0.01504
-0.167449
-0.0213442
-0.0382432
-0.218766
-0.129101
0.0152536
0.056755
0.0297992
-0.0237749
0.020918
-0.00941056
-0.100705
-0.00673818
-0.0955793
-0.0462515
-0.0174274
-0.0431377
0.0262764
0.018494
-0.013517
-0.01288
0.0160039
-0.0115901
-0.0159445
-0.125427
0.0473433
-0.0699853
0.0723645
0.0384595
-0.0359293
-0.128561
0.0284568
0.0148974
-0.0031237
-0.00699864
-0.150769
0.00561907
0.0239111
0.0772081
0.0425529
0.101958
0.0948498
0.0448608
-0.0610155
-0.0209993
-0.0194117
0.0337787
-0.257798
0.0173097
0.0328732
0.0402278
-0.307746
-0.0827623
-0.00897955
0.0378821
-0.00786833
-0.0284056
-0.100082
0.0377917
-0.291574
-0.0580307
0.166118
0.0176875
0.0545381
0.0324427
0.156109
0.0414312
-0.0627583
-0.0220909
0.0311192
0.0517535
0.125276
-0.284389
-0.0126204
0.0917507
0.0203795
0.00820221
0.00399469
-0.0963573
-0.0156146
0.0809421
0.113543
0.0244104
0.0444232
0.0283238
-0.0453002
0.0392298
-0.127965
0.0137951
-0.0986542
-0.0139128
-0.0415752
-0.0205679
-0.100556
0.021285
-0.0279004
-0.0450708
-0.032487
0.0637086
0.0365957
0.0400055
0.0254881
0.0524894
0.0186301
0.0203332
-0.0710017
0.0022721
0.152947
-0.0184205
0.055355
0.125446
-0.12011
0.0296695
-0.296774
-0.0532814
-0.0248217
0.0276707
0.00485716
-0.130744
0.0242478
-0.017822
0.00579977
0.0338663
0.0124527
-0.182957
-0.235102
-0.0136893
-0.000369807
-0.165947
-0.0086999
-0.0235834
-0.017383
0.00624391
-0.004321
0.00641248
0.00948294
-0.0236834
-0.00970087
-0.0624485
-0.0161787
0.0870882
-0.0210509
0.0240408
-0.0192307
0.0315823
0.00172405
0.0658781
-0.0503294
-0.139842
-0.0849693
0.0437778
-0.233046
-0.018408
-0.0159302
-0.0204614
-0.256121
-0.237411
-0.0759496
-0.127367
-0.275826
-0.128374
-0.0147147
-0.291835
0.0122994
-0.0211227
-0.021129
-0.210698
0.0267439
-0.0145198
-0.287513
0.0296545
-0.0152341
-0.000309904
0.00375273
-0.0286148
0.0191064
-0.037737
-0.232955
0.00232185
-0.00994444
0.0203185
-0.214914
0.0313298
0.0325181
-0.0224027
-0.137372
-0.301005
0.0209213
-0.122272
-0.0328426
-0.0163592
-0.0119273
0.0105339
0.0116626
0.0195054
-0.00882049
-0.209062
-0.302889
-0.0367727
-0.069223
-0.0417644
0.0157788
-0.017158
-0.115982
-0.0181151
0.0087207
0.0555018
0.0394501
-0.0396781
-0.111173
-0.0289692
-0.00887618
0.0342146
0.0196606
-0.0204888
0.0684805
-0.0800796
-0.0135146
-0.0298605
0.0104207
-0.0106341
-0.122178
-0.181787
-0.288561
0.0209744
-0.306983
-0.0105877
-0.00117167
-0.0222195
-0.0416599
-0.122215
-0.0364985
-0.00709328
-0.307131
-0.01432
-0.138029
-0.0125356
-0.0452493
0.0160004
-0.0700452
0.0086195
-0.00667428
-0.00896615
-0.0506784
-0.131211
-0.015483
-0.0381639
-0.0556415
-0.0126898
0.253246
-0.145294
0.0580788
-0.222233
0.0133211
0.00869854
0.0255192
-0.0982474
-0.172394
-0.0383796
-0.0243092
-0.0551929
0.0266854
-0.0184039
-0.106463
-0.0159366
-0.139679
-0.199299
0.0308792
-0.020337
0.0105537
0.0223179
-0.0127055
-0.110051
-0.030715
-0.0933978
-0.0136608
-0.253693
-0.212875
0.0361589
0.0118284
-0.0159856
-0.00733797
-0.251855
-0.0361965
0.209456
-0.0447963
-0.0604894
-0.00931188
-0.225579
0.0417777
0.130978
0.0055689
0.125351
0.03108
-0.0258023
0.0326254
0.0427219
0.0256351
0.033617
-0.0108259
-0.02001
0.0568326
0.121425
0.147119
0.0277598
-0.00847157
-0.0122945
0.0272405
-0.292035
0.0319042
-0.0228359
-0.00804011
-0.293118
-0.157892
0.0356652
0.0252267
-0.0129035
-0.237736
-0.111093
-0.275157
0.0401072
-0.197367
-0.26038
-0.025519
0.0324312
-0.0237147
-0.0252741
-0.155213
0.0838834
-0.307458
0.0567878
-0.0136643
-0.0182122
-0.305456
-0.0148603
0.0807715
-0.00906143
-0.0127167
0.0010535
-0.284726
-0.0272687
0.0416221
-0.0263689
-0.0648843
-0.182686
-0.0157779
-0.0334647
-0.220002
-0.0204475
-0.0226278
-0.0129675
-0.0191741
-0.306481
-0.0158486
-0.00986328
-0.0765126
-0.122278
0.0316711
-0.0928597
-0.0356589
-0.0214549
0.0306431