/*--------------------------------*- C++ -*----------------------------------*\
| =========                 |                                                 |
| \\      /  F ield         | OpenFOAM: The Open Source CFD Toolbox           |
|  \\    /   O peration     | Version:  v2012                                 |
|   \\  /    A nd           | Website:  www.openfoam.com                      |
|    \\/     M anipulation  |                                                 |
\*---------------------------------------------------------------------------*/
FoamFile
{
    version     2.0;
    format      ascii;
    class       surfaceScalarField;
    location    "200";
    object      phi;
}
// * * * * * * * * * * * * * * * * * * * * * * * * * * * * * * * * * * * * * //

dimensions      [0 3 -1 0 0 0 0];
oriented        oriented;


internalField   nonuniform List<scalar> 
21991
(
0.0328603
-0.0446073
0.011747
0.235201
-0.476229
0.241028
0.124574
-0.0671355
-0.0574381
0.144088
-0.159119
0.0150308
-0.0581004
0.163199
-0.105099
0.134597
-0.0606035
-0.0739931
0.215939
-0.024386
-0.191553
-0.266052
0.0205215
0.24553
-0.100304
0.0393944
0.0609091
0.356268
-0.664485
0.308217
-0.0448082
0.102099
-0.057291
0.106076
-0.106576
0.000500102
0.354584
-0.207505
-0.147079
0.0410681
-0.155453
0.114385
0.0518547
0.053104
-0.104959
-0.00404662
0.000432161
0.00361446
0.0521929
-0.110293
-0.16109
0.175887
-0.0147969
0.0187081
-0.0187081
-0.133272
0.0876477
0.0456246
0.418805
0.17821
0.0214033
0.147474
-0.168877
-0.0583133
-0.0800801
0.138393
-0.314734
0.224352
0.0903823
0.00143166
-0.000891508
-0.000540156
-0.243922
-0.0708127
-0.00204347
-0.10675
0.108794
-0.166235
0.0878885
0.0783461
0.054585
-0.0440686
-0.0105165
0.29305
-0.132807
-0.160243
0.170924
0.20081
-0.371735
-0.146393
0.155235
-0.0088423
-0.0981592
-0.0351131
-0.137146
0.144916
-0.00776935
0.0515725
-0.0915931
0.0400205
0.027769
0.18817
-0.0143823
0.0726105
-0.0582283
-0.573525
0.363221
0.210304
-0.0458938
-0.018506
0.0643998
-0.0940514
-0.0288712
0.122923
0.0484153
0.0761582
0.09206
-0.0404875
-0.0555013
0.0301922
0.0253091
-0.154111
-0.181362
0.335473
0.0494824
0.113717
0.122422
0.108411
-0.230833
-0.0451578
0.0835968
-0.038439
0.266582
-0.223621
-0.0429603
0.166778
-0.145375
0.0993706
-0.0594564
-0.0399142
0.326231
-0.204818
-0.121413
0.51619
-0.636433
0.120243
-0.246878
-0.202363
0.449241
-0.20557
0.19559
0.00997995
-0.0460037
0.100331
-0.0543275
0.0128406
0.0473198
-0.0601603
-0.0861532
0.0529296
0.0332236
-0.0406771
0.0587057
-0.0180285
-0.52088
0.0629694
0.457911
-0.0661838
0.188606
0.0303082
-0.0257447
-0.00456349
0.118721
0.20751
-0.366142
0.0989362
0.267206
0.0588614
-0.0460208
-0.193671
-0.172471
0.171064
-0.405354
0.23429
-0.0231531
0.441958
0.231596
-0.043528
-0.188068
-0.738754
0.449147
0.289607
-0.035884
0.0339066
0.00197744
-0.195226
0.301431
-0.106205
-0.128073
0.12603
-0.04449
0.0983186
-0.0538286
-0.0107075
-0.0192607
0.0299681
-0.312132
0.0787111
0.233421
-0.00432745
-0.0315566
-0.00232838
0.000654452
0.00167393
-0.239244
0.474445
-0.124643
0.0950945
0.0295488
-0.176342
-0.262061
0.438404
-0.00266544
-0.00255928
0.00522472
0.427694
-0.25663
0.24869
0.170977
-0.419666
-0.225288
-0.0868445
-0.47261
-0.0830247
0.555634
0.00186554
-0.0826002
0.0807347
0.545477
-0.0731544
-0.472323
-0.175848
0.235264
-0.0594161
0.213437
0.230779
-0.444216
-0.0729549
-0.0932798
0.0387901
-0.162647
0.123857
-0.175935
-0.00336575
0.179301
-0.121585
0.0550381
0.0665469
-0.323444
0.141521
0.181923
0.0803101
0.0190605
-0.00218474
-0.000143636
0.0139079
-0.146829
0.000435557
-0.293967
0.161562
0.132404
-0.0962319
0.0514237
0.0134611
0.0452446
0.0126414
-0.0479685
0.0353271
0.16321
-0.63582
0.0870284
-0.16488
0.0778515
0.0497769
-0.0767222
0.0269452
0.0395618
-0.0269204
0.0089672
0.0971085
-0.099187
0.0531833
-0.371867
0.0234004
0.348466
-0.160109
0.331034
0.122333
-0.395656
0.273323
-0.0255555
0.041802
-0.0162465
-0.0829822
-0.0386028
0.00932814
-0.00995682
-0.0377723
0.0122168
0.00482457
-0.00749
-0.0668539
-0.00445059
0.0713044
-0.0828745
0.121665
-0.504235
0.564846
-0.0606105
0.00619704
-0.167287
0.0048957
-0.00392304
-0.000972669
0.442713
-0.229276
-0.126052
0.236385
-0.110333
0.129355
0.00963471
-0.138989
0.000100464
-0.520981
-0.35336
-0.220165
-0.0347035
-0.0473451
0.0820486
0.128097
-0.0690027
-0.0584225
0.127425
-0.16651
0.00519804
0.161312
-0.154345
-0.012165
0.0646078
-0.121426
0.0568182
-0.0408513
0.035577
0.00527424
-0.101667
0.0758721
0.0257954
-0.0334585
-0.033407
0.0668656
0.144377
-0.0150218
0.153533
-0.307644
-0.0649555
0.0748209
-0.00986537
-0.14573
-0.108182
0.253912
-0.167077
0.029931
0.267546
0.177167
-0.444713
0.00361454
0.000417797
-0.00403233
0.545415
-0.0292256
0.000114706
0.0119605
-0.00376568
-0.00819484
-0.330177
-0.408577
0.0852492
-0.0354723
-0.373591
0.00172458
0.0272365
-0.0777682
0.0505316
-0.0222647
0.0222647
-0.0393331
-0.0609705
-0.00570442
0.00570442
-0.127105
0.0330536
-0.0285428
-0.0831313
0.111674
0.444147
-0.195457
0.0506037
-0.0371426
0.0715491
-0.123922
0.0523727
0.113943
-0.0541769
-0.0597661
-0.014894
0.014531
0.000362936
-0.0432267
0.0704632
-0.0648564
-0.334331
0.399187
0.613735
-0.096547
-0.517188
-0.0320584
-0.00879287
0.00143166
-0.198399
0.190639
0.00775977
0.0425018
0.00810182
0.260778
0.0058041
0.0078616
-0.0297513
0.0218897
-0.321997
0.0857229
0.236274
-0.323709
0.0576571
-0.00873738
-0.0536491
0.0623865
-0.209835
0.203666
0.00616813
0.0991041
-0.099661
0.000556932
0.107037
-0.0551821
-0.0686891
0.0352306
-0.0602335
-0.041434
-0.156181
0.0808838
0.0752971
0.140396
-0.15232
0.0119234
0.612952
-0.2778
-0.335152
-0.0456413
-0.0405119
0.112228
0.0223687
0.011666
0.0125651
-0.0242311
-0.105738
-0.102905
0.208644
-0.124243
0.146435
0.00955934
-0.185494
-0.0581658
0.0452642
0.0129016
-0.0258598
-0.0836985
0.109558
-0.119344
0.0934846
0.202107
-0.182331
-0.0197762
0.54173
-0.408181
-0.133549
-0.060044
0.00454272
-0.0725402
0.0273824
-0.131814
-0.147942
0.279757
0.0824626
-0.0444557
-0.0380069
-0.0799436
0.0655613
-0.392023
0.306595
0.0854279
-0.0297637
-0.0182048
0.310224
-0.278632
-0.0315922
0.137165
-0.114904
-0.0222617
-0.0232094
0.0014944
0.021715
-0.00635643
6.80078e-05
0.00628843
0.340661
0.201069
-0.0680614
0.214772
-0.14671
0.121459
-0.0458601
-0.0755987
-0.117171
-0.0974197
0.214591
-0.0162214
0.0151961
0.00102533
-0.0341789
0.105728
0.0407203
0.0388199
-0.0795402
0.0813507
-0.164225
-0.277613
0.193651
0.0839617
-0.211274
-0.110723
-0.00277974
0.027072
-0.0242923
0.232164
-0.000567806
-0.392106
0.327249
-0.12756
-0.10321
0.23077
0.095891
-0.241621
0.0995538
-0.165274
0.322708
-0.157434
0.3918
-0.189069
-0.202731
-0.192825
0.370307
-0.177483
0.043133
-0.150535
0.107402
-0.108413
0.0488303
0.0595831
0.0482751
0.0888901
-0.0559095
-0.153925
-0.100995
0.291588
-0.190593
0.0513169
0.0315064
-0.0828232
0.123275
-0.00340935
-0.119866
0.0536611
0.0128932
-0.0665543
-0.0200416
0.0384401
-0.0183985
0.0277059
0.158972
-0.186677
0.220134
-0.344782
0.124648
-0.224257
0.156195
0.259853
0.131947
0.0240057
0.0029643
-0.02697
0.0275773
-0.0193609
-0.00821642
0.384711
0.195292
-0.580003
0.064538
-0.209736
0.145198
0.087063
-0.025501
-0.0615619
0.0484281
-0.105491
0.0570625
-0.191337
0.00803487
0.183302
0.0022959
-0.0014386
-0.000857296
0.0749239
0.00721936
-0.0821433
-0.130155
-0.163812
-0.374187
-0.210278
0.374644
-0.164365
0.0695339
-0.0676684
-0.131764
0.169348
-0.0375839
-0.037074
-0.161325
-0.127316
-0.358471
0.198361
-0.0173016
0.0305549
-0.0132533
-0.250642
-0.14138
0.28892
-0.571844
0.282923
0.310031
-0.549274
-0.0176549
-0.0207002
0.0383551
-0.214635
0.0974632
0.142624
0.30754
-0.450164
-0.241476
0.147769
0.0937072
0.155977
-0.351202
-0.0372164
-0.328803
0.366019
0.0646591
-0.0542766
-0.0103825
0.0199814
0.182126
0.0521844
-0.110607
0.0471537
-0.248945
0.201791
0.0387309
-0.0860752
0.0473443
-0.287446
0.120396
0.16705
-0.150195
0.116016
-0.2364
-0.112881
0.349281
-0.0119577
0.0204763
-0.00851868
-0.0263346
0.0261923
0.000142244
0.0195903
-0.00792423
0.0034761
-0.008874
0.00539791
-0.58726
-0.508296
0.0593334
0.448963
-0.00611449
0.00972902
-0.050844
0.103948
0.00976985
0.154974
-0.164744
0.000700291
0.0112602
0.093905
-0.041416
-0.052489
0.0336618
0.00590003
0.00903335
0.0780296
0.546409
0.0106689
-0.557078
0.0246255
-0.0167639
0.0227025
0.00760572
0.00477564
-0.00864192
0.00386628
-0.0252085
0.0765253
0.0328869
0.0610181
-0.0117425
-0.164105
-0.143539
0.00677652
0.136762
0.0568537
-0.0655911
-0.362089
0.196814
0.132939
-0.301179
0.168241
0.17518
0.288107
-0.18737
-0.100737
0.0408723
-0.101476
0.0289392
0.0757201
-0.104659
-0.0340908
0.0986986
-0.124664
0.10056
0.0241041
0.211268
0.11144
-0.0786897
0.121823
-0.241635
0.452987
-0.211353
-0.602069
0.201406
0.400663
-0.121184
0.14241
-0.0212258
0.109768
0.0135075
-0.0946222
-0.0300211
0.100096
-0.205834
0.0308202
-0.076714
-0.0428894
0.0131257
0.059949
0.0470877
0.0116289
-0.0110784
-0.00498882
-0.0182205
0.0628187
-0.186255
0.176957
0.00929776
-0.186856
-0.00448155
0.030288
-0.0479429
-0.207767
0.0802076
0.0158229
0.0488361
-0.114714
0.0661005
0.0486132
0.169506
-0.48147
0.311964
0.0294273
-0.0479332
-0.059297
0.0848286
-0.0255315
0.0102374
-0.0770913
-0.0119673
0.0656283
-0.0160189
0.00406123
-0.162343
0.251313
-0.0889693
0.12375
-0.0361019
0.0386871
0.0554337
-0.0941208
-0.508195
0.0575909
0.0426541
-0.100245
-0.0126268
-0.00226713
-0.0943938
-0.0704861
0.0843246
-0.124224
0.0398995
-0.0846594
-0.0715215
-0.17179
-0.0144648
-0.324008
0.286791
-0.138373
0.339183
-0.409695
-0.192374
0.00206486
-0.217471
0.0323746
0.185097
0.0850848
0.0140193
0.0616151
-0.191695
0.13008
0.242222
0.025503
-0.267725
-0.174258
0.0424935
0.149766
-0.141426
-0.182017
-0.00627458
0.0345771
-0.0283025
0.0151798
-0.0071402
-0.0080396
-0.0239968
-0.0133998
0.0373966
0.106437
-0.0670431
-0.0058934
-0.000463032
-0.00918956
0.00845417
0.00073539
-0.129816
-0.11166
0.228053
-0.474931
0.148816
-0.385216
-0.221893
0.00442105
0.0242673
-0.0835643
-0.159252
0.276854
-0.117602
-0.018886
0.018886
0.118777
0.242368
-0.361146
0.51871
-0.229789
-0.254749
0.0707055
0.184044
0.0381096
0.0559413
-0.094051
0.0239876
-0.0970807
0.0730931
0.112673
-0.064245
0.0122018
0.0123076
-0.0245093
-0.0243024
0.0135949
-0.1692
0.17897
-0.0169074
-0.14574
-0.140314
0.0982056
0.0421087
0.392969
-0.207156
-0.185813
0.184353
-0.195146
0.0107935
-0.405987
0.0183142
0.387672
-0.14232
0.0678375
0.0744821
0.0817759
0.60882
-0.363391
-0.245429
0.0158584
-0.0204038
0.00454539
-0.323159
0.262161
-0.135493
-0.126668
0.0155354
0.0484095
-0.0928995
-0.090164
0.177962
-0.152687
-0.0252747
-0.139691
0.114559
0.0251318
-0.00522426
0.0099999
-0.149507
-0.0107455
0.160253
0.408683
-0.236741
-0.171942
0.00158504
-0.00254483
0.00095979
0.172949
-0.154353
0.49875
-0.344397
-0.000570523
-0.0300936
-0.113445
-0.386508
-0.222375
-0.16307
-0.0424997
0.00183941
-0.00223595
0.000396542
0.0583005
-0.0251373
0.0675375
-0.0424002
-0.0356651
0.11999
-0.0110524
-0.0254523
0.0365047
0.137299
-0.543286
0.109695
-0.0497462
-0.159497
-0.222786
0.382283
-0.0463711
-0.0528159
0.0365361
-0.0206777
0.0135422
0.125031
-0.138573
-0.0518361
-0.0914796
0.143316
-0.0805734
0.0554362
0.188812
0.0116085
0.440901
-0.574668
0.133767
-0.254707
0.153712
-0.00975538
-0.0890812
0.0988366
-0.0487929
0.0314913
0.533808
-0.17754
-0.0937403
0.189848
-0.0961076
0.0871403
0.226984
0.233276
-0.460259
0.164783
-0.153336
-0.0114474
-0.213034
-0.0308878
-0.0119294
0.0447898
-0.034664
-0.0800498
0.115544
-0.121329
0.00578579
-0.353321
-0.00710045
0.00721516
-0.180317
0.128481
-0.0453324
0.127705
-0.0823726
0.0193286
-0.0071268
-0.11659
0.0219682
0.0305356
-0.155545
0.12501
-0.348218
0.129536
0.218682
-0.228649
0.209009
0.0196395
0.534503
-0.534503
0.0986383
-0.0696991
-0.233739
-0.274671
0.50841
-0.137136
-0.140477
-0.255827
-0.0423722
0.298199
-0.386913
0.145279
0.0341517
-0.0404263
-0.19628
-0.165809
-0.258647
0.110559
0.148088
0.101087
-0.129958
7.57508e-05
0.015104
0.337661
-0.0643558
-0.273305
-0.154507
0.487924
-0.35081
-0.137114
-0.0399566
-0.135937
0.175893
0.00242075
-0.00987587
0.00745512
-0.0314795
-0.0271542
0.0586337
-0.00955049
0.0844744
0.0992244
0.137161
0.0209689
0.0108483
-0.0318172
-0.163761
-0.0313852
-0.282865
0.125117
0.157748
0.115085
0.490645
-0.60573
0.0459087
0.346938
-0.392846
-0.21448
0.343691
-0.129211
0.526426
-0.480518
-0.0197345
-0.0411442
0.0608787
-0.180926
0.18758
-0.00665327
0.555986
-0.0915218
0.0878683
0.00365354
0.147829
0.340095
0.078756
0.0351869
0.0473435
-0.0880547
0.0407112
-0.013463
-0.14199
-0.0371603
0.0947512
0.182137
-0.00417512
-0.013492
-0.0293974
0.109136
0.00640723
-0.0832381
-0.147171
0.230409
0.547921
0.106628
-0.116384
-0.119535
0.284913
-0.165378
-0.130159
0.331621
-0.201462
0.00195318
0.00737496
0.0116735
0.132415
0.0500809
-0.257586
-0.154369
0.137461
-0.00339392
-0.0128275
-0.00989643
0.0290047
-0.0191082
-0.131508
0.14555
-0.0140417
-0.136739
0.184997
-0.0482582
-0.0180821
0.194362
-0.17628
-0.0533753
0.0795852
-0.241929
0.0390973
0.118422
-0.157519
0.00724532
-0.258215
-0.000386885
0.258602
0.298923
0.0387384
0.0881218
0.0788702
-0.166992
-0.0676762
0.106774
0.0334938
-0.064894
0.0314002
0.136436
-0.132521
-0.00391536
0.0394253
0.499557
-0.538983
0.0894451
-0.132639
0.0431942
0.0232654
0.46738
0.115452
-0.371279
-0.0211529
-0.00241151
0.0235644
0.0128685
-0.306657
0.092177
-0.0624885
-0.0493228
0.111811
-0.187942
-0.154214
0.421761
0.133595
-0.0890584
-0.0445362
0.00978488
-0.0313523
0.0215674
-0.289048
-0.0260271
0.315075
0.0597497
-0.303259
0.243509
0.0421612
0.503316
-0.194139
-0.135819
0.329958
-0.023665
-0.00266953
0.173068
-0.462116
0.175572
-0.25881
-0.0778203
0.04066
0.185168
-0.342302
0.157135
-0.257814
0.22423
0.0335846
0.00224896
0.00499693
-0.0072459
0.454152
-0.232498
-0.221654
-0.0547952
0.0974493
0.143199
-0.448284
0.305085
-0.0229117
-0.0529
0.0758118
-0.0221018
0.000948875
0.0731657
-0.039672
0.228551
-0.181398
0.232698
0.23938
-0.472078
-0.151847
0.116182
0.130299
-0.142041
-0.469846
0.168711
0.301135
0.0151329
-0.169236
0.154103
0.305296
-0.538437
0.233141
-0.0297388
0.119184
-0.201117
-0.147101
-0.0327315
0.120853
0.12018
-0.0322914
0.135328
-0.229068
-0.00244718
-0.000112096
0.092536
-0.0685484
-0.0493422
0.0296077
-0.0807641
0.142379
-0.277237
0.420436
-0.0759179
-0.0284139
0.104332
0.225331
-0.110101
0.140637
-0.0549974
0.0936845
-0.131337
0.0101526
-0.0861817
0.06327
0.0343459
-0.0133771
0.618896
-0.00516076
-0.0260007
0.0149483
-0.0757526
0.118373
-0.0426205
-0.166801
-0.014125
0.0936986
-0.185178
-0.00198892
-0.0121527
0.0141417
-0.00599405
0.02954
-0.0235459
-0.450196
0.273854
0.466895
0.0795133
-0.0750035
-0.334692
0.0466805
0.0480493
-0.0947298
0.0563977
0.0650612
0.00278506
-0.00376683
0.000981764
0.00271096
0.336162
-0.276412
-0.071407
-0.0189941
0.0904012
-0.034717
0.0649093
0.0854672
-0.063015
-0.0224522
-0.112168
0.0668357
0.158583
-0.19854
0.019547
0.141739
-0.161286
-0.347801
0.295298
0.0525026
-0.0606069
0.0873213
-0.0267144
-0.0237594
0.018019
0.00574037
-0.161406
0.128675
0.0590476
-0.0760597
0.0170121
-0.30034
0.306504
-0.381507
0.255837
0.0699428
-0.32578
-0.147454
0.160996
0.194084
0.24863
0.0498574
-0.0845609
-0.433738
0.279385
0.00145803
0.0172501
-0.0304247
-0.162915
0.133176
0.0740964
-0.0437285
-0.244959
-0.102842
0.158041
0.0103492
-0.27825
0.10905
-0.000919861
-0.0177883
0.220314
0.388506
0.254237
0.00159959
0.226217
-0.377793
0.151576
0.0770961
-0.53148
0.454384
-0.0807742
0.123564
-0.0427902
0.012096
0.0010274
-0.000610442
-0.000416958
-0.00525166
0.00132863
0.459682
0.0153108
0.226911
0.0104926
-0.147232
0.0366646
0.0588332
-0.0954979
-0.0298212
0.109436
-0.0796149
0.0325568
-0.16635
0.133793
-0.356681
0.205906
0.150775
-0.097789
0.0650546
0.0327344
0.145417
-0.205502
0.0600841
-0.0640883
0.0326088
0.130215
0.245636
-0.375851
0.054806
0.0435126
-0.023559
0.00221096
0.0213481
-0.199778
0.393862
0.176637
0.149648
-0.0627847
-0.0868636
0.236429
-0.279573
-0.132865
0.141401
-0.00853517
-0.1542
-0.0997515
0.253952
0.0277992
-0.0305789
0.0406836
-0.107874
0.0671907
-0.0389712
0.0796915
-0.371394
0.175114
0.0572837
0.0448155
0.0413187
0.101371
0.0482769
0.348693
0.248322
0.00656926
0.0202864
-0.0268556
0.371088
-0.169615
-0.201473
0.0380709
-0.0682346
0.0301637
-0.457178
0.171034
0.286144
0.298996
-0.497449
0.198453
-0.00121475
0.0282868
-0.0906674
0.090904
-0.000236614
0.075412
-0.0373411
0.0485032
-0.11991
-0.0160276
-0.128595
0.144623
0.302581
-0.183804
-0.0389384
0.0196778
-0.140563
-0.235677
0.37624
0.0574856
-0.0796079
0.0221223
0.046064
-0.100241
0.109923
0.075074
-0.216353
0.48898
-0.272627
0.39801
-0.191821
-0.206189
-0.0119947
-0.116079
-0.139378
0.158925
0.586283
-0.223063
0.0759982
-0.121858
-0.0812046
0.043292
0.0379125
-0.139018
0.125555
-0.366542
0.342232
-0.000641019
0.00107318
0.0245279
-0.014743
0.0408748
-0.192471
-0.121382
0.313853
0.0616704
0.0719243
0.182085
0.100449
0.16323
-0.263679
-0.0356898
-0.0889746
-0.0174401
0.0174801
-4.0009e-05
0.143445
-0.14327
-0.000175102
-0.00712409
0.0311298
-0.121428
0.0323697
-0.0444906
0.0246423
-0.233842
0.114307
-0.012196
-0.0115633
-0.0370495
0.0945351
-0.0629473
0.376923
-0.313975
-0.0128063
-0.146313
0.0121824
-0.0881003
0.0198411
-0.00338318
-0.18805
0.169968
-0.084525
0.117082
0.0509215
0.0315411
-0.294811
0.500478
-0.205667
0.136554
-0.137049
0.000494893
-0.149961
-0.371331
0.521292
-0.191247
-0.0384897
0.229736
-0.055998
0.012783
-0.0270225
0.0142395
-0.135617
0.0630695
0.0725479
0.317609
-0.359981
0.463977
0.148975
0.162238
0.289474
-0.451713
0.0363267
0.162489
-0.198815
-0.116517
0.0855076
0.0310095
-0.00785119
0.00586227
-0.0705183
-0.069796
-0.0425776
0.089258
-0.00240628
-0.0164797
-0.11479
0.12439
-0.00960045
-0.113936
0.151311
-0.037375
0.0306711
-0.0241196
-0.00655148
0.121797
-0.253611
0.00327496
0.162667
0.030984
-0.0176182
0.384233
-0.366614
0.257957
-0.291026
0.0330692
0.176294
-0.16462
0.0919148
-0.138185
0.0462704
-0.405793
0.332638
-0.0644733
0.158172
0.0627473
0.0672801
-0.130027
-0.0507869
0.111623
-0.0608361
-0.145781
0.0318449
0.0558382
-0.0814618
0.0256236
-0.291535
0.143593
0.0865521
-0.030714
-0.0690638
-0.0261845
0.0952483
-0.123965
0.129856
-0.00589076
-0.0104172
-0.101387
0.111804
0.68429
-0.411642
-0.272648
0.229476
-0.0147009
-0.214775
-0.00989562
-0.0187212
-0.013649
0.0323702
0.291127
-0.167451
-0.123676
-0.092522
0.00185464
0.022129
0.29548
-0.265557
0.0396157
-0.406158
-0.149624
0.185951
-0.010814
0.0698616
-0.364457
0.234298
-0.120576
0.0404958
-0.199343
0.330284
-0.130941
0.00750611
0.140415
0.257596
-0.147949
0.147669
0.000280194
-0.174827
-0.103423
-0.430707
0.214354
-0.403023
0.243662
0.159361
0.101376
-0.0606923
0.0204204
0.124495
-0.0549962
-0.0355138
0.09051
0.00771656
-0.381824
0.318877
0.176665
-0.472483
0.454865
-0.0332761
0.0439627
-0.0106866
-0.145813
0.11572
-0.138249
0.0612527
0.0769966
0.0232208
-0.0104377
-0.168778
0.0842535
-0.167744
0.178237
-0.0589679
0.021488
0.0374799
0.29959
-0.0733734
-0.406652
0.266089
0.428926
-0.525473
-0.216355
-0.140326
0.0885873
-0.0519227
0.481104
-0.175808
0.183815
0.299812
-0.483627
-0.100358
0.0401244
0.0340485
0.0621577
-0.0962062
0.0167181
0.130161
-0.146879
0.297498
-0.0264667
-0.0181406
0.00471101
-0.00241511
0.105349
0.00749409
-0.112843
-0.184232
0.00631901
0.177913
-0.176168
0.0228317
-0.0471672
-0.019555
0.0667222
-0.00477015
-0.110019
0.00702957
0.0433898
-0.0504194
-0.0430743
0.0686233
0.0378141
0.0063719
-0.00759458
0.201977
-0.0565597
0.116166
-0.14561
0.0294436
0.0483561
-0.0981258
0.0497697
0.607689
-0.0169036
-0.590785
-0.0414259
0.240494
-0.174038
-0.0664553
0.45343
-0.376334
-0.00122925
-0.0127701
0.0139993
-0.136292
0.124297
0.0377661
-0.00756727
0.0353664
-0.116448
0.0621654
0.0542827
-0.195738
-0.175656
0.00852589
-0.127696
0.437726
0.198376
-0.183243
0.183916
-0.195727
0.0118108
-0.0574475
-0.171201
-0.271147
-0.224804
0.495951
-0.00293074
0.00149214
0.012025
0.00908399
-0.11222
0.103136
-0.062636
0.0864429
-0.0238068
-0.019065
0.166997
-0.147932
-0.00409505
-0.019464
-0.0466803
-0.0448415
0.134209
-0.0180425
-0.0216091
0.0117127
0.215966
0.0245278
0.457727
-0.290452
-0.155123
0.445574
0.435394
-0.202118
0.269506
-0.202036
-0.0674704
-0.00521371
-0.017051
0.159135
-0.175098
0.0159625
-0.000862138
0.0439044
-0.0912495
0.52312
0.0113825
-0.0232919
0.121498
0.0649356
-0.139859
0.0749232
-0.309859
0.602281
-0.292422
-0.284556
0.0933088
0.0124501
-0.00500413
0.140715
-0.273522
-0.0513675
-0.0868819
0.0911236
-0.250375
-0.2897
-0.111271
0.40097
0.126273
0.010281
0.0540908
0.141499
-0.0176572
-0.0107046
0.0283618
-0.0458807
0.10236
-0.0564794
-0.0605272
0.01336
0.0531028
-0.0460732
-0.10023
-0.0455511
-0.0812005
0.00447836
0.260572
0.269231
-0.529803
0.0130567
-0.0535293
0.0404726
-0.109254
0.0603591
0.0488952
-0.288528
0.171543
-0.0196965
-0.151847
0.00607142
-0.000367
0.158812
-0.351283
0.121628
-0.0812635
-0.0403646
0.252239
-0.369357
0.117117
0.00905443
0.0132103
0.0788963
0.0427318
0.112628
0.149533
0.146699
0.356702
-0.136568
-0.671589
0.226077
0.445512
-0.17003
-0.0142018
0.037074
-0.0298829
-0.00719104
0.359277
-0.243663
-0.115613
0.0494488
0.206955
-0.256404
-0.134662
0.0175244
0.117138
-0.216146
0.0806536
0.00191972
-0.000899549
-0.00102017
-0.0084179
0.0915558
-0.0831379
0.292861
0.134102
-0.426963
0.503403
0.0419762
-0.300191
-0.105717
-0.0107996
-0.189812
0.323181
-0.133369
-0.610529
0.424813
0.185717
-0.0551659
0.0843526
-0.0291867
0.0797657
-0.0409458
-0.135882
0.427579
-0.291698
-0.159003
0.401371
0.0419106
0.0984855
-0.0272863
0.00154164
0.223824
0.2487
-0.472524
0.28737
-0.188751
-0.0986192
0.0974484
0.0636435
-0.0942833
0.0306398
0.474837
-0.291022
8.59953e-05
0.00175342
0.00470991
-0.152659
-0.10512
0.0243453
-0.0494329
-0.0540634
-0.0265631
0.0806265
0.255355
-0.0342301
-0.0630567
0.0972868
-0.20324
-0.337073
-0.0101958
-0.0334998
0.0436956
-0.159134
0.00478872
0.00885182
0.144631
-0.153483
0.221682
-0.435035
0.213354
0.0414431
0.216514
0.00274747
-0.00363897
-0.0365839
-0.021582
0.150494
-0.440194
0.114651
-0.0705348
-0.0441163
0.0236641
-0.0170948
0.00446141
-0.000846952
-0.0748447
-0.0465813
0.436295
0.0111907
0.0115117
0.37234
0.224675
0.294095
0.0651821
-0.0131451
-0.121517
-0.0377734
-0.0429918
0.0807652
-0.254418
0.0674909
0.186928
0.0606761
0.0396335
-0.10031
0.101592
-0.0756581
-0.0259342
-0.126441
0.239069
0.165333
0.2625
-0.61586
-0.0795609
-0.178253
0.0125134
0.256993
-0.551406
-0.427646
-0.182883
-0.0973716
0.0869812
0.0103903
-0.211389
0.450769
-0.131899
0.066246
0.169018
0.0145863
0.0224876
0.313928
0.283087
0.03531
-0.246887
-0.140809
0.387696
-0.0310828
-0.0144966
-0.135698
-0.0887571
-0.0167334
0.0215844
-0.0294567
-0.110234
0.156392
-0.161425
0.00503324
0.00547142
0.14532
-0.150791
0.585122
0.163081
0.0929171
0.13514
-0.319536
-0.352053
-0.17548
0.483021
0.00299275
0.00598799
-0.00898074
0.0282403
-0.100277
0.0720366
-0.000612548
0.33858
-0.120482
-0.218098
-0.486056
-0.104729
0.0472068
-0.0640448
-0.031102
0.0951468
0.0362469
-0.0464427
-0.0178838
-0.000351157
0.018235
-0.0575013
0.0915498
-0.135255
0.0620048
0.0732505
0.00024023
0.239259
-0.398262
-0.479717
-0.184767
-0.00107175
0.0137128
-0.0126411
-0.147265
-0.0118691
-0.0637916
-0.0343342
0.0803646
0.0342866
0.238205
0.197189
0.404955
0.140461
-0.110715
0.0816205
0.029095
0.0372839
-0.327736
0.0262556
-0.0338228
0.187847
-0.0368964
-0.15095
0.0271441
0.0744483
0.378447
-0.144675
-0.233772
0.0221925
-0.176996
0.514326
-0.33733
0.0624071
0.0254612
-0.0331732
-0.182582
-0.144672
0.327254
0.0223408
-0.0675952
0.0452544
-0.108408
0.0625268
-0.0175572
-0.0636433
0.00381457
-0.00140166
-0.0024129
-0.0806576
0.0722397
0.00429807
0.0409661
0.034038
-0.158281
0.0617346
0.0234813
-0.0226138
-0.000867521
0.12261
-0.113526
0.0955883
-0.0401946
-0.0553936
-0.267796
0.0893527
0.178443
0.348462
-0.0962223
-0.0623001
-0.00302214
-0.00616742
-0.118612
0.0915264
0.027086
0.17191
0.0159363
0.177738
-0.361317
0.183579
-0.0864785
-0.0291211
0.1156
0.259664
-0.159214
-0.0299717
0.0472266
-0.017255
-0.0219566
-0.000258701
0.0222153
0.156228
-0.0788449
-0.175574
0.194417
-0.363518
0.169101
0.136872
-0.1529
0.0390984
-0.0940946
0.129676
-0.256117
-0.0192477
-0.00270891
0.0459716
-0.0837449
-0.02834
-0.0119681
0.0403082
0.0890544
0.0311255
-0.153709
-0.129156
-0.511237
0.272462
0.238776
-0.0780609
0.0153225
0.0627384
-0.200055
0.0473879
-0.0898968
0.0425089
0.163493
-0.0134231
-0.15007
-0.036678
0.125732
-0.386025
0.250144
0.453527
-0.227611
-0.225917
-0.0815992
-0.0370132
0.10426
0.0010889
-0.0271394
-0.030982
0.0828238
-0.0518419
0.0521132
0.0586098
-0.110723
-0.287958
-0.526123
0.349127
0.212729
0.0167476
-0.0115904
0.0227812
0.0590895
-0.123055
0.0639651
-0.0357815
0.0831693
0.482621
-0.234654
-0.247967
0.0143117
0.0193501
0.0421476
0.0507864
-0.092934
-0.0508852
-0.0722243
0.123109
0.18275
-0.226278
0.193365
0.0478971
-0.241262
-0.106367
0.266276
-0.250965
0.00221101
-0.000291295
0.0148039
-0.198207
0.376625
-0.178417
-0.104166
-0.0382383
0.0957725
-0.0575342
0.00505847
0.171235
0.00887962
0.141655
-0.141184
-0.000471719
0.170001
-0.377157
-0.0393486
0.0963506
-0.057002
0.194351
-0.281629
0.0872776
0.0975177
-0.107935
0.286249
-0.159213
-0.127036
-0.104177
0.0088811
0.0996092
-0.10849
0.353229
-0.00177243
0.138281
0.00965196
-0.011318
0.00166606
0.172095
0.211644
-0.38374
-0.301975
0.153704
0.14827
0.352302
-0.107671
-0.24463
-0.016466
0.0202426
-0.0378998
-0.00725518
-0.159094
-0.0971645
0.0463206
0.112887
-0.0564895
-0.25198
-0.0158156
0.082846
-0.226797
0.143951
0.101315
0.0141542
-0.0111614
0.0479459
0.0606253
-0.108571
-0.00536427
0.0729017
0.468193
-0.239662
-0.22853
0.232187
-0.0772133
0.00929218
-0.00343991
0.00457262
0.210199
-0.00786872
-0.155046
-0.0631518
0.00598866
0.0571632
0.150427
0.0130658
-0.167971
-0.020079
-0.000904871
0.00193227
-0.0541615
-0.0334756
0.0876371
-0.00976815
0.0120171
-0.141411
-0.0483176
-0.173281
-0.0473144
0.0624195
0.0230477
-0.00538193
0.0341383
-0.0287564
0.194371
0.12881
0.0984321
-0.220644
0.122212
-0.00990926
0.0345101
-0.0246009
0.119581
-0.0574358
-0.0621455
-0.0803246
-0.0549307
0.494635
-0.08968
0.0474478
-0.0259599
0.00896153
-0.0123245
0.003363
-0.158222
-0.244801
-0.102657
-0.0122466
-0.159109
0.448584
0.341147
-0.218814
-0.0235524
-0.0382946
0.061847
-0.285428
-0.110229
-0.0120312
-0.0998988
0.11193
-0.00731343
-0.140141
-0.0241567
-0.0558719
0.0800285
-0.261663
-0.195515
0.265011
0.154094
-0.0417593
0.139342
-0.195252
0.00338606
-0.0047979
0.00103107
0.0443705
-0.0857865
-0.0529303
-0.0102215
-0.240684
0.3895
0.127424
0.158023
-0.320862
0.162839
0.462278
-0.234225
-0.0822244
-0.0392037
0.170232
-0.0288631
-0.141369
0.00306916
-0.011892
-0.149514
0.24026
-0.0435455
-0.196714
0.143164
-0.0902351
-0.052929
-0.0680494
0.284938
-0.216888
0.114348
-0.31369
-0.196286
-0.133216
0.329502
-0.0399639
-0.0586667
0.0986306
-0.0176733
-0.00021056
0.043313
-0.013025
0.193728
0.176007
-0.369735
-0.0992522
-0.0170838
0.116336
-0.0325816
0.0197704
0.0128112
0.301789
0.210367
-0.512156
0.181866
-0.377604
0.238639
-0.0783272
-0.160311
0.00222538
0.00372656
-0.00595194
-0.0101023
-0.0399295
0.0948902
-0.249091
-0.113332
0.0738787
0.0394535
-0.0150373
0.116125
0.138877
0.00726546
-0.146142
0.0615616
-0.192778
0.131216
0.277291
-0.0829202
0.0266534
-0.108896
0.0822423
0.0650798
0.0532933
-0.120077
0.0208246
0.0469533
-0.102143
0.0551899
0.0892263
-0.0171746
-0.0720517
0.425213
-0.187007
-0.185288
0.506243
-0.320955
-0.0453352
0.110271
0.545041
-0.406763
-0.138278
-0.123555
0.0788351
0.0447203
0.145275
0.0869122
0.0280152
0.220287
-0.347441
0.127154
-0.00438427
0.0238509
-0.0194666
0.0030246
0.000789966
0.0104061
0.213946
0.1904
-0.454432
0.264032
0.197657
-0.153685
-0.153973
0.307658
-0.0103305
-0.087041
0.183863
0.148655
-0.332518
-0.253359
-0.257878
0.113929
0.0648726
0.0547087
-0.229086
0.45291
0.0389721
0.0495809
-0.088553
0.58155
-0.267622
0.361532
0.169678
-0.53121
0.0242972
0.0592997
0.154393
-0.0134738
-0.140919
-0.162995
0.314085
-0.15109
0.0313863
-0.00843664
0.0103409
-0.00190425
0.054968
-0.0891981
0.157453
0.387588
-0.00691752
0.00568826
-0.202476
-0.139827
0.194169
0.261111
-0.139902
-0.0144665
0.0228565
0.163385
-0.186241
0.129454
-0.0773411
0.0611396
0.0431206
0.0395548
-0.139785
0.0632307
0.29523
-0.358461
0.129737
0.0112469
-0.112442
0.0490195
0.063422
-0.0148139
0.0144627
0.05757
-0.0958083
0.37785
0.225427
-0.603277
-0.0146311
-0.0123914
0.0179266
0.0780783
-0.0960049
-0.145394
0.176378
0.184775
0.0621003
-0.0179252
0.0155545
0.00237073
0.0427516
-0.0643001
0.0215485
-0.0330428
0.0144306
0.0186122
-0.0280069
-0.00503587
-0.120477
0.0382525
0.118798
-0.0127248
-0.126293
0.156879
-0.193953
-0.143156
-0.188512
0.333862
-0.14535
-0.0686991
0.0969393
0.458776
-0.0972441
-0.196383
0.380245
0.334607
0.246943
0.00390301
0.000807997
-0.00297486
0.0414308
-0.033329
0.00356094
-0.0143683
-0.137478
-0.309084
-0.218625
0.527708
0.0223517
-0.0360007
0.0428769
-0.0818481
0.0307849
-0.0849464
0.247149
0.170327
-0.417476
0.100345
-0.289096
-0.00526638
0.298127
-0.013172
-0.139173
0.152345
-0.0466559
0.171319
-0.124663
-0.0611439
0.0834847
0.158637
-0.347419
0.188782
-0.0039545
-0.00246108
-0.00861732
0.190412
-0.0981612
-0.0922506
0.113674
0.076738
0.112891
-0.0480184
0.124634
-0.105592
-0.019042
0.336089
0.251689
-0.587778
-0.00417648
0.000804368
0.00337212
-0.203709
0.336183
-0.132474
-0.00212619
0.0110877
0.0329695
-0.51306
0.480091
0.0205497
-0.024934
-0.00291701
-0.00703981
-0.0604616
0.054722
0.0688424
0.396134
-0.196289
-0.199844
-0.215276
0.344811
-0.0940157
0.543163
0.210775
-0.332157
0.224877
0.153569
-0.0341864
-0.0623282
0.0965146
0.0023439
-0.000118528
-0.101475
0.264705
0.0821366
-0.0788367
-0.0304176
0.0557704
0.128146
-0.288168
0.128955
-0.0948341
0.0488076
0.0460264
0.177047
-0.0184638
0.0267577
-0.013701
-0.0186465
0.000163781
0.0184827
0.0110021
0.0122187
0.0733952
-0.12428
-0.523781
0.24911
0.486268
0.0132892
0.0166119
-0.031243
-0.411081
0.260569
0.150512
0.273688
-0.0259611
-0.247727
0.0455849
0.125958
-0.0313048
-0.0548769
-0.158843
0.00563343
0.153209
0.30968
-0.588589
0.278909
0.0913578
-0.0492102
-0.0567416
-0.0269619