/*--------------------------------*- C++ -*----------------------------------*\
| =========                 |                                                 |
| \\      /  F ield         | OpenFOAM: The Open Source CFD Toolbox           |
|  \\    /   O peration     | Version:  v2012                                 |
|   \\  /    A nd           | Website:  www.openfoam.com                      |
|    \\/     M anipulation  |                                                 |
\*---------------------------------------------------------------------------*/
FoamFile
{
    version     2.0;
    format      ascii;
    class       surfaceScalarField;
    location    "200";
    object      phi_0;
}
// * * * * * * * * * * * * * * * * * * * * * * * * * * * * * * * * * * * * * //

dimensions      [0 3 -1 0 0 0 0];
oriented        oriented;


internalField   nonuniform List<scalar> 
21991
(
0.0328608
-0.0446076
0.0117468
0.235201
-0.476229
0.241028
0.124574
-0.0671355
-0.0574381
0.144088
-0.159119
0.0150308
-0.0581004
0.163199
-0.105099
0.134597
-0.0606035
-0.0739931
0.215939
-0.024386
-0.191553
-0.266052
0.0205215
0.24553
-0.100303
0.0393943
0.0609091
0.356268
-0.664485
0.308217
-0.0448081
0.1021
-0.0572914
0.106076
-0.106576
0.000500185
0.354584
-0.207505
-0.147079
0.0410681
-0.155453
0.114385
0.0518547
0.0531039
-0.104959
-0.00404639
0.000431744
0.00361464
0.0521929
-0.110293
-0.16109
0.175887
-0.0147969
0.0187081
-0.0187081
-0.133272
0.0876477
0.0456246
0.418805
0.17821
0.0214033
0.147474
-0.168877
-0.0583133
-0.0800801
0.138393
-0.314734
0.224352
0.0903823
0.00143172
-0.000891524
-0.000540196
-0.243922
-0.0708127
-0.00204346
-0.10675
0.108794
-0.166235
0.0878885
0.0783461
0.054585
-0.044069
-0.010516
0.29305
-0.132807
-0.160243
0.170924
0.20081
-0.371735
-0.146393
0.155235
-0.00884231
-0.0981592
-0.0351131
-0.137146
0.144916
-0.00776935
0.0515725
-0.091593
0.0400204
0.027769
0.18817
-0.0143821
0.0726107
-0.0582285
-0.573525
0.363221
0.210304
-0.0458922
-0.0185066
0.0643989
-0.0940514
-0.0288712
0.122923
0.0484154
0.0761582
0.0920599
-0.0404874
-0.0555013
0.0301922
0.0253091
-0.154111
-0.181362
0.335473
0.0494824
0.113717
0.122422
0.108411
-0.230833
-0.0451586
0.0835972
-0.0384385
0.266582
-0.223621
-0.0429603
0.166778
-0.145375
0.0993706
-0.0594565
-0.0399141
0.326231
-0.204818
-0.121413
0.51619
-0.636433
0.120243
-0.246878
-0.202363
0.449241
-0.20557
0.19559
0.00997994
-0.0460036
0.100331
-0.0543276
0.0128399
0.0473201
-0.06016
-0.0861531
0.0529298
0.0332233
-0.0406775
0.0587056
-0.018028
-0.52088
0.0629694
0.457911
-0.0661838
0.188606
0.030308
-0.0257446
-0.00456338
0.118721
0.20751
-0.366142
0.0989362
0.267206
0.058861
-0.0460211
-0.193671
-0.172471
0.171064
-0.405354
0.23429
-0.0231531
0.441958
0.231596
-0.043528
-0.188068
-0.738754
0.449147
0.289607
-0.035884
0.0339064
0.00197752
-0.195226
0.301431
-0.106205
-0.128073
0.12603
-0.0444904
0.0983194
-0.053829
-0.0107075
-0.0192603
0.0299678
-0.312132
0.0787111
0.233421
-0.00432757
-0.0315564
-0.0023288
0.000654852
0.00167395
-0.239244
0.474445
-0.124643
0.0950945
0.0295488
-0.176342
-0.262061
0.438404
-0.00266526
-0.00255924
0.0052245
0.427694
-0.25663
0.24869
0.170977
-0.419666
-0.225288
-0.0868445
-0.47261
-0.0830247
0.555634
0.00186553
-0.0826002
0.0807346
0.545477
-0.0731544
-0.472323
-0.175848
0.235264
-0.0594161
0.213437
0.230779
-0.444216
-0.0729549
-0.0932798
0.0387901
-0.162647
0.123857
-0.175935
-0.00336575
0.179301
-0.121585
0.0550381
0.0665469
-0.323444
0.141521
0.181923
0.0803103
0.0190603
-0.00218503
-0.000143769
0.0139075
-0.146829
0.000435561
-0.293967
0.161562
0.132404
-0.0962325
0.0514244
0.0134607
0.0452449
0.0126416
-0.0479682
0.0353267
0.16321
-0.63582
0.0870284
-0.16488
0.0778515
0.0497771
-0.076722
0.0269449
0.0395617
-0.0269201
0.00896713
0.0971085
-0.0991868
0.0531832
-0.371867
0.0234004
0.348466
-0.160109
0.331034
0.122333
-0.395656
0.273323
-0.0255557
0.0418019
-0.0162462
-0.0829821
-0.0386028
0.00932795
-0.00995661
-0.0377723
0.0122166
0.00482448
-0.00748973
-0.0668543
-0.00445014
0.0713044
-0.0828745
0.121665
-0.504235
0.564846
-0.0606105
0.00619704
-0.167287
0.00489617
-0.00392324
-0.000972933
0.442713
-0.229276
-0.126052
0.236385
-0.110333
0.129355
0.00963471
-0.13899
0.000100462
-0.520981
-0.35336
-0.220165
-0.0347037
-0.0473449
0.0820486
0.128097
-0.0690027
-0.0584225
0.127425
-0.16651
0.00519804
0.161312
-0.154345
-0.012165
0.0646079
-0.121426
0.0568182
-0.0408513
0.035577
0.00527431
-0.101668
0.0758717
0.0257961
-0.0334587
-0.033407
0.0668657
0.144377
-0.0150218
0.153533
-0.307644
-0.0649589
0.0748203
-0.00986145
-0.14573
-0.108182
0.253912
-0.167077
0.029931
0.267546
0.177167
-0.444713
0.00361435
0.000418103
-0.00403245
0.545415
-0.0292256
0.000114716
0.0119607
-0.00376568
-0.00819501
-0.330177
-0.408577
0.0852491
-0.0354719
-0.373591
0.00172458
0.0272367
-0.0777682
0.0505315
-0.0222651
0.0222651
-0.039333
-0.0609704
-0.00570452
0.00570452
-0.127105
0.0330536
-0.0285428
-0.0831313
0.111674
0.444147
-0.195457
0.0506036
-0.037143
0.0715491
-0.123922
0.0523727
0.113943
-0.054177
-0.0597658
-0.0148937
0.0145308
0.000362913
-0.0432265
0.0704632
-0.0648564
-0.334331
0.399187
0.613735
-0.096547
-0.517188
-0.0320583
-0.00879296
0.00143172
-0.198399
0.190639
0.00775977
0.0425022
0.00810139
0.260778
0.0058041
0.00786174
-0.0297514
0.0218897
-0.321997
0.0857229
0.236274
-0.323709
0.0576571
-0.00873758
-0.053649
0.0623865
-0.209835
0.203666
0.00616812
0.0991042
-0.099661
0.000556881
0.107037
-0.055182
-0.0686893
0.0352306
-0.0602333
-0.0414345
-0.156181
0.0808838
0.0752971
0.140396
-0.15232
0.0119234
0.612952
-0.2778
-0.335152
-0.0456417
-0.0405115
0.112228
0.0223687
0.011666
0.012565
-0.024231
-0.105738
-0.102905
0.208644
-0.124243
0.146435
0.00955934
-0.185494
-0.058166
0.0452643
0.0129017
-0.0258598
-0.0836985
0.109558
-0.119344
0.0934846
0.202107
-0.182331
-0.0197762
0.54173
-0.408181
-0.133549
-0.060044
0.00454273
-0.0725403
0.0273817
-0.131814
-0.147942
0.279757
0.0824623
-0.0444563
-0.0380061
-0.079944
0.0655619
-0.392023
0.306595
0.0854279
-0.0297633
-0.0182049
0.310224
-0.278632
-0.0315922
0.137165
-0.114904
-0.0222617
-0.0232092
0.0014944
0.0217148
-0.00635655
6.80101e-05
0.00628854
0.340661
0.201069
-0.0680614
0.214772
-0.14671
0.121459
-0.0458601
-0.0755987
-0.117171
-0.0974197
0.214591
-0.0162211
0.0151958
0.00102531
-0.0341788
0.105728
0.0407209
0.0388189
-0.0795398
0.0813507
-0.164225
-0.277613
0.193651
0.0839617
-0.211274
-0.110723
-0.00277967
0.0270717
-0.0242921
0.232164
-0.000567809
-0.392106
0.327249
-0.12756
-0.10321
0.23077
0.095891
-0.241621
0.0995538
-0.165274
0.322708
-0.157434
0.3918
-0.189069
-0.202731
-0.192825
0.370307
-0.177483
0.043133
-0.150535
0.107402
-0.108413
0.0488302
0.0595831
0.0482751
0.0888901
-0.0559094
-0.153925
-0.100995
0.291588
-0.190593
0.0513187
0.031505
-0.0828237
0.123275
-0.00340933
-0.119866
0.053661
0.0128928
-0.0665538
-0.0200415
0.0384401
-0.0183986
0.0277059
0.158972
-0.186677
0.220134
-0.344782
0.124648
-0.224257
0.156195
0.259853
0.131947
0.0240054
0.00296431
-0.0269697
0.027577
-0.0193609
-0.00821614
0.384711
0.195292
-0.580003
0.064538
-0.209736
0.145198
0.0870631
-0.0255007
-0.0615623
0.048428
-0.105491
0.0570625
-0.191337
0.00803486
0.183302
0.0022957
-0.00143832
-0.000857379
0.074924
0.00721945
-0.0821434
-0.130155
-0.163812
-0.374187
-0.210278
0.374644
-0.164365
0.0695339
-0.0676683
-0.131764
0.169348
-0.0375839
-0.037074
-0.161325
-0.127316
-0.358471
0.198361
-0.0173041
0.0305562
-0.013252
-0.250642
-0.14138
0.28892
-0.571844
0.282923
0.310031
-0.549274
-0.0176552
-0.0207
0.0383552
-0.214635
0.0974632
0.142624
0.30754
-0.450164
-0.241476
0.147769
0.0937072
0.155977
-0.351202
-0.0372164
-0.328803
0.366019
0.0646592
-0.0542768
-0.0103824
0.0199814
0.182126
0.0521844
-0.110607
0.0471537
-0.248945
0.201791
0.0387313
-0.0860764
0.0473451
-0.287446
0.120396
0.16705
-0.150195
0.116016
-0.2364
-0.112881
0.349281
-0.0119575
0.0204761
-0.00851861
-0.026335
0.0261928
0.00014225
0.0195901
-0.00792415
0.0034755
-0.00887404
0.00539854
-0.58726
-0.508296
0.0593334
0.448963
-0.00611463
0.00972898
-0.050844
0.103948
0.00976985
0.154974
-0.164744
0.00070028
0.0112604
0.093905
-0.041416
-0.052489
0.0336616
0.0059001
0.00903307
0.07803
0.546409
0.0106689
-0.557078
0.0246257
-0.0167639
0.0227024
0.00760566
0.00477558
-0.00864189
0.00386631
-0.0252055
0.0765242
0.0328869
0.0610181
-0.0117425
-0.164105
-0.143539
0.00677652
0.136762
0.0568535
-0.0655911
-0.362089
0.196814
0.132939
-0.301179
0.168241
0.17518
0.288107
-0.18737
-0.100737
0.0408723
-0.101476
0.0289385
0.0757209
-0.104659
-0.0340908
0.0986987
-0.124664
0.10056
0.0241041
0.211268
0.11144
-0.0786897
0.121823
-0.241635
0.452987
-0.211353
-0.602069
0.201406
0.400663
-0.121184
0.14241
-0.0212258
0.109768
0.0135075
-0.0946222
-0.0300211
0.100096
-0.205834
0.0308217
-0.076714
-0.0428891
0.0131258
0.0599491
0.0470876
0.0116288
-0.0110783
-0.00498882
-0.0182204
0.0628187
-0.186255
0.176957
0.00929776
-0.186856
-0.00448155
0.0302878
-0.0479431
-0.207767
0.0802076
0.0158229
0.0488363
-0.114714
0.0661007
0.0486133
0.169506
-0.48147
0.311964
0.0294267
-0.0479333
-0.0592975
0.0848289
-0.0255314
0.0102372
-0.0770915
-0.0119668
0.0656279
-0.0160186
0.00406117
-0.162343
0.251313
-0.0889693
0.12375
-0.0361019
0.0386874
0.0554335
-0.0941208
-0.508195
0.0575888
0.0426546
-0.100243
-0.0126267
-0.00226706
-0.0943938
-0.0704861
0.0843246
-0.124224
0.0398995
-0.0846594
-0.0715215
-0.17179
-0.0144648
-0.324008
0.286791
-0.138373
0.339183
-0.409695
-0.192374
0.00206487
-0.217471
0.0323746
0.185097
0.0850849
0.0140193
0.0616151
-0.191695
0.13008
0.242222
0.025503
-0.267725
-0.174258
0.0424935
0.149766
-0.141426
-0.182017
-0.00627434
0.0345772
-0.0283029
0.0151798
-0.00714027
-0.00803955
-0.0239967
-0.0133999
0.0373966
0.106437
-0.067043
-0.00589349
-0.000463061
-0.00918976
0.00845436
0.0007354
-0.129816
-0.11166
0.228053
-0.474931
0.148816
-0.385216
-0.221893
0.00442104
0.0242672
-0.0835647
-0.159252
0.276854
-0.117602
-0.0188862
0.0188862
0.118777
0.242368
-0.361146
0.51871
-0.229789
-0.254749
0.0707055
0.184044
0.0381097
0.0559413
-0.0940509
0.0239875
-0.0970807
0.0730932
0.112673
-0.064245
0.0122019
0.0123075
-0.0245095
-0.0243022
0.0135947
-0.1692
0.17897
-0.0169074
-0.14574
-0.140314
0.0982056
0.0421087
0.392969
-0.207156
-0.185813
0.184353
-0.195146
0.0107935
-0.405987
0.0183142
0.387672
-0.14232
0.0678375
0.0744821
0.0817759
0.60882
-0.363391
-0.245429
0.0158584
-0.0204048
0.00454647
-0.323159
0.262161
-0.135493
-0.126668
0.0155355
0.0484098
-0.0929002
-0.0901644
0.177962
-0.152687
-0.0252747
-0.139691
0.114559
0.0251318
-0.00522431
0.00999989
-0.149507
-0.0107455
0.160253
0.408683
-0.236741
-0.171942
0.00158494
-0.00254501
0.000960072
0.172949
-0.154353
0.49875
-0.344397
-0.00057089
-0.0300936
-0.113445
-0.386508
-0.222375
-0.16307
-0.0424997
0.00183943
-0.00223597
0.000396545
0.0583005
-0.0251377
0.0675382
-0.0424005
-0.0356651
0.11999
-0.0110516
-0.0254529
0.0365045
0.137299
-0.543286
0.109695
-0.0497462
-0.159497
-0.222786
0.382283
-0.0463712
-0.0528156
0.0365381
-0.0206797
0.0135422
0.125031
-0.138573
-0.0518361
-0.0914796
0.143316
-0.080574
0.0554363
0.188812
0.0116086
0.440901
-0.574668
0.133767
-0.254707
0.153712
-0.00975538
-0.0890812
0.0988366
-0.0487913
0.0314871
0.533808
-0.17754
-0.0937403
0.189848
-0.0961076
0.0871411
0.226984
0.233276
-0.460259
0.164783
-0.153336
-0.0114474
-0.213034
-0.0308878
-0.0119291
0.0447899
-0.0346641
-0.0800499
0.115544
-0.12133
0.00578579
-0.353321
-0.00710065
0.00721537
-0.180317
0.128481
-0.0453324
0.127705
-0.0823726
0.0193287
-0.00712675
-0.11659
0.0219682
0.0305356
-0.155545
0.12501
-0.348218
0.129536
0.218682
-0.228649
0.209009
0.0196395
0.534503
-0.534503
0.0986382
-0.0696996
-0.233739
-0.274671
0.50841
-0.137136
-0.140477
-0.255827
-0.0423722
0.298199
-0.386913
0.145279
0.0341521
-0.0404265
-0.19628
-0.165809
-0.258647
0.110559
0.148088
0.101087
-0.129958
7.58119e-05
0.015104
0.337661
-0.0643558
-0.273305
-0.154507
0.487924
-0.35081
-0.137114
-0.0399566
-0.135937
0.175893
0.00242067
-0.00987567
0.007455
-0.0314802
-0.0271539
0.0586341
-0.00955054
0.0844745
0.0992244
0.137161
0.0209687
0.0108483
-0.0318171
-0.163761
-0.0313852
-0.282865
0.125117
0.157748
0.115085
0.490645
-0.60573
0.0459087
0.346938
-0.392846
-0.21448
0.343691
-0.129211
0.526426
-0.480518
-0.0197345
-0.0411442
0.0608787
-0.180926
0.18758
-0.00665327
0.555986
-0.0915218
0.0878669
0.00365486
0.147829
0.340095
0.0787558
0.035187
0.0473436
-0.0880548
0.0407112
-0.0134631
-0.14199
-0.0371621
0.0947509
0.182137
-0.00417512
-0.013492
-0.029397
0.109136
0.00640724
-0.0832381
-0.147171
0.230409
0.547921
0.106628
-0.116384
-0.119535
0.284913
-0.165378
-0.130159
0.331621
-0.201462
0.00195314
0.00737481
0.0116735
0.132415
0.0500809
-0.257586
-0.154369
0.137461
-0.00339384
-0.0128273
-0.00989637
0.0290048
-0.0191084
-0.131508
0.14555
-0.0140417
-0.136739
0.184997
-0.0482582
-0.0180821
0.194362
-0.17628
-0.0533752
0.0795852
-0.241929
0.0390973
0.118422
-0.157519
0.00724515
-0.258215
-0.000386882
0.258602
0.298923
0.0387384
0.0881218
0.0788702
-0.166992
-0.0676762
0.106774
0.033494
-0.0648942
0.0314002
0.136436
-0.132521
-0.00391536
0.0394253
0.499557
-0.538983
0.0894451
-0.132639
0.0431942
0.0232654
0.46738
0.115452
-0.371279
-0.0211533
-0.0024115
0.0235648
0.0128685
-0.306657
0.092177
-0.0624886
-0.0493228
0.111811
-0.187942
-0.154214
0.421761
0.133595
-0.0890584
-0.0445362
0.00978461
-0.0313525
0.0215679
-0.289048
-0.0260271
0.315075
0.0597497
-0.303259
0.243509
0.0421612
0.503316
-0.194139
-0.135819
0.329958
-0.0236654
-0.0026696
0.173068
-0.462116
0.175572
-0.25881
-0.0778202
0.0406581
0.185168
-0.342302
0.157135
-0.257814
0.22423
0.0335846
0.00224879
0.00499728
-0.00724607
0.454152
-0.232498
-0.221654
-0.0547944
0.097449
0.143199
-0.448284
0.305085
-0.0229118
-0.0528999
0.0758118
-0.0221021
0.000948873
0.0731662
-0.0396721
0.228551
-0.181398
0.232698
0.23938
-0.472078
-0.151847
0.116182
0.130299
-0.142041
-0.469846
0.168711
0.301135
0.0151329
-0.169236
0.154103
0.305296
-0.538437
0.233141
-0.0297388
0.119184
-0.201117
-0.147101
-0.0327315
0.120853
0.12018
-0.0322914
0.135328
-0.229068
-0.00244692
-0.000112324
0.0925359
-0.0685485
-0.0493417
0.0296073
-0.0807641
0.142379
-0.277237
0.420436
-0.0759179
-0.0284139
0.104332
0.225331
-0.110101
0.140637
-0.0549972
0.0936846
-0.131337
0.0101526
-0.0861817
0.0632699
0.0343459
-0.0133771
0.618896
-0.00516076
-0.0260003
0.0149487
-0.0757526
0.118373
-0.0426205
-0.166801
-0.014125
0.0936986
-0.185178
-0.0019892
-0.0121523
0.0141415
-0.00599403
0.0295402
-0.0235462
-0.450196
0.273854
0.466895
0.0795133
-0.0750035
-0.334692
0.0466803
0.0480494
-0.0947297
0.0563977
0.0650612
0.0027853
-0.00376709
0.000981783
0.00271114
0.336162
-0.276412
-0.0714071
-0.0189941
0.0904012
-0.034717
0.0649093
0.0854676
-0.063016
-0.0224516
-0.112168
0.0668357
0.158583
-0.19854
0.019547
0.141739
-0.161286
-0.347801
0.295298
0.0525026
-0.0606071
0.0873212
-0.0267141
-0.0237595
0.0180191
0.00574045
-0.161406
0.128675
0.0590474
-0.0760591
0.0170118
-0.30034
0.306504
-0.381507
0.255837
0.0699428
-0.32578
-0.147454
0.160996
0.194084
0.24863
0.0498573
-0.084561
-0.433738
0.279385
0.00145807
0.0172501
-0.0304245
-0.162915
0.133176
0.0740964
-0.0437285
-0.244959
-0.102842
0.158041
0.0103492
-0.27825
0.10905
-0.000919823
-0.0177883
0.220314
0.388506
0.254237
0.00159959
0.226217
-0.377793
0.151576
0.0770961
-0.53148
0.454384
-0.0807743
0.123564
-0.0427902
0.012096
0.00102736
-0.000610278
-0.000417086
-0.00525204
0.0013288
0.459682
0.0153108
0.226911
0.0104926
-0.147232
0.0366646
0.0588332
-0.0954979
-0.0298212
0.109436
-0.0796149
0.0325568
-0.16635
0.133793
-0.356681
0.205906
0.150775
-0.0977892
0.0650543
0.0327349
0.145417
-0.205502
0.0600841
-0.064088
0.0326078
0.130215
0.245636
-0.375851
0.0548062
0.0435132
-0.0235591
0.00221099
0.0213481
-0.199778
0.393862
0.176637
0.149648
-0.0627847
-0.0868636
0.236429
-0.279573
-0.132865
0.141401
-0.00853517
-0.1542
-0.0997515
0.253952
0.027799
-0.0305786
0.0406837
-0.107874
0.0671907
-0.0389708
0.0796917
-0.371394
0.175114
0.0572842
0.0448153
0.0413199
0.101371
0.0482769
0.348693
0.248322
0.00656926
0.0202867
-0.0268559
0.371088
-0.169615
-0.201473
0.038071
-0.0682346
0.0301636
-0.457178
0.171034
0.286144
0.298996
-0.497449
0.198453
-0.00121475
0.0282865
-0.0906674
0.0909039
-0.000236543
0.075412
-0.037341
0.0485032
-0.11991
-0.0160276
-0.128595
0.144623
0.302581
-0.183804
-0.0389381
0.0196778
-0.140563
-0.235677
0.37624
0.057485
-0.0796075
0.0221224
0.0460633
-0.10024
0.109923
0.075074
-0.216353
0.48898
-0.272627
0.39801
-0.191821
-0.206189
-0.0119947
-0.116079
-0.139378
0.158925
0.586283
-0.223063
0.0759982
-0.121858
-0.0812046
0.043292
0.0379125
-0.139018
0.125555
-0.366542
0.342232
-0.000641275
0.00107302
0.0245279
-0.0147433
0.0408748
-0.192471
-0.121382
0.313853
0.0616704
0.0719243
0.182085
0.100449
0.16323
-0.263679
-0.0356898
-0.0889746
-0.0174398
0.0174798
-4.00024e-05
0.143445
-0.14327
-0.000175099
-0.0071241
0.0311295
-0.121428
0.0323697
-0.0444905
0.024642
-0.233842
0.114307
-0.0121962
-0.0115633
-0.0370504
0.0945355
-0.0629473
0.376923
-0.313975
-0.0128063
-0.146313
0.0121824
-0.0881003
0.0198411
-0.00338318
-0.18805
0.169968
-0.084525
0.117082
0.050922
0.0315404
-0.294811
0.500478
-0.205667
0.136554
-0.137049
0.000494896
-0.149961
-0.371331
0.521292
-0.191247
-0.0384897
0.229736
-0.0559981
0.0127832
-0.0270224
0.0142392
-0.135617
0.0630695
0.0725479
0.317609
-0.359981
0.463977
0.148975
0.162238
0.289474
-0.451713
0.0363267
0.162489
-0.198815
-0.116517
0.0855076
0.0310095
-0.00785124
0.00586204
-0.0705183
-0.069796
-0.0425776
0.0892579
-0.00240628
-0.0164799
-0.11479
0.12439
-0.00960045
-0.113936
0.151311
-0.037375
0.0306712
-0.0241198
-0.00655141
0.121797
-0.253611
0.00327484
0.162667
0.030984
-0.0176182
0.384233
-0.366614
0.257957
-0.291026
0.0330692
0.176294
-0.16462
0.0919148
-0.138185
0.0462704
-0.405793
0.332638
-0.0644733
0.158172
0.0627473
0.0672801
-0.130027
-0.0507868
0.111623
-0.0608362
-0.145781
0.0318449
0.0558379
-0.0814616
0.0256237
-0.291535
0.143593
0.0865519
-0.030714
-0.0690638
-0.0261846
0.0952483
-0.123965
0.129856
-0.00589076
-0.0104172
-0.101387
0.111804
0.68429
-0.411642
-0.272648
0.229476
-0.0147009
-0.214775
-0.00989542
-0.0187211
-0.0136487
0.0323698
0.291127
-0.167451
-0.123676
-0.092522
0.00185458
0.022129
0.29548
-0.265557
0.0396157
-0.406158
-0.149624
0.185951
-0.0108137
0.0698611
-0.364457
0.234298
-0.120576
0.0404958
-0.199343
0.330284
-0.130941
0.0075061
0.140415
0.257596
-0.147949
0.147669
0.000280198
-0.174827
-0.103423
-0.430707
0.214354
-0.403023
0.243662
0.159361
0.101376
-0.0606923
0.0204204
0.124495
-0.0549951
-0.0355148
0.0905099
0.00771644
-0.381824
0.318877
0.176665
-0.472483
0.454865
-0.0332763
0.0439625
-0.0106862
-0.145813
0.11572
-0.138249
0.0612527
0.0769966
0.0232209
-0.0104376
-0.168778
0.0842535
-0.167744
0.178237
-0.0589677
0.0214876
0.0374802
0.29959
-0.0733734
-0.406652
0.266089
0.428926
-0.525473
-0.216355
-0.140326
0.0885873
-0.0519227
0.481104
-0.175808
0.183815
0.299812
-0.483627
-0.100358
0.0401247
0.0340485
0.0621578
-0.0962063
0.0167181
0.130161
-0.146879
0.297498
-0.0264667
-0.0181409
0.00471116
-0.00241546
0.105349
0.00749407
-0.112843
-0.184232
0.00631901
0.177913
-0.176168
0.0228317
-0.0471677
-0.0195543
0.066722
-0.00477015
-0.110019
0.00702941
0.04339
-0.0504195
-0.0430737
0.0686233
0.037814
0.00637228
-0.00759479
0.201977
-0.0565597
0.116166
-0.14561
0.0294436
0.0483564
-0.0981258
0.0497694
0.607689
-0.0169036
-0.590785
-0.0414263
0.240494
-0.174038
-0.0664553
0.45343
-0.376334
-0.0012291
-0.0127701
0.0139992
-0.136292
0.124297
0.0377661
-0.00756713
0.0353661
-0.116448
0.0621653
0.0542827
-0.195738
-0.175656
0.00852562
-0.127696
0.437726
0.198376
-0.183243
0.183916
-0.195727
0.0118108
-0.0574475
-0.171201
-0.271147
-0.224804
0.495951
-0.00293054
0.00149222
0.0120251
0.00908401
-0.11222
0.103136
-0.0626364
0.0864432
-0.0238068
-0.019065
0.166997
-0.147932
-0.00409512
-0.019464
-0.046676
-0.0448458
0.134209
-0.0180425
-0.0216092
0.0117128
0.215966
0.0245278
0.457727
-0.290452
-0.155123
0.445574
0.435394
-0.202118
0.269506
-0.202036
-0.0674704
-0.00521379
-0.0170513
0.159135
-0.175098
0.0159625
-0.000861977
0.0439046
-0.0912495
0.52312
0.0113825
-0.0232919
0.121498
0.0649356
-0.139859
0.0749232
-0.309859
0.602281
-0.292422
-0.284556
0.0933088
0.0124499
-0.00500424
0.140715
-0.273522
-0.0513675
-0.0868819
0.0911236
-0.250375
-0.2897
-0.111271
0.40097
0.126273
0.010281
0.0540908
0.141499
-0.0176569
-0.010705
0.0283619
-0.0458808
0.10236
-0.0564795
-0.0605271
0.0133594
0.0531029
-0.0460735
-0.10023
-0.0455511
-0.0812001
0.00447812
0.260572
0.269231
-0.529803
0.013057
-0.0535273
0.0404702
-0.109254
0.0603591
0.0488952
-0.288528
0.171543
-0.0196965
-0.151847
0.00607149
-0.000366973
0.158812
-0.351283
0.121628
-0.0812635
-0.0403646
0.252239
-0.369357
0.117117
0.0090546
0.0132105
0.0788963
0.0427318
0.112628
0.149533
0.146699
0.356702
-0.136568
-0.671589
0.226077
0.445512
-0.17003
-0.0142018
0.0370741
-0.0298828
-0.00719134
0.359277
-0.243663
-0.115613
0.0494488
0.206955
-0.256404
-0.134662
0.0175244
0.117138
-0.216146
0.0806536
0.0019198
-0.000899717
-0.00102009
-0.0084179
0.0915558
-0.0831379
0.292861
0.134102
-0.426963
0.503403
0.0419762
-0.300191
-0.105717
-0.0107996
-0.189812
0.323181
-0.133369
-0.610529
0.424813
0.185717
-0.0551657
0.0843524
-0.0291867
0.0797661
-0.0409472
-0.135882
0.427579
-0.291698
-0.159003
0.401371
0.0419106
0.0984855
-0.0272862
0.0015416
0.223824
0.2487
-0.472524
0.28737
-0.188751
-0.0986192
0.0974484
0.0636434
-0.0942831
0.0306397
0.474837
-0.291022
8.59889e-05
0.00175344
0.00470991
-0.152659
-0.10512
0.0243453
-0.0494328
-0.054063
-0.0265614
0.0806244
0.255355
-0.0342294
-0.0630568
0.0972861
-0.20324
-0.337073
-0.0101955
-0.0334998
0.0436953
-0.159134
0.00478872
0.00885182
0.144631
-0.153483
0.221682
-0.435035
0.213354
0.0414431
0.216514
0.0027475
-0.00363902
-0.0365838
-0.0215822
0.150494
-0.440194
0.114651
-0.0705348
-0.0441164
0.0236643
-0.017095
0.00446101
-0.000846362
-0.0748448
-0.0465813
0.436295
0.0111907
0.0115116
0.37234
0.224675
0.294095
0.0651821
-0.0131451
-0.121517
-0.0377722
-0.0429951
0.0807673
-0.254418
0.0674909
0.186928
0.0606758
0.0396337
-0.100309
0.101592
-0.0756581
-0.0259342
-0.126441
0.239069
0.165333
0.2625
-0.61586
-0.0795609
-0.178253
0.0125134
0.256993
-0.551406
-0.427646
-0.182883
-0.0973716
0.0869813
0.0103903
-0.211389
0.450769
-0.131899
0.066246
0.169018
0.014586
0.0224881
0.313928
0.283087
0.0353098
-0.246887
-0.140809
0.387696
-0.0310828
-0.0144966
-0.135698
-0.0887572
-0.0167334
0.0215844
-0.0294567
-0.110234
0.156392
-0.161425
0.00503324
0.00547142
0.14532
-0.150791
0.585122
0.163081
0.0929171
0.13514
-0.319536
-0.352053
-0.17548
0.483021
0.00299285
0.0059882
-0.00898105
0.0282402
-0.100277
0.0720366
-0.000612551
0.33858
-0.120482
-0.218098
-0.486056
-0.104729
0.0472067
-0.0640448
-0.0311019
0.0951467
0.0362469
-0.0464424
-0.0178838
-0.000351267
0.018235
-0.0575014
0.0915498
-0.135255
0.0620048
0.0732505
0.000240288
0.239259
-0.398262
-0.479717
-0.184767
-0.00107178
0.0137131
-0.0126413
-0.147265
-0.0118691
-0.0637918
-0.034334
0.0803645
0.0342867
0.238205
0.197189
0.404955
0.140461
-0.110715
0.0816204
0.0290951
0.0372839
-0.327736
0.0262554
-0.0338225
0.187847
-0.0368964
-0.15095
0.027144
0.0744483
0.378447
-0.144675
-0.233772
0.0221925
-0.176996
0.514326
-0.33733
0.0624072
0.0254597
-0.0331732
-0.182582
-0.144672
0.327254
0.0223408
-0.0675952
0.0452544
-0.108408
0.0625269
-0.0175569
-0.0636432
0.00381457
-0.0014017
-0.00241288
-0.0806576
0.0722397
0.00429795
0.0409663
0.034038
-0.158281
0.0617346
0.0234812
-0.0226137
-0.000867482
0.12261
-0.113526
0.0955881
-0.0401947
-0.0553934
-0.267796
0.0893527
0.178443
0.348462
-0.0962223
-0.0623001
-0.00302219
-0.00616756
-0.118612
0.0915264
0.0270861
0.17191
0.0159363
0.177738
-0.361317
0.183579
-0.0864785
-0.0291211
0.1156
0.259664
-0.159214
-0.0299714
0.0472264
-0.017255
-0.0219568
-0.000258683
0.0222155
0.156228
-0.0788449
-0.175574
0.194417
-0.363518
0.169101
0.136872
-0.1529
0.0391002
-0.0940954
0.129676
-0.256117
-0.0192478
-0.00270901
0.0459717
-0.0837439
-0.02834
-0.0119683
0.0403082
0.0890544
0.0311255
-0.153709
-0.129156
-0.511237
0.272462
0.238776
-0.0780611
0.0153228
0.0627383
-0.200055
0.0473941
-0.089898
0.0425039
0.163493
-0.0134231
-0.15007
-0.036678
0.125732
-0.386025
0.250144
0.453527
-0.227611
-0.225917
-0.0815992
-0.0370132
0.10426
0.00108892
-0.0271391
-0.0309822
0.0828239
-0.0518417
0.0521132
0.0586098
-0.110723
-0.287958
-0.526123
0.349127
0.212729
0.0167476
-0.0115903
0.022781
0.0590896
-0.123055
0.063965
-0.0357757
0.0831698
0.482621
-0.234654
-0.247967
0.0143115
0.0193501
0.0421475
0.0507865
-0.092934
-0.0508852
-0.0722243
0.123109
0.18275
-0.226278
0.193365
0.0478971
-0.241262
-0.106367
0.266276
-0.250965
0.00221114
-0.000291341
0.0148039
-0.198207
0.376625
-0.178417
-0.104166
-0.0382376
0.095772
-0.0575344
0.00505847
0.171235
0.00887961
0.141655
-0.141184
-0.000471714
0.170001
-0.377157
-0.039349
0.0963502
-0.0570012
0.194351
-0.281629
0.0872776
0.0975177
-0.107935
0.286249
-0.159213
-0.127036
-0.104177
0.00888106
0.0996092
-0.10849
0.353229
-0.00177242
0.138281
0.00965187
-0.0113179
0.00166601
0.172095
0.211644
-0.38374
-0.301975
0.153704
0.148271
0.352302
-0.107671
-0.24463
-0.0164655
0.0202431
-0.0379
-0.00725518
-0.159094
-0.0971645
0.0463205
0.112887
-0.0564895
-0.25198
-0.0158156
0.082846
-0.226797
0.143951
0.101315
0.0141545
-0.0111617
0.0479459
0.0606254
-0.108571
-0.00536404
0.0729023
0.468193
-0.239662
-0.22853
0.232187
-0.0772133
0.00929234
-0.00343998
0.00457262
0.210199
-0.00786872
-0.155046
-0.0631512
0.00598809
0.0571632
0.150427
0.0130658
-0.167971
-0.020079
-0.000904985
0.00193235
-0.0541614
-0.0334756
0.087637
-0.00976861
0.0120174
-0.141411
-0.0483176
-0.173281
-0.0473144
0.0624198
0.0230477
-0.00538224
0.0341385
-0.0287563
0.194371
0.12881
0.0984321
-0.220644
0.122212
-0.00990933
0.0345101
-0.0246008
0.119581
-0.0574358
-0.0621455
-0.0803246
-0.0549307
0.494635
-0.08968
0.0474478
-0.0259602
0.00896164
-0.0123247
0.00336307
-0.158222
-0.244801
-0.102657
-0.0122466
-0.159109
0.448584
0.341147
-0.218814
-0.0235524
-0.0382942
0.0618465
-0.285428
-0.110229
-0.0120313
-0.0998988
0.11193
-0.00731343
-0.140141
-0.0241564
-0.0558717
0.0800282
-0.261663
-0.195515
0.265011
0.154094
-0.0417593
0.139342
-0.195252
0.00338615
-0.00479813
0.00103104
0.0443705
-0.0857865
-0.0529308
-0.0102205
-0.240684
0.3895
0.127424
0.158023
-0.320862
0.162839
0.462278
-0.234225
-0.0822244
-0.0392037
0.170232
-0.0288631
-0.141369
0.00306904
-0.011892
-0.149514
0.24026
-0.0435455
-0.196714
0.143164
-0.0902351
-0.052929
-0.0680494
0.284938
-0.216888
0.114348
-0.31369
-0.196286
-0.133216
0.329502
-0.039964
-0.0586664
0.0986304
-0.0176734
-0.000210394
0.0433132
-0.0130253
0.193728
0.176007
-0.369735
-0.0992522
-0.0170838
0.116336
-0.0325821
0.0197706
0.0128115
0.301789
0.210367
-0.512156
0.181866
-0.377604
0.238639
-0.0783272
-0.160311
0.00222519
0.00372706
-0.00595224
-0.0101022
-0.0399292
0.0948902
-0.249091
-0.113332
0.0738787
0.0394535
-0.0150372
0.116125
0.138877
0.00726546
-0.146142
0.0615616
-0.192778
0.131216
0.277291
-0.0829202
0.0266535
-0.108896
0.0822423
0.0650798
0.0532933
-0.120077
0.0208246
0.0469532
-0.102144
0.0551904
0.0892237
-0.0171705
-0.0720531
0.425213
-0.187007
-0.185288
0.506243
-0.320955
-0.0453352
0.110271
0.545041
-0.406763
-0.138278
-0.123555
0.0788351
0.0447203
0.145275
0.0869122
0.0280151
0.220287
-0.347441
0.127154
-0.00438437
0.0238513
-0.0194669
0.00302459
0.000789985
0.0104061
0.213946
0.1904
-0.454432
0.264032
0.197657
-0.153685
-0.153973
0.307658
-0.0103305
-0.0870411
0.183863
0.148655
-0.332518
-0.253359
-0.257878
0.113929
0.0648726
0.0547087
-0.229086
0.45291
0.038972
0.0495812
-0.0885531
0.58155
-0.267622
0.361532
0.169678
-0.53121
0.0242977
0.0592995
0.154393
-0.0134738
-0.140919
-0.162995
0.314085
-0.15109
0.0313862
-0.00843659
0.0103409
-0.00190426
0.0549696
-0.0891989
0.157453
0.387588
-0.00691734
0.00568824
-0.202476
-0.139827
0.194169
0.261111
-0.139902
-0.0144665
0.0228565
0.163385
-0.186241
0.129454
-0.0773411
0.0611396
0.0431206
0.0395548
-0.139785
0.0632307
0.29523
-0.358461
0.129737
0.0112467
-0.112442
0.0490195
0.063422
-0.0148139
0.0144627
0.0575697
-0.0958073
0.37785
0.225427
-0.603277
-0.0146312
-0.0123912
0.0179266
0.0780784
-0.096005
-0.145394
0.176378
0.184775
0.0621003
-0.017925
0.0155543
0.00237071
0.0427511
-0.0642999
0.0215489
-0.033042
0.0144295
0.0186125
-0.0280067
-0.00503538
-0.120477
0.0382525
0.118798
-0.0127248
-0.126293
0.156879
-0.193953
-0.143156
-0.188512
0.333862
-0.14535
-0.0686991
0.0969393
0.458776
-0.0972441
-0.196383
0.380245
0.334607
0.246943
0.00390286
0.000808308
-0.00297479
0.0414307
-0.0333293
0.0035597
-0.0143683
-0.137478
-0.309084
-0.218625
0.527708
0.0223516
-0.0360003
0.0428772
-0.081848
0.030785
-0.0849464
0.247149
0.170327
-0.417476
0.100345
-0.289096
-0.00526638
0.298127
-0.013172
-0.139173
0.152345
-0.0466559
0.171319
-0.124663
-0.0611439
0.0834847
0.158637
-0.347419
0.188782
-0.00395451
-0.00246113
-0.00861716
0.190412
-0.0981612
-0.0922506
0.113674
0.076738
0.112891
-0.0480184
0.124634
-0.105592
-0.019042
0.336089
0.251689
-0.587778
-0.00417668
0.00080518
0.0033715
-0.203709
0.336183
-0.132474
-0.00212625
0.0110879
0.0329695
-0.51306
0.480091
0.02055
-0.0249344
-0.00291691
-0.0070397
-0.0604617
0.0547221
0.0688424
0.396134
-0.196289
-0.199844
-0.215276
0.344811
-0.0940157
0.543163
0.210775
-0.332157
0.224877
0.153569
-0.0341881
-0.0623266
0.0965146
0.00234409
-0.000118906
-0.101475
0.264705
0.0821366
-0.0788367
-0.0304176
0.0557704
0.128146
-0.288168
0.128955
-0.094833
0.048809
0.046024
0.177047
-0.0184638
0.0267568
-0.0136998
-0.0186463
0.000163794
0.0184825
0.0110023
0.0122186
0.0733952
-0.12428
-0.523781
0.24911
0.486268
0.0132892
0.0166115
-0.0312428
-0.411081
0.260569
0.150512
0.273688
-0.0259611
-0.247727
0.0455849
0.125958
-0.0313049
-0.0548768
-0.158843
0.00563343
0.153209
0.30968
-0.588589
0.278909
0.0913578
-0.0492102