/*--------------------------------*- C++ -*----------------------------------*\
| =========                 |                                                 |
| \\      /  F ield         | OpenFOAM: The Open Source CFD Toolbox           |
|  \\    /   O peration     | Version:  v2012                                 |
|   \\  /    A nd           | Website:  www.openfoam.com                      |
|    \\/     M anipulation  |                                                 |
\*---------------------------------------------------------------------------*/
FoamFile
{
    version     2.0;
    format      ascii;
    class       volVectorField;
    location    "200";
    object      U;
}
// * * * * * * * * * * * * * * * * * * * * * * * * * * * * * * * * * * * * * //

dimensions      [0 1 -1 0 0 0 0];


internalField   nonuniform List<vector> 
14804
(
(0.721142 0.0069453 -3.34262e-22)
(1.00746 0.00989864 0)
(1.05134 0.00351361 2.14737e-22)
(1.0524 0.0123741 4.2145e-21)
(1.06046 0.0155603 4.38034e-23)
(1.06579 0.0067968 -2.38016e-22)
(1.02954 0.0448855 -3.29029e-23)
(0.978795 0.00688784 2.28398e-20)
(1.04794 0.00879473 0)
(1.0003 0.00020852 -6.51311e-24)
(1.1276 -0.0136207 0)
(1.05182 0.0023205 0)
(0.96875 0.00131186 1.04875e-21)
(1.0547 0.0110163 -3.16809e-21)
(1.14648 0.0407231 8.19263e-20)
(0.0595408 -0.0023334 2.7695e-20)
(1.0612 0.0151142 9.53445e-23)
(1.0523 0.013517 9.44755e-21)
(0.307333 0.00849595 4.3529e-21)
(1.05099 0.00908063 0)
(0.999997 7.82121e-07 4.77549e-21)
(1.01072 0.0702072 3.65407e-21)
(0.973625 0.133623 7.63386e-21)
(1.03263 0.0357651 1.01191e-21)
(0.0351955 -0.00468146 0)
(1.0314 0.0361325 -2.48654e-22)
(1.05128 0.00941904 0)
(1.05827 0.0141013 8.76569e-21)
(0.81337 0.00688325 3.55205e-21)
(1.03903 0.0263064 4.82886e-21)
(1.0325 0.0103271 -4.27392e-22)
(0.954996 0.123456 0)
(1.05097 0.00905949 8.90974e-21)
(1.07551 0.0297302 0)
(1.04856 0.0096674 -3.50711e-21)
(1.03057 0.0443442 1.33442e-23)
(1.05789 0.016424 0)
(1.00003 0.000944145 0)
(0.950374 0.0901944 3.44465e-20)
(1.05177 0.00884978 -8.57294e-21)
(1.05094 0.00382792 -4.95614e-21)
(1.0488 0.00967777 0)
(0.701472 0.291736 0)
(0.994793 0.018494 7.91488e-21)
(1.05977 0.0152437 0)
(0.955754 0.0308284 0)
(1.03529 -0.0180481 -5.18543e-21)
(0.982663 0.0296531 -2.68536e-20)
(1.01071 0.0726176 7.33863e-21)
(1.1241 0.306069 -7.08265e-20)
(0.967285 0.0042131 -2.50684e-20)
(1.0185 0.00054776 -3.3708e-21)
(0.999144 0.00582872 1.0319e-20)
(1.04789 0.0128909 0)
(1.11271 0.332329 0)
(1.01031 0.0114959 -4.98712e-21)
(1.04932 -0.0018725 -2.67215e-21)
(0.832191 0.00715356 2.42268e-21)
(0.996235 -0.0034885 -1.55148e-20)
(0.953283 0.0312125 0)
(0.559098 0.0152328 -5.52076e-21)
(0.965649 0.00482878 -2.50044e-22)
(0.996352 0.020605 -4.26827e-21)
(0.979504 0.0101328 -5.17568e-21)
(0.995968 0.0198061 -3.80588e-21)
(0.998839 0.00504084 -7.72592e-21)
(0.999971 -4.29528e-05 -1.16691e-20)
(1.02263 0.046593 0)
(1.00153 0.000460777 0)
(0.596331 -0.0115335 8.5275e-22)
(1.03504 0.00805698 1.50423e-21)
(1.05122 0.00950051 0)
(1.13678 -0.00796344 1.23907e-20)
(0.502903 -0.0198804 6.68041e-21)
(1.04197 0.00919657 4.80688e-21)
(0.613441 -0.0112975 -8.80529e-22)
(-0.0375396 -0.0073462 1.51496e-22)
(1.00763 0.0095669 3.83779e-21)
(0.832567 0.138991 0)
(1.02237 0.00627079 -1.05443e-21)
(-0.091725 -0.0204709 7.33108e-20)
(0.999023 0.00517185 7.00426e-21)
(1.02235 0.0071667 1.14611e-21)
(1.04187 0.00954151 -2.19896e-21)
(1.00006 0.000605921 2.1326e-21)
(1.08568 -0.00821156 1.97648e-20)
(1.01073 0.00162748 -4.40551e-21)
(1.04492 0.0114104 -1.98129e-21)
(1.00911 0.00721311 3.47237e-21)
(1.05882 0.01441 9.70139e-21)
(1.07026 0.0354141 -2.76622e-22)
(0.984923 0.0657001 -4.98033e-21)
(1.04908 0.00820356 -4.86585e-21)
(1.03368 0.00797045 1.13255e-21)
(1.13257 0.300949 5.26525e-20)
(-0.0221295 -0.00874886 4.56631e-20)
(0.800698 0.00678576 -2.44912e-21)
(0.954041 0.117718 0)
(1.01771 0.0427542 -3.17414e-21)
(1.13562 -0.0155916 0)
(0.821012 0.00733013 -2.45821e-21)
(0.68708 -0.0151618 -1.49135e-21)
(1.00005 0.000491227 4.63477e-21)
(1.05517 0.0104299 9.97192e-22)
(1.04317 0.0118284 -2.03882e-21)
(0.629698 -0.015304 3.22064e-21)
(1.05171 0.0026777 0)
(1.1052 0.330094 -2.64662e-20)
(0.993195 -0.00124487 1.33541e-20)
(1.03306 0.010294 7.07609e-22)
(0.994287 0.00745595 0)
(0.731672 0.00855176 3.12744e-21)
(1.04907 0.00800532 -3.96579e-21)
(-0.196179 -0.0136532 5.23676e-20)
(0.708864 0.00975909 -4.25041e-21)
(-0.128496 -0.018774 4.70808e-20)
(1.04346 -0.00308648 -1.62003e-21)
(1.07175 0.0345355 1.06128e-20)
(1.00005 0.000591456 -1.4915e-20)
(1.0527 0.013656 -9.46799e-21)
(-0.0598522 -0.0101114 -8.96787e-20)
(1.00917 0.00689916 -1.02316e-20)
(1.03864 0.0452005 4.34253e-21)
(1.06602 0.0155337 -1.60685e-21)
(0.996612 -0.00356045 1.41328e-20)
(1.00002 0.000675089 0)
(1.04257 -0.00109298 3.48731e-21)
(1.05482 0.0106252 -3.94126e-21)
(0.969199 0.144553 -1.69791e-20)
(1.06427 0.0215677 0)
(1.06429 0.0226291 0)
(1.11669 0.00507681 0)
(0.607488 -0.00346711 0)
(1.11898 -0.018928 0)
(1.03901 0.00210203 -3.24537e-21)
(1.06514 0.0155472 0)
(0.99404 0.0183495 1.02327e-20)
(1.10942 -0.035907 0)
(1.03926 0.0216319 0)
(1.07717 0.0305326 0)
(1.0032 0.0097735 6.7302e-21)
(0.0737562 0.0233053 0)
(1.01795 0.000457793 3.38317e-21)
(-0.237885 -0.0112142 0)
(0.205482 -0.00649285 0)
(1.00132 0.000407768 0)
(1.04404 0.0117491 0)
(0.993767 -0.00112947 -1.29963e-20)
(1.06586 -0.0207987 0)
(0.31178 0.0107995 6.16143e-21)
(1.04795 0.00855841 0)
(0.0976707 0.000560827 0)
(1.0517 0.00899121 9.56129e-21)
(1.05443 0.0099873 -9.35178e-21)
(1.02217 0.00683047 -2.59299e-22)
(0.780879 0.00747455 0)
(1.05095 0.00857633 -4.93737e-21)
(1.17135 0.0164574 -2.71909e-20)
(0.270252 -0.000228764 -2.73433e-21)
(1.06969 -0.0218707 -9.81454e-21)
(1.00462 0.00592909 0)
(1.00308 0.000647386 -1.17451e-20)
(0.619284 -0.00450879 0)
(0.0127915 -0.00344411 1.4838e-20)
(1.05104 0.0198286 1.14423e-20)
(0.767927 0.00791595 0)
(0.982118 0.0310046 1.91356e-20)
(0.547279 0.0140172 0)
(1.03959 0.0242847 -1.95759e-21)
(0.978875 0.00567566 -2.96209e-20)
(1.05349 0.00532634 0)
(0.992691 0.07576 -8.47981e-21)
(1.05846 -0.00365206 4.75578e-21)
(1.14207 0.0402187 -3.96172e-20)
(1.05403 0.00333774 4.02087e-21)
(1.11988 -0.0177538 -2.15995e-20)
(0.843967 0.0671055 0)
(1.0772 0.0250945 0)
(1.01432 0.00135997 -1.72282e-21)
(1.04997 -0.0023 -9.90389e-22)
(1.06497 0.00646088 -9.51395e-21)
(0.393718 -0.0406277 3.42512e-23)
(1.0312 0.0406156 7.69032e-23)
(0.881601 0.00726931 6.66127e-20)
(0.984639 0.0632383 0)
(0.854793 -0.00564949 2.17145e-21)
(1.08911 0.0232047 2.03016e-20)
(1.08759 0.0243127 -1.84953e-20)
(1.05524 0.0260026 0)
(1.01913 0.00764549 1.82279e-21)
(0.690757 0.27067 3.48636e-20)
(1.00633 -0.0183891 2.9711e-21)
(1.01305 0.0346615 3.36476e-21)
(1.0889 -0.0337515 0)
(1.05976 0.0163133 -2.47067e-21)
(1.00002 0.0186112 0)
(0.702442 -0.0163669 1.63358e-21)
(0.970506 0.00492546 -4.34519e-21)
(1.10646 0.0893913 0)
(0.386121 0.00713219 -3.60418e-21)
(0.109842 -0.00966242 -5.31258e-21)
(1.01938 0.00747887 0)
(1.04632 0.027734 -8.22848e-21)
(1.12719 0.052246 0)
(0.949104 -0.00356145 0)
(0.292061 0.00265769 2.92953e-22)
(1.0509 0.00846369 -8.09031e-21)
(1.10739 -0.0307021 1.47597e-20)
(1.07317 0.0353728 0)
(1.02793 0.0472931 0)
(1.03915 0.0248196 -1.52646e-21)
(0.569674 0.0157273 -4.35807e-21)
(1.02405 0.0470898 0)
(1.00463 0.00575436 0)
(1.00188 0.0497894 0)
(1.03973 0.0222435 0)
(1.05445 0.0104058 0)
(1.00332 0.0222791 3.49891e-21)
(0.988605 0.00362151 -8.94733e-21)
(0.996286 0.0180701 -5.57382e-21)
(0.889264 0.029414 4.56998e-22)
(1.04876 0.00849705 -6.93369e-23)
(1.10876 0.0872206 9.89417e-22)
(0.990935 0.0733246 1.12025e-20)
(1.02892 0.0189561 -3.03468e-22)
(1.11223 -0.0291375 3.56145e-20)
(1.05103 0.00899701 -3.8612e-21)
(1.03791 0.0122138 5.03163e-21)
(0.653197 -0.00472917 3.2473e-21)
(1.01313 0.0665052 -2.73526e-21)
(1.03319 0.00913494 9.99365e-22)
(1.04528 0.0277359 3.60586e-21)
(0.988021 0.00420433 0)
(0.470568 -0.0109124 0)
(0.456729 -0.0188464 9.69248e-22)
(1.00003 0.000513368 0)
(0.959741 0.0338947 0)
(1.04574 0.0136039 4.21013e-21)
(1.10047 0.000753813 -1.24265e-20)
(1.04546 0.0565707 -9.43429e-21)
(0.0116516 0.0185063 6.83957e-20)
(1.01047 0.404586 -5.0562e-21)
(1.01625 0.0427059 6.42438e-22)
(0.99545 0.0178158 -7.36851e-21)
(1.0222 0.0152104 -1.28952e-21)
(1.08611 -0.00980027 1.1899e-20)
(1.05972 0.0336402 -1.00357e-20)
(1.05089 0.0204914 -6.84281e-21)
(0.967875 0.13671 9.08081e-21)
(1.03348 0.0106855 0)
(0.503948 0.110018 -7.12514e-20)
(0.999842 0.0180659 -6.33288e-21)
(1.00402 0.00435168 -7.55124e-21)
(1.00739 0.0090554 -3.98449e-21)
(0.664384 0.000137409 2.07946e-21)
(0.949514 -0.00559655 1.9935e-20)
(1.01821 0.00728912 0)
(1.04896 0.024436 -7.85165e-22)
(1.03457 0.00821035 -9.09443e-23)
(0.998891 0.00381712 0)
(0.977068 -0.00128142 0)
(1.05553 0.0251291 1.32577e-21)
(0.964041 0.14727 1.13876e-20)
(0.973784 0.00452019 -1.75045e-20)
(1.17085 -0.0158715 -3.13706e-20)
(1.03672 0.0250176 2.83145e-22)
(1.05079 0.00851175 1.12787e-20)
(1.02161 0.0143366 -1.33969e-21)
(0.362483 0.00432204 -1.70986e-21)
(0.474669 0.0124869 1.38838e-22)
(0.339998 -0.0371516 1.07313e-20)
(0.143063 0.00494641 0)
(1.00004 0.000456612 1.32909e-20)
(0.99621 -0.00459527 1.18479e-20)
(0.167458 0.0353801 6.41572e-20)
(1.14888 0.0365442 -7.07244e-20)
(1.04538 0.0130135 0)
(0.195099 -0.00380321 0)
(0.762539 0.207123 -5.12419e-20)
(0.615919 -0.0145758 -2.21981e-21)
(1.04619 0.0138777 -5.20479e-21)
(1.00589 0.00117578 -2.98166e-21)
(0.569482 0.0121131 -2.10116e-21)
(0.552656 0.0130333 5.20983e-21)
(0.152274 -0.0323344 -1.24923e-21)
(1.11599 -0.0311531 -1.9216e-20)
(0.767794 0.225943 5.69618e-20)
(1.04523 0.0116781 5.39215e-21)
(0.890011 0.0483345 0)
(1.04728 0.00512 0)
(1.00352 0.0214981 -5.71058e-21)
(1.03519 0.0254645 8.43193e-22)
(1.01321 0.0690247 -2.46549e-21)
(1.0421 0.010233 2.19935e-21)
(1.06599 0.00753972 -9.17771e-21)
(1.24699 0.194719 4.4523e-20)
(1.11714 0.00139621 0)
(0.953205 0.149142 -2.57473e-20)
(1.00381 0.0225888 6.19459e-21)
(0.884359 0.0278546 -6.82474e-20)
(1.0172 0.0124983 0)
(1.00613 0.0090236 -4.65923e-21)
(0.899475 0.0785386 5.59716e-20)
(1.05098 0.00901515 2.44145e-21)
(0.8292 0.128433 0)
(1.03017 0.0400947 0)
(1.08092 0.117642 -3.35692e-20)
(0.65294 -0.0164577 -2.537e-21)
(1.14021 0.0357194 3.67406e-20)
(-0.226993 -0.0137416 0)
(0.398409 0.00560963 3.20644e-21)
(1.04225 0.00989033 -2.43052e-21)
(0.953555 0.0782836 1.88532e-20)
(1.04352 0.0570924 4.78466e-21)
(0.699225 2.40645e-05 6.68214e-23)
(1.00033 0.0503485 0)
(0.986154 -0.000736339 -2.14838e-22)
(1.12375 -0.00349939 -1.71861e-20)
(1.02051 0.00446755 0)
(0.783497 0.0715183 -4.00744e-20)
(1.0479 0.0138001 -5.23965e-22)
(1.04362 -0.00339053 -1.24033e-21)
(1.0473 0.0127436 -7.21898e-21)
(0.334609 0.00798852 0)
(1.04119 0.00789772 0)
(1.05105 0.00906188 1.96734e-21)
(1.14376 0.0153192 2.41324e-20)
(0.996587 -0.00420172 -1.42669e-20)
(1.22019 0.0225077 1.95904e-20)
(0.280887 -0.0015185 4.06758e-21)
(1.05557 0.0105624 3.52428e-21)
(1.05263 0.0102616 7.03946e-21)
(0.847464 0.0607924 4.73735e-20)
(0.954219 0.0743254 -5.92829e-21)
(0.999009 0.00386542 0)
(1.03212 0.00991575 -6.05432e-22)
(1.00576 0.00892195 -4.80917e-21)
(-0.228489 -0.0103179 -3.78677e-20)
(0.97165 0.0369692 -1.26352e-20)
(1.05795 -0.00318548 -2.5835e-21)
(0.997933 0.0720005 5.01166e-21)
(1.04039 0.015948 -1.97842e-21)
(1.06071 0.0344899 1.73933e-20)
(0.967163 0.00203849 1.65594e-20)
(1.03355 0.00835894 -9.68916e-23)
(0.739768 0.00530867 2.85303e-21)
(0.285655 -0.0325269 0)
(0.629954 -0.00974343 1.33074e-21)
(1.04777 0.00891581 0)
(0.12466 -0.0117822 -7.96624e-22)
(0.16076 -0.00531753 -7.77846e-21)
(1.04895 0.025039 -8.76874e-21)
(0.999331 0.00556278 -7.17576e-21)
(1.02109 0.0140677 1.37719e-21)
(0.970507 0.0353901 -1.28763e-20)
(1.04709 0.0140219 2.29434e-21)
(1.01411 0.0408931 0)
(0.306669 0.00962035 -4.35876e-21)
(1.02617 0.00781192 0)
(1.00412 0.0046914 1.5181e-20)
(0.975193 0.0378596 1.50653e-20)
(1.08803 -0.00550186 0)
(1.05022 0.0105286 -3.19033e-21)
(1.09851 0.00208339 0)
(0.382305 -0.0471609 0)
(0.459975 -0.0172022 -5.7794e-21)
(1.04492 0.0130208 3.6574e-21)
(1.06978 0.0372236 1.60081e-20)
(1.07517 0.0125127 0)
(0.997916 0.0162411 5.01765e-21)
(1.03803 0.0476116 2.71005e-21)
(0.998996 0.000902741 3.11599e-21)
(0.96138 0.159744 8.98829e-21)
(1.03955 0.0257874 1.53309e-22)
(1.00769 0.00800038 0)
(0.259552 0.110251 -2.13195e-22)
(1.02167 0.0148881 1.31599e-21)
(0.990485 0.0407473 1.43404e-20)
(0.618479 -0.0027523 -3.64783e-21)
(1.14532 -0.0094575 -5.34456e-20)
(1.12106 -0.0333694 0)
(1.05498 0.0167725 0)
(1.10105 0.0955227 -2.43597e-20)
(0.191638 -0.0351346 4.79973e-21)
(1.05949 0.0313532 1.31129e-20)
(0.998881 0.0171495 -1.28117e-20)
(0.0155775 -0.0233698 -3.18335e-20)
(0.957382 0.033915 0)
(1.0002 0.00382656 5.3555e-21)
(0.0685007 0.000216714 0)
(0.894892 0.0455674 0)
(1.03003 0.00642028 -3.89297e-22)
(0.974146 0.036565 -9.94131e-21)
(1.0478 0.0132874 0)
(0.0310066 -0.0117339 -7.39305e-22)
(1.03884 0.0463178 -3.01942e-21)
(1.05102 -0.00804198 0)
(1.05245 0.0103332 0)
(0.563732 0.00309914 8.42998e-20)
(0.999084 0.00073969 0)
(1.13607 0.0353426 3.36539e-20)
(0.999093 0.0096626 0)
(1.09153 0.340602 2.3795e-20)
(0.558508 0.202016 0)
(1.0658 0.0742682 -1.13558e-20)
(0.932117 0.0444106 2.83917e-23)
(1.04706 -0.00808725 0)
(0.968812 0.00561457 0)
(1.05101 0.00903864 -1.16213e-20)
(0.999953 0.000517041 0)
(1.02925 0.0194525 2.56129e-22)
(0.899937 0.090478 -1.83787e-20)
(0.704849 0.163769 -4.5973e-20)
(1.00036 0.000166827 -8.96545e-21)
(1.04233 0.0109865 -2.02411e-21)
(1.1566 -0.0134858 6.04598e-20)
(0.997159 0.00110335 0)
(1.05566 0.0176898 0)
(1.03106 0.0372406 0)
(0.746788 0.00621124 2.44382e-21)
(1.12655 -0.00173298 -5.74593e-20)
(1.06059 0.00657298 -1.4708e-20)
(1.03088 0.00662737 -5.01519e-24)
(-0.198679 -0.011138 0)
(0.935562 0.0447542 4.25605e-23)
(1.05117 0.00857297 -3.31464e-21)
(0.313493 -0.0456703 1.78072e-20)
(0.838633 0.11965 -6.4774e-20)
(1.04973 0.0104887 0)
(1.03206 0.00811662 -1.85795e-22)
(1.04079 0.0378737 3.52439e-21)
(1.00425 0.000153068 5.45441e-21)
(1.21273 0.185387 0)
(1.00038 0.00425495 -1.58908e-20)
(1.02657 0.047781 0)
(0.9858 0.0019034 0)
(1.01681 0.012106 -1.81854e-21)
(0.770382 0.00548285 -7.74763e-21)
(1.00288 0.0207855 -6.03541e-21)
(0.978054 0.0388485 1.47886e-20)
(1.0517 0.00874543 4.17879e-21)
(0.270573 -0.0298644 -1.53651e-21)
(1.02136 0.0198302 0)
(1.03619 0.0256463 7.33115e-22)
(1.01376 0.00973978 2.86e-23)
(1.05036 0.0128161 9.52697e-21)
(-0.198681 -0.0145049 -4.08192e-23)
(0.884175 -0.0477597 2.44092e-22)
(1.01798 0.390377 0)
(1.03984 0.0445623 -1.85964e-21)
(0.570422 -0.00874301 8.39975e-22)
(1.03675 0.0477808 -2.32387e-21)
(1.04102 0.0108886 0)
(0.999965 0.000476124 4.78264e-21)
(1.01711 0.000284275 2.78843e-21)
(1.003 0.0246883 -7.23441e-21)
(1.01485 0.000188487 -1.11451e-22)
(0.914228 -0.0332176 0)
(1.04964 0.0226092 7.26185e-21)
(0.999932 0.000627089 -5.03624e-21)
(1.19034 0.0285747 5.67133e-20)
(1.01415 0.00968092 -3.49517e-21)
(1.16658 0.0137429 -2.84192e-20)
(1.06715 -0.0201968 0)
(1.05502 0.0113482 -1.61681e-21)
(1.20264 0.0164204 0)
(1.05489 0.0161351 0)
(0.667831 -0.0173443 4.87255e-21)
(1.06009 0.00627298 1.09279e-20)
(0.965886 0.0132384 0)
(1.00004 0.000644794 -4.42445e-21)
(0.906286 0.089853 -4.38619e-20)
(1.02219 0.0323709 0)
(1.01912 0.0202544 -2.50368e-21)
(-0.181587 -0.0142383 -5.99928e-20)
(1.05207 0.0122342 -6.06709e-21)
(0.970455 0.00227472 0)
(1.06807 0.0375704 0)
(0.303062 0.000509366 0)
(0.486955 -0.0365688 3.58467e-22)
(1.06382 0.0144582 1.09427e-20)
(1.05391 0.01623 0)
(1.0406 0.059533 -5.03702e-21)
(1.04877 0.00829388 0)
(1.04156 0.00807585 0)
(0.921615 0.0600893 -2.12277e-20)
(-0.162139 -0.016514 -9.45311e-20)
(0.984749 0.0148762 -8.02079e-23)
(1.02201 0.0198818 0)
(1.07428 0.0556359 2.29199e-20)
(0.917491 0.0610313 0)
(1.05876 0.0166379 3.51548e-21)
(1.07978 0.0416248 -2.67054e-20)
(1.01497 0.000753335 -3.16776e-21)
(1.04926 0.0938464 -1.33249e-20)
(0.999919 0.000591395 2.99531e-21)
(0.985836 0.00108537 0)
(0.511588 0.013858 -1.36212e-21)
(1.06475 0.0144837 -1.33426e-20)
(1.00306 0.0238587 0)
(1.13066 0.0310438 3.22862e-20)
(0.977369 0.037713 -6.82872e-21)
(1.00351 0.00974362 -6.79348e-21)
(0.898007 0.16877 4.97047e-20)
(0.499105 -0.0271643 -1.85795e-21)
(0.994671 -2.26877e-05 1.80569e-21)
(0.998354 0.00897763 -9.19905e-21)
(1.01105 0.00154316 5.22427e-21)
(1.02927 0.0179328 -1.83882e-22)
(0.490685 0.0114544 0)
(0.995104 0.000142572 -1.30568e-21)
(0.967571 0.0141326 0)
(1.17757 0.0148576 0)
(1.01098 0.0321176 0)
(1.009 0.0452053 -2.29427e-21)
(0.138651 -0.0233368 4.30824e-20)
(0.996446 0.00281255 9.79844e-21)
(1.20868 0.0248395 -1.82522e-20)
(1.02188 0.00454936 -1.71411e-21)
(1.04123 0.00387054 3.41356e-21)
(0.488736 0.0137236 0)
(1.06026 0.0166787 0)
(0.972817 0.00370101 9.41406e-21)
(0.996873 0.000436183 8.96806e-21)
(1.05245 0.0106098 0)
(1.04566 0.0116038 0)
(1.02119 0.00454154 2.02251e-21)
(0.982422 0.0556604 -2.19073e-22)
(1.01146 0.00079283 2.44481e-21)
(1.04979 0.090679 3.83256e-21)
(1.03188 0.00846932 -4.81963e-22)
(1.07289 0.0536782 -2.29476e-20)
(1.05835 0.0133454 -9.69103e-21)
(1.04193 0.011079 0)
(-0.0457374 -0.0215459 -4.55082e-20)
(1.05006 0.0106851 0)
(0.81093 -0.0351327 -2.37591e-20)
(0.997899 0.0743376 -8.17442e-21)
(1.02226 0.00469826 8.30216e-22)
(1.08309 -0.00473463 -8.93336e-21)
(0.998969 0.00568945 0)
(1.04992 0.0103614 5.0716e-21)
(1.14139 0.0165648 0)
(0.896407 0.0742458 -6.01216e-20)
(1.04246 0.00383206 0)
(0.602745 -0.00978621 0)
(1.00329 0.00051928 5.42029e-21)
(0.417434 -0.00250297 -4.44506e-20)
(1.08221 -0.0015366 -9.4457e-21)
(1.04928 0.023058 -6.29558e-21)
(0.930306 0.0398515 -1.58079e-20)
(0.235618 -0.0408649 5.63488e-20)
(0.462663 -0.050497 -1.23439e-20)
(1.02191 0.00611483 0)
(1.00615 0.00133597 1.81417e-21)
(1.00539 0.00839108 4.92277e-21)
(1.15276 0.0291891 -2.70135e-20)
(1.12627 0.0479398 0)
(0.0487771 -0.0238709 -5.52745e-21)
(-0.076434 -0.00968727 0)
(0.998665 0.00898297 -7.79262e-21)
(1.05388 0.00673455 0)
(0.724504 0.292905 4.47864e-20)
(1.06117 -0.00842757 0)
(1.05109 0.00857154 3.80306e-21)
(1.05006 0.0131131 0)
(1.05703 0.0458297 -3.41882e-21)
(1.03059 0.0149028 -5.19047e-22)
(1.04497 0.0120055 -3.79447e-21)
(0.351659 -0.0449171 -1.67204e-20)
(1.07051 0.0540581 2.79681e-22)
(1.05343 0.0122727 -2.23434e-21)
(1.02087 0.00467378 -2.34735e-21)
(1.00538 0.00818448 5.2559e-21)
(1.03408 0.011499 0)
(1.06319 0.0724347 0)
(1.00966 0.00694669 7.42767e-21)
(1.04359 -0.00099986 -3.5843e-21)
(1.00012 0.00381038 -6.85744e-21)
(0.466146 0.0136408 -4.8213e-21)
(1.06803 -0.0212932 -1.03743e-20)
(1.04717 0.0889466 2.6181e-21)
(0.705973 0.176145 0)
(1.03015 0.0151135 2.34418e-22)
(0.999099 0.0178134 0)
(0.596305 -0.00926648 -3.12958e-21)
(1.04454 0.0136154 6.6973e-21)
(0.469117 0.0141237 5.27194e-22)
(1.00811 0.00816921 -7.51058e-21)
(1.03449 0.0113301 -6.17932e-23)
(1.00935 0.0221353 8.77261e-21)
(1.00004 0.000170894 9.69382e-21)
(1.0546 0.00756234 -1.44848e-21)
(1.05562 0.016992 0)
(0.00113639 -0.0246637 3.3483e-23)
(-0.09761 -0.0110099 9.54422e-20)
(0.996806 0.000860722 0)
(1.04012 0.0155291 5.83273e-21)
(1.05383 0.0166877 6.62827e-22)
(1.07135 -0.00448785 -1.54534e-20)
(0.999235 0.209178 7.50132e-23)
(1.02204 0.0985121 0)
(1.03251 0.01206 -1.77436e-21)
(1.10261 0.412804 0)
(0.991933 0.0661997 6.33874e-21)
(0.959767 -0.045543 3.17598e-20)
(1.02463 0.0106145 1.17787e-21)
(1.13226 -0.00991523 1.18344e-20)
(0.427808 0.0106293 -1.04295e-21)
(1.00976 0.00670688 -4.04994e-21)
(0.996541 0.0188918 6.01898e-21)
(1.06025 0.132378 -8.43164e-21)
(1.00001 -0.000263406 8.50796e-21)
(1.02154 0.00472863 -6.28767e-23)
(1.08021 0.04553 0)
(1.04039 0.0196112 1.19534e-22)
(0.59304 0.0144296 4.03433e-21)
(1.07887 0.015413 0)
(1.09865 -0.0285665 0)
(1.00307 0.0200019 0)
(1.1233 -0.0149772 2.26024e-20)
(0.755769 0.552537 0)
(1.06424 0.130887 4.77788e-22)
(1.00001 -0.000227154 0)
(0.544416 0.0133529 -5.00705e-21)
(1.01344 0.0219355 1.87167e-21)
(1.05063 0.00400752 0)
(0.99535 0.00337468 -1.21744e-20)
(0.998991 0.000361275 0)
(0.551634 0.0155645 5.19037e-21)
(1.04848 0.00501901 3.86028e-21)
(1.05467 0.00458704 3.44766e-21)
(1.05417 0.00687775 0)
(0.994292 0.106428 -1.47623e-20)
(1.02663 0.00787454 0)
(0.54531 -0.0212884 -2.90844e-21)
(1.00378 0.0121471 8.10771e-21)
(1.11305 0.0814466 -4.59606e-20)
(1.18638 0.0154344 -2.39534e-20)
(1.05362 0.0158708 1.22499e-20)
(1.01044 0.00575234 -3.23853e-21)
(0.992283 0.0139793 -8.48433e-21)
(1.05128 0.00964801 -6.42619e-21)
(1.05872 0.0461841 -3.70438e-21)
(1.00004 0.00106234 0)
(1.12387 0.0545329 0)
(0.798416 0.244724 0)
(1.05484 0.0118349 1.80913e-21)
(0.992021 -0.00817975 -8.22117e-21)
(-0.0058877 -0.00378302 3.82992e-20)
(0.448182 -0.0256418 7.78635e-21)
(1.12158 0.323026 0)
(0.994456 0.0155239 0)
(0.904075 0.173111 1.44641e-20)
(1.02251 0.00663004 1.48867e-21)
(1.03845 0.0203503 -3.06564e-21)
(0.946505 0.147217 1.84188e-20)
(0.317492 0.00368626 2.22113e-21)
(0.947327 0.109925 -1.9111e-20)
(0.49818 -0.0123236 1.92821e-21)
(0.90142 0.1585 -3.99915e-20)
(1.08789 -0.00695401 0)
(1.044 0.0120701 2.0399e-21)
(1.02193 0.0331718 0)
(0.368265 -0.0457245 2.88542e-20)
(1.18084 0.0859266 5.44759e-20)
(1.00496 0.00710407 -2.89246e-21)
(1.05251 0.0127333 -4.25969e-21)
(1.08429 -0.00566792 -2.78632e-21)
(1.06027 0.0322446 -1.44216e-20)
(0.947521 0.115538 5.05343e-21)
(1.03931 0.0576102 9.03662e-22)
(1.02338 0.101206 8.41099e-23)
(1.0878 -0.0340082 0)
(1.01098 0.00546225 -6.45882e-21)
(1.07919 0.0380819 -1.71934e-20)
(1.00741 0.0012461 7.91031e-21)
(1.03197 0.0303308 -6.76052e-23)
(0.784878 0.0061796 -2.12618e-21)
(0.440316 -0.0369649 7.04486e-21)
(1.08798 0.114799 2.26408e-20)
(0.986807 0.00261592 0)
(1.01477 0.00142927 -4.61177e-21)
(1.02109 0.00607585 3.24047e-21)
(0.999672 0.0641313 8.93777e-21)
(0.846988 0.102635 2.79004e-20)
(0.159425 -0.0368693 3.23924e-20)
(1.0763 0.0135442 0)
(1.153 0.0256024 3.00224e-20)
(0.45397 0.0151089 0)
(1.1035 0.0805844 0)
(0.985332 0.104204 -2.23686e-20)
(0.54417 0.0147076 6.12654e-21)
(1.01232 0.0355415 9.67223e-22)
(0.44434 -0.0173447 -2.83657e-21)
(1.02904 0.0478113 1.88573e-22)
(1.0042 0.000851541 0)
(0.987144 0.0102019 -3.4679e-21)
(1.0518 0.0125328 -1.43949e-20)
(1.10637 0.0419596 4.55265e-21)
(1.01076 0.00189212 3.00039e-21)
(0.926532 0.0401584 -9.45014e-21)
(1.07604 0.0331084 -8.72879e-21)
(1.13018 0.0384081 3.15604e-20)
(0.983784 0.101872 1.88306e-20)
(1.04255 0.00786226 -5.27012e-21)
(1.01259 0.0335741 -1.24537e-20)
(1.04362 0.00799766 2.91317e-21)
(1.05086 0.0090728 0)
(1.06256 0.0136666 0)
(1.05184 0.00955305 1.29297e-20)
(1.0005 0.000247464 0)
(0.979596 0.0257483 -2.24326e-20)
(-0.211941 -0.0138055 7.3791e-21)
(0.54289 -0.0195609 4.89003e-21)
(1.00334 0.03507 -1.00514e-20)
(1.04877 0.00491688 0)
(0.986613 0.0031832 4.17913e-21)
(1.0186 0.00751723 -2.04156e-21)
(0.992503 -0.00769331 1.48288e-20)
(0.999034 0.06676 -1.52733e-20)
(1.05075 0.0122754 0)
(1.01861 0.0196484 2.05795e-21)
(0.972463 0.128409 4.50643e-21)
(1.03225 0.0132778 0)
(1.04274 0.0593834 5.04973e-21)
(0.992172 0.0147612 0)
(1.08046 0.0497341 6.85054e-21)
(1.04463 0.0139453 9.27596e-23)
(1.01036 0.00607525 -7.20861e-23)
(0.992047 -0.00327729 -1.35426e-20)
(1.07764 0.0158117 0)
(1.07553 0.0276513 0)
(1.24803 0.129575 -7.92812e-22)
(1.05473 0.0161116 -3.48968e-21)
(1.00502 0.00693435 2.77544e-21)
(0.998773 0.00956963 6.57528e-21)
(1.00418 0.000628414 6.70997e-21)
(0.745934 0.00887117 0)
(0.90024 0.0481445 -2.68881e-20)
(1.09567 0.0382474 -3.42175e-20)
(0.387462 -0.0338516 3.45909e-21)
(1.02163 0.104948 1.39357e-21)
(1.05324 0.0169986 -5.48684e-22)
(0.788187 0.00794831 -2.58512e-21)
(1.00959 0.0228881 -1.07212e-20)
(1.00384 0.0117159 8.35262e-21)
(1.00305 0.000908569 0)
(1.03226 0.0123918 1.44574e-21)
(1.07088 -0.00569359 4.33685e-21)
(1.01122 0.000691687 0)
(1.017 0.00631588 0)
(1.12807 -0.0194441 1.34851e-20)
(1.06009 -0.00463553 0)
(0.928999 0.0640521 -3.2125e-20)
(1.03415 0.00786309 -1.40457e-21)
(0.723952 0.00629259 4.10382e-22)
(0.0707924 0.023604 -1.47212e-19)
(1.05647 0.00754275 5.40683e-21)
(1.02086 0.0775706 -2.33409e-22)
(1.05635 0.0179926 0)
(1.04978 0.0140252 0)
(1.1007 0.0831108 0)
(0.991528 -0.00274009 1.01194e-21)
(1.13093 -0.018172 -2.49869e-20)
(1.04779 0.00916267 -6.37593e-21)
(-0.148701 0.00836018 1.3665e-19)
(0.994427 0.0654841 -1.03652e-20)
(1.01704 0.110646 -1.48039e-21)
(1.06075 0.411815 3.24018e-20)
(1.00687 0.000708108 0)
(1.14019 -0.0138302 2.4498e-20)
(1.04272 0.0195352 0)
(1.00003 0.000188321 -6.98231e-21)
(0.227916 -0.0444947 -3.91761e-20)
(1.05122 0.00976975 0)
(0.702505 0.197709 0)
(0.608595 0.0135291 -3.80303e-21)
(1.13837 0.0519432 3.66764e-20)
(1.00249 0.0193728 5.90233e-21)
(0.724758 0.00889917 4.29402e-22)
(1.00761 0.0088234 0)
(0.984521 0.0544223 1.87553e-22)
(1.04918 0.0166657 1.27367e-20)
(1.03962 0.0384639 -3.35582e-21)
(0.999649 -0.000564285 0)
(-0.0454741 0.0128022 0)
(0.379761 -0.0462742 1.66734e-20)
(1.05126 0.00830485 -8.29762e-22)
(1.04882 0.0138696 0)
(1.01313 0.0766261 -1.51547e-21)
(0.440124 0.00914284 0)
(1.20994 0.0313254 -5.47453e-20)
(1.02067 0.113091 1.99902e-21)
(0.430497 -0.0339768 8.12958e-21)
(1.04303 0.0191762 0)
(1.00737 0.0008777 -2.30941e-21)
(1.02041 0.0125007 0)
(0.997136 0.00148484 0)
(0.985918 0.0164456 -2.58048e-20)
(0.452933 0.0166315 8.20429e-22)
(1.05342 0.0133928 -1.056e-20)
(-0.0364136 -0.0211432 4.39548e-20)
(1.0426 -0.00152881 -8.53804e-22)
(1.00687 0.000293811 -1.69003e-22)
(1.07382 0.0126138 0)
(0.90949 0.107505 6.83177e-20)
(1.01936 0.000301063 1.79543e-21)
(1.03111 0.0301655 -1.22687e-24)
(0.334811 -0.0359896 -1.9686e-20)
(0.148896 0.000816447 0)
(1.03804 0.0260453 -4.60209e-21)
(1.09657 0.0399889 9.50717e-21)
(1.01311 0.0418261 1.21381e-22)
(1.00256 0.00865959 1.47361e-20)
(1.07977 0.0360221 9.33946e-21)
(1.04766 0.0126389 -3.5809e-21)
(0.49571 -0.0268211 0)
(1.12464 0.00932852 3.523e-20)
(1.04113 0.0136549 -1.67758e-21)
(1.02094 -0.00186953 -1.02178e-21)
(0.979712 0.0999115 2.20187e-20)
(1.04323 0.0115381 -2.12697e-21)
(1.00036 0.00347174 1.05115e-20)
(0.773405 0.377963 0)
(1.06641 -0.00528438 -6.32415e-21)
(1.03349 0.0111217 1.00397e-21)
(1.05094 0.0126424 0)
(0.157943 0.00103595 0)
(0.995043 0.0151182 -7.76642e-21)
(0.98564 0.187415 0)
(1.02632 0.0112588 -1.04242e-21)
(0.439958 0.0152235 -4.0852e-21)
(0.994814 0.186775 -1.81603e-21)
(0.991527 0.0422385 -1.56709e-20)
(1.01556 0.0410342 0)
(1.03281 0.00879276 -1.76296e-21)
(1.01296 0.000834764 2.62393e-21)
(1.01849 0.0764063 0)
(0.506531 0.206046 0)
(1.01458 0.0215512 3.6922e-21)
(1.03349 0.0120594 0)
(1.04978 0.00859888 0)
(0.988709 0.0407775 -1.87737e-20)
(-0.0126559 -0.0258335 0)
(0.984126 0.220183 -2.79734e-21)
(0.996452 0.00625048 0)
(1.01507 0.00120023 3.33992e-21)
(0.9844 0.0138033 -3.4403e-21)
(0.845165 0.0938534 -1.63175e-20)
(1.00556 0.0353232 -8.35465e-21)
(1.00447 0.00305814 -7.78865e-21)
(1.04451 0.00852989 -9.09112e-22)
(1.10442 -0.032421 -8.0349e-21)
(1.00156 0.00664593 0)
(1.02599 0.0074756 2.43728e-22)
(1.07583 0.0243534 0)
(0.537725 0.016013 4.03135e-21)
(0.999885 0.00616389 1.80576e-21)
(1.03646 0.00769362 1.19962e-21)
(1.02947 0.0184941 0)
(1.04773 0.00956658 1.83918e-21)
(1.01739 0.00665548 0)
(0.0481199 -0.0140111 -1.02579e-20)
(1.0819 0.0515793 0)
(1.05486 0.00780494 -3.06428e-21)
(1.08752 0.424636 -1.53342e-20)
(0.957167 0.728264 -3.06514e-20)
(1.03304 0.0118777 4.74098e-22)
(1.19201 0.247214 0)
(1.02038 0.00169363 8.20871e-22)
(0.759015 0.00940189 0)
(1.06545 0.02333 -1.00111e-20)
(1.05087 0.0135706 0)
(0.995552 0.00100854 -9.78503e-21)
(0.987235 0.0107964 0)
(0.0718484 -0.00896387 0)
(0.971153 0.00349919 1.04155e-20)
(0.867655 -0.00631648 2.24663e-23)
(1.00252 0.00824839 -1.22731e-20)
(1.05524 0.00453503 2.4324e-20)
(0.519542 0.0147785 -1.63413e-21)
(0.1124 -0.00621122 0)
(1.11891 0.00703084 0)
(0.998924 0.000567244 0)
(0.562945 0.0127764 0)
(0.999999 1.91039e-05 1.1222e-20)
(1.01521 0.0217599 0)
(1.04972 0.00880389 5.74762e-21)
(1.22572 0.302985 3.56073e-20)
(0.969758 0.0169039 0)
(1.15979 0.0418251 -2.45988e-20)
(1.0504 0.00901845 9.2773e-21)
(0.993269 0.0418851 -1.38305e-20)
(1.053 0.0132781 5.27325e-21)
(1.00002 0.000535045 8.84217e-21)
(1.0078 0.0442811 -5.08456e-21)
(0.985343 0.017179 2.53967e-20)
(1.00633 0.000295642 1.08727e-22)
(1.00419 0.00304543 1.16109e-20)
(1.14659 0.093404 3.39167e-20)
(0.996519 0.000108327 -9.1657e-21)
(1.07728 0.0267676 0)
(1.04506 0.0109482 3.32296e-21)
(0.50934 0.202655 -2.99042e-20)
(0.999996 -0.000137081 0)
(1.1049 -0.0319361 -7.56427e-21)
(1.02307 0.00908434 6.53603e-22)
(0.836863 0.110976 1.60793e-20)
(1.05072 0.00866808 -2.79941e-21)
(1.10285 0.00172706 1.48459e-20)
(1.06337 0.0136377 -3.02239e-21)
(1.09809 0.0980614 1.97827e-20)
(1.05992 0.0370752 6.47961e-21)
(1.04859 0.00816833 1.12274e-20)
(0.999977 -0.000506823 0)
(1.05222 0.0130909 3.67002e-21)
(1.08382 -0.00768132 -1.38743e-20)
(0.924348 0.0643318 1.17564e-20)
(1.0123 0.000759436 -8.20207e-22)
(1.01828 0.00691168 2.21748e-21)
(0.175624 -0.0263765 -4.51472e-20)
(1.04989 0.010074 6.69934e-21)
(1.0806 0.0395886 9.25771e-21)
(1.02984 0.0160249 -1.51904e-22)
(1.00658 0.000875686 2.74144e-21)
(1.13437 0.0312889 -3.51905e-20)
(1.04909 0.00988814 5.91478e-21)
(0.789897 0.00916141 0)
(0.328663 -0.0142267 8.14026e-21)
(1.05959 -0.00541816 -5.35196e-21)
(1.06149 0.00737257 -1.19279e-20)
(0.05992 -0.0246122 -3.98699e-20)
(1.02547 0.00738069 -2.78393e-22)
(1.00022 0.000180252 -6.87388e-21)
(0.401332 0.0129084 1.40094e-21)
(1.06533 0.0244559 1.21742e-20)
(1.04636 0.42296 0)
(1.0547 0.00459904 -3.50789e-21)
(0.996747 0.00175822 -9.18055e-21)
(1.01875 0.000468973 0)
(1.05004 0.00383299 -3.65304e-21)
(1.01987 0.0122321 0)
(0.631517 0.0125449 4.08267e-21)
(1.04652 0.00782615 0)
(1.05038 0.00912825 -3.23606e-21)
(1.02343 0.0128841 1.09796e-21)
(1.04786 0.0140172 5.93865e-22)
(1.00026 0.00160436 0)
(1.21084 0.0265267 4.62237e-20)
(1.03303 0.0112841 -8.31759e-22)
(1.0249 0.0191707 1.16935e-21)
(0.870748 0.271217 1.05754e-20)
(1.1231 0.0125181 -7.9616e-21)
(1.04294 0.0113045 4.14151e-21)
(0.071349 -0.0222389 9.42553e-21)
(0.982287 0.227445 -4.32916e-21)
(0.878754 -0.00546527 -5.31513e-21)
(0.886933 0.00943124 -4.89784e-20)