/*--------------------------------*- C++ -*----------------------------------*\
| =========                 |                                                 |
| \\      /  F ield         | OpenFOAM: The Open Source CFD Toolbox           |
|  \\    /   O peration     | Version:  v2012                                 |
|   \\  /    A nd           | Website:  www.openfoam.com                      |
|    \\/     M anipulation  |                                                 |
\*---------------------------------------------------------------------------*/
FoamFile
{
    version     2.0;
    format      ascii;
    class       volVectorField;
    location    "200";
    object      U_0;
}
// * * * * * * * * * * * * * * * * * * * * * * * * * * * * * * * * * * * * * //

dimensions      [0 1 -1 0 0 0 0];


internalField   nonuniform List<vector> 
14804
(
(0.721147 0.00695072 -3.3424e-22)
(1.00746 0.00989864 0)
(1.05134 0.00351288 2.1475e-22)
(1.0524 0.0123741 4.21472e-21)
(1.06046 0.0155603 4.38047e-23)
(1.06579 0.00679687 -2.38022e-22)
(1.02954 0.0448855 -3.28596e-23)
(0.978795 0.00688785 2.28395e-20)
(1.04794 0.00879495 0)
(1.0003 0.00020852 -6.5131e-24)
(1.1276 -0.0136247 0)
(1.05183 0.00231975 0)
(0.96875 0.00131187 1.04873e-21)
(1.0547 0.0110163 -3.16825e-21)
(1.14648 0.0407239 8.19279e-20)
(0.0595379 -0.00232542 2.76955e-20)
(1.0612 0.0151142 9.53472e-23)
(1.0523 0.013517 9.44804e-21)
(0.307334 0.00849623 4.35306e-21)
(1.05099 0.00908089 0)
(0.999997 7.82156e-07 4.7754e-21)
(1.01072 0.0702072 3.65384e-21)
(0.973625 0.133623 7.63364e-21)
(1.03263 0.0357651 1.01257e-21)
(0.0351966 -0.00468147 0)
(1.0314 0.0361325 -2.48852e-22)
(1.05128 0.00941912 0)
(1.05827 0.0141012 8.76611e-21)
(0.813372 0.0068902 3.55192e-21)
(1.03903 0.0263064 4.8295e-21)
(1.0325 0.0103271 -4.27474e-22)
(0.954996 0.123456 0)
(1.05097 0.00905973 8.9101e-21)
(1.07551 0.0297302 0)
(1.04856 0.00966826 -3.50722e-21)
(1.03057 0.0443443 1.33015e-23)
(1.0579 0.0164268 0)
(1.00003 0.000944146 0)
(0.95036 0.0902052 3.4446e-20)
(1.05177 0.00885002 -8.57326e-21)
(1.05094 0.00382715 -4.95643e-21)
(1.0488 0.00967863 0)
(0.701473 0.291735 0)
(0.994793 0.018494 7.91469e-21)
(1.05977 0.0152437 0)
(0.955754 0.0308284 0)
(1.0353 -0.0180401 -5.18585e-21)
(0.982663 0.0296531 -2.68531e-20)
(1.01071 0.0726176 7.33813e-21)
(1.1241 0.30607 -7.08242e-20)
(0.967285 0.00421311 -2.50681e-20)
(1.0185 0.00054776 -3.37048e-21)
(0.999144 0.00582872 1.03188e-20)
(1.04789 0.0128909 0)
(1.11271 0.332332 0)
(1.01031 0.0115047 -4.98683e-21)
(1.04931 -0.00187684 -2.6724e-21)
(0.832192 0.00716133 2.42268e-21)
(0.996235 -0.0034885 -1.55145e-20)
(0.953283 0.0312125 0)
(0.559096 0.0152339 -5.52127e-21)
(0.965649 0.00482879 -2.50042e-22)
(0.996352 0.020605 -4.26816e-21)
(0.979503 0.0101414 -5.17534e-21)
(0.995968 0.0198061 -3.80578e-21)
(0.998839 0.00504084 -7.72575e-21)
(0.999971 -4.29528e-05 -1.16688e-20)
(1.02263 0.046593 0)
(1.00153 0.000460777 0)
(0.596329 -0.0115353 8.52987e-22)
(1.03504 0.00805698 1.50442e-21)
(1.05122 0.00950058 0)
(1.13678 -0.00796292 1.2391e-20)
(0.502898 -0.0198778 6.68247e-21)
(1.04197 0.00919658 4.80721e-21)
(0.613439 -0.0112996 -8.80782e-22)
(-0.0375458 -0.00734524 1.51523e-22)
(1.00763 0.00956691 3.83765e-21)
(0.832567 0.138991 0)
(1.02237 0.0062708 -1.05427e-21)
(-0.0917204 -0.0204719 7.33087e-20)
(0.999023 0.00517185 7.0041e-21)
(1.02235 0.00716671 1.14593e-21)
(1.04187 0.00954153 -2.19911e-21)
(1.00006 0.000605921 2.13255e-21)
(1.08568 -0.00821144 1.97656e-20)
(1.01073 0.00162748 -4.4053e-21)
(1.04492 0.0114104 -1.98141e-21)
(1.00911 0.00721311 3.47223e-21)
(1.05882 0.01441 9.70186e-21)
(1.07026 0.0354141 -2.76627e-22)
(0.984923 0.0657002 -4.98018e-21)
(1.04908 0.00820356 -4.86601e-21)
(1.03368 0.00797045 1.13273e-21)
(1.13257 0.30095 5.26511e-20)
(-0.0221356 -0.00874826 4.56641e-20)
(0.8007 0.0067929 -2.44904e-21)
(0.954041 0.117718 0)
(1.01771 0.0427542 -3.17387e-21)
(1.13563 -0.0155983 0)
(0.821012 0.00733793 -2.4582e-21)
(0.687076 -0.0151653 -1.49182e-21)
(1.00005 0.000491227 4.63466e-21)
(1.05517 0.0104298 9.97242e-22)
(1.04317 0.0118318 -2.03879e-21)
(0.629694 -0.0153068 3.22169e-21)
(1.05171 0.00267695 0)
(1.10519 0.330092 -2.64649e-20)
(0.993195 -0.00124486 1.33539e-20)
(1.03306 0.010294 7.07757e-22)
(0.994287 0.00745595 0)
(0.73167 0.0085571 3.12771e-21)
(1.04907 0.00800523 -3.96593e-21)
(-0.196175 -0.0136525 5.23664e-20)
(0.708863 0.00976412 -4.25083e-21)
(-0.128492 -0.0187744 4.70797e-20)
(1.04346 -0.0030918 -1.62026e-21)
(1.07175 0.0345356 1.06132e-20)
(1.00005 0.000591456 -1.49147e-20)
(1.0527 0.013656 -9.46848e-21)
(-0.0598583 -0.0101137 -8.96801e-20)
(1.00917 0.00689917 -1.02311e-20)
(1.03864 0.0452005 4.34325e-21)
(1.06602 0.0155338 -1.60692e-21)
(0.996612 -0.00356045 1.41326e-20)
(1.00002 0.00067509 0)
(1.04257 -0.0010955 3.48764e-21)
(1.05482 0.0106252 -3.94146e-21)
(0.969199 0.144553 -1.69786e-20)
(1.06427 0.0215677 0)
(1.06429 0.0226291 0)
(1.11669 0.00507676 0)
(0.607487 -0.00346855 0)
(1.11898 -0.0189354 0)
(1.03901 0.0021007 -3.2457e-21)
(1.06514 0.0155472 0)
(0.99404 0.0183495 1.02325e-20)
(1.10943 -0.0359362 0)
(1.03926 0.021632 0)
(1.07717 0.0305326 0)
(1.0032 0.0097735 6.73e-21)
(0.0737595 0.0233012 0)
(1.01795 0.000457793 3.38284e-21)
(-0.237889 -0.0112142 0)
(0.205485 -0.00649211 0)
(1.00132 0.000407769 0)
(1.04404 0.0117524 0)
(0.993767 -0.00112947 -1.29961e-20)
(1.06586 -0.0208003 0)
(0.311786 0.0107998 6.16079e-21)
(1.04795 0.00855848 0)
(0.0976726 0.000560995 0)
(1.0517 0.00899148 9.56165e-21)
(1.05443 0.00998722 -9.35224e-21)
(1.02217 0.00683048 -2.59259e-22)
(0.780881 0.00748183 0)
(1.05095 0.00857643 -4.93757e-21)
(1.17135 0.0164599 -2.71919e-20)
(0.270248 -0.000228302 -2.73517e-21)
(1.06969 -0.0218732 -9.81442e-21)
(1.00462 0.00592909 0)
(1.00308 0.000647386 -1.17448e-20)
(0.619284 -0.00450996 0)
(0.0127923 -0.00344414 1.48377e-20)
(1.05104 0.0198286 1.1443e-20)
(0.767928 0.0079231 0)
(0.982118 0.0310046 1.91352e-20)
(0.547281 0.0140188 0)
(1.03959 0.0242847 -1.95781e-21)
(0.978875 0.00567567 -2.96204e-20)
(1.05349 0.00532422 0)
(0.992691 0.0757601 -8.47951e-21)
(1.05846 -0.00365158 4.75606e-21)
(1.14207 0.0402193 -3.9618e-20)
(1.05403 0.00333745 4.02135e-21)
(1.11988 -0.0177607 -2.16006e-20)
(0.843967 0.0671056 0)
(1.0772 0.0250945 0)
(1.01432 0.00135997 -1.72272e-21)
(1.04997 -0.00230582 -9.90483e-22)
(1.06497 0.00646095 -9.51438e-21)
(0.393716 -0.0406281 3.42636e-23)
(1.0312 0.0406156 7.72041e-23)
(0.881601 0.00726933 6.66119e-20)
(0.984639 0.0632383 0)
(0.854795 -0.00565149 2.17168e-21)
(1.08911 0.0232047 2.03023e-20)
(1.08759 0.0243127 -1.84959e-20)
(1.05524 0.0260026 0)
(1.01913 0.00764549 1.82263e-21)
(0.690757 0.27067 3.48632e-20)
(1.00633 -0.018375 2.97108e-21)
(1.01305 0.0346615 3.36457e-21)
(1.08891 -0.033764 0)
(1.05977 0.0163161 -2.47089e-21)
(1.00002 0.0186112 0)
(0.702437 -0.0163701 1.63416e-21)
(0.970506 0.00492547 -4.34512e-21)
(1.10646 0.0893912 0)
(0.386118 0.00713169 -3.60515e-21)
(0.109844 -0.00966275 -5.3125e-21)
(1.01938 0.00747887 0)
(1.04632 0.027734 -8.22912e-21)
(1.12719 0.0522461 0)
(0.949104 -0.00356144 0)
(0.292056 0.00265777 2.93075e-22)
(1.0509 0.00846379 -8.09064e-21)
(1.10739 -0.0306936 1.47619e-20)
(1.07317 0.0353728 0)
(1.02793 0.0472931 0)
(1.03915 0.0248196 -1.52666e-21)
(0.569669 0.0157277 -4.35861e-21)
(1.02405 0.0470898 0)
(1.00463 0.00575436 0)
(1.00188 0.0497894 0)
(1.03973 0.0222435 0)
(1.05445 0.0104057 0)
(1.00332 0.0222791 3.4988e-21)
(0.988605 0.00362152 -8.94717e-21)
(0.996286 0.0180701 -5.57368e-21)
(0.889264 0.029414 4.56992e-22)
(1.04876 0.00849718 -6.93474e-23)
(1.10876 0.0872206 9.89434e-22)
(0.990935 0.0733247 1.12021e-20)
(1.02892 0.0189561 -3.03234e-22)
(1.11223 -0.0291597 3.56192e-20)
(1.05103 0.00899717 -3.86136e-21)
(1.0379 0.0122183 5.03117e-21)
(0.653198 -0.00473078 3.24772e-21)
(1.01313 0.0665052 -2.73506e-21)
(1.03319 0.00913494 9.99548e-22)
(1.04528 0.0277359 3.60614e-21)
(0.988021 0.00420433 0)
(0.470563 -0.0109131 0)
(0.456726 -0.0188432 9.69553e-22)
(1.00003 0.000513368 0)
(0.959741 0.0338947 0)
(1.04574 0.0136086 4.21034e-21)
(1.10047 0.00075333 -1.24269e-20)
(1.04546 0.0565707 -9.43518e-21)
(0.0116538 0.018502 6.83948e-20)
(1.01047 0.404586 -5.05678e-21)
(1.01625 0.0427059 6.42386e-22)
(0.99545 0.0178158 -7.36834e-21)
(1.0222 0.0152104 -1.28935e-21)
(1.08611 -0.00980012 1.18996e-20)
(1.05972 0.0336403 -1.00362e-20)
(1.05089 0.0204914 -6.84322e-21)
(0.967875 0.13671 9.08056e-21)
(1.03348 0.0106855 0)
(0.503959 0.109983 -7.12566e-20)
(0.999842 0.0180659 -6.3327e-21)
(1.00402 0.00435168 -7.551e-21)
(1.00739 0.0090554 -3.98434e-21)
(0.664386 0.000132988 2.07931e-21)
(0.949514 -0.00559654 1.99347e-20)
(1.01821 0.00728912 0)
(1.04896 0.024436 -7.85217e-22)
(1.03457 0.00821036 -9.09455e-23)
(0.998891 0.00381712 0)
(0.97707 -0.00128317 0)
(1.05553 0.0251291 1.32584e-21)
(0.964041 0.14727 1.13873e-20)
(0.973784 0.00452019 -1.75042e-20)
(1.17088 -0.015879 -3.13749e-20)
(1.03672 0.0250176 2.83195e-22)
(1.05079 0.00851183 1.12792e-20)
(1.02161 0.0143366 -1.33954e-21)
(0.362478 0.00432144 -1.71048e-21)
(0.474677 0.012487 1.38817e-22)
(0.339996 -0.0371523 1.07312e-20)
(0.143061 0.00495618 0)
(1.00004 0.000456612 1.32905e-20)
(0.99621 -0.00459527 1.18477e-20)
(0.167459 0.0353768 6.41568e-20)
(1.14888 0.0365449 -7.07258e-20)
(1.04538 0.0130135 0)
(0.195102 -0.00380252 0)
(0.762539 0.207123 -5.12413e-20)
(0.615916 -0.0145783 -2.2204e-21)
(1.04619 0.0138824 -5.20509e-21)
(1.00589 0.00117578 -2.98156e-21)
(0.569485 0.0121153 -2.10118e-21)
(0.552654 0.0130342 5.21032e-21)
(0.152274 -0.0323354 -1.24922e-21)
(1.11598 -0.0311818 -1.92164e-20)
(0.767794 0.225943 5.69611e-20)
(1.04523 0.0116781 5.39247e-21)
(0.890011 0.0483346 0)
(1.04728 0.00511791 0)
(1.00352 0.0214981 -5.7104e-21)
(1.03519 0.0254645 8.43416e-22)
(1.01321 0.0690248 -2.46527e-21)
(1.0421 0.010233 2.19951e-21)
(1.06599 0.00753978 -9.17813e-21)
(1.247 0.194688 4.45206e-20)
(1.11714 0.00139575 0)
(0.953204 0.149142 -2.57467e-20)
(1.00381 0.0225888 6.19439e-21)
(0.884359 0.0278546 -6.82466e-20)
(1.0172 0.0124983 0)
(1.00613 0.0090236 -4.65907e-21)
(0.899475 0.0785386 5.59708e-20)
(1.05098 0.00901535 2.44155e-21)
(0.8292 0.128433 0)
(1.03017 0.0400947 0)
(1.08091 0.117654 -3.35691e-20)
(0.652935 -0.0164603 -2.53789e-21)
(1.14021 0.0357201 3.67414e-20)
(-0.226991 -0.0137426 0)
(0.398405 0.00560905 3.20733e-21)
(1.04225 0.00989035 -2.43069e-21)
(0.953555 0.0782836 1.88528e-20)
(1.04352 0.0570924 4.78513e-21)
(0.699226 1.94465e-05 6.68532e-23)
(1.00033 0.0503485 0)
(0.986156 -0.000737811 -2.14829e-22)
(1.12375 -0.00349773 -1.71865e-20)
(1.02051 0.00446755 0)
(0.783492 0.0715273 -4.00735e-20)
(1.0479 0.0138026 -5.23998e-22)
(1.04363 -0.00339459 -1.24049e-21)
(1.04729 0.0127488 -7.21834e-21)
(0.334603 0.00798805 0)
(1.04119 0.00789773 0)
(1.05105 0.00906213 1.96742e-21)
(1.14376 0.0153214 2.41326e-20)
(0.996587 -0.00420172 -1.42667e-20)
(1.22016 0.0225351 1.95952e-20)
(0.280883 -0.00151775 4.06879e-21)
(1.05557 0.0105623 3.52446e-21)
(1.05263 0.0102616 7.0398e-21)
(0.847464 0.0607924 4.73729e-20)
(0.954219 0.0743254 -5.92817e-21)
(0.999009 0.00386542 0)
(1.03212 0.00991576 -6.0557e-22)
(1.00576 0.00892195 -4.809e-21)
(-0.228493 -0.0103188 -3.78679e-20)
(0.97165 0.0369692 -1.2635e-20)
(1.05795 -0.00318509 -2.58365e-21)
(0.997933 0.0720005 5.01144e-21)
(1.04039 0.015948 -1.9786e-21)
(1.06072 0.0344899 1.73942e-20)
(0.967163 0.0020385 1.65592e-20)
(1.03355 0.00835894 -9.68932e-23)
(0.739774 0.00531276 2.8527e-21)
(0.285654 -0.0325284 0)
(0.629954 -0.00974474 1.33107e-21)
(1.04777 0.00891607 0)
(0.124662 -0.0117827 -7.96612e-22)
(0.160764 -0.00531739 -7.77823e-21)
(1.04895 0.025039 -8.76933e-21)
(0.999331 0.00556278 -7.1756e-21)
(1.02109 0.0140678 1.37704e-21)
(0.970507 0.0353901 -1.28761e-20)
(1.04709 0.0140248 2.2945e-21)
(1.01411 0.0408931 0)
(0.306673 0.00962072 -4.35853e-21)
(1.02617 0.00781193 0)
(1.00412 0.0046914 1.51805e-20)
(0.975193 0.0378596 1.5065e-20)
(1.08803 -0.00550203 0)
(1.05022 0.0105297 -3.19045e-21)
(1.09851 0.00208303 0)
(0.382307 -0.0471626 0)
(0.459971 -0.0171999 -5.78097e-21)
(1.04492 0.0130208 3.65763e-21)
(1.06978 0.0372236 1.60087e-20)
(1.07517 0.0125127 0)
(0.997916 0.0162412 5.01752e-21)
(1.03803 0.0476116 2.71055e-21)
(0.998996 0.000902742 3.11593e-21)
(0.96138 0.159744 8.98804e-21)
(1.03955 0.0257874 1.53311e-22)
(1.00769 0.00800038 0)
(0.259584 0.110249 -2.12668e-22)
(1.02167 0.0148881 1.31583e-21)
(0.990485 0.0407473 1.434e-20)
(0.618479 -0.00275391 -3.6483e-21)
(1.14532 -0.00945809 -5.34525e-20)
(1.12106 -0.033428 0)
(1.05498 0.0167725 0)
(1.10105 0.0955227 -2.43604e-20)
(0.191637 -0.0351356 4.79965e-21)
(1.05949 0.0313532 1.31136e-20)
(0.998881 0.0171495 -1.28113e-20)
(0.0155826 -0.0233698 -3.18325e-20)
(0.957382 0.033915 0)
(1.0002 0.00382656 5.35538e-21)
(0.0684992 0.0002251 0)
(0.894892 0.0455674 0)
(1.03003 0.00642028 -3.89421e-22)
(0.974146 0.036565 -9.94111e-21)
(1.0478 0.0132874 0)
(0.031007 -0.011734 -7.39301e-22)
(1.03884 0.0463178 -3.0199e-21)
(1.05103 -0.00804488 0)
(1.05245 0.0103332 0)
(0.563731 0.00308535 8.43007e-20)
(0.999084 0.000739691 0)
(1.13607 0.0353433 3.36546e-20)
(0.999093 0.0096626 0)
(1.09153 0.340599 2.3794e-20)
(0.558531 0.201994 0)
(1.0658 0.0742682 -1.13563e-20)
(0.932117 0.0444106 2.83952e-23)
(1.04707 -0.00808981 0)
(0.968812 0.00561458 0)
(1.05101 0.00903884 -1.16217e-20)
(0.999953 0.000517042 0)
(1.02925 0.0194525 2.55826e-22)
(0.899937 0.090478 -1.83785e-20)
(0.704837 0.163724 -4.59765e-20)
(1.00036 0.000166827 -8.9652e-21)
(1.04233 0.0109865 -2.02425e-21)
(1.15661 -0.0134849 6.04734e-20)
(0.997159 0.00110336 0)
(1.05566 0.0176898 0)
(1.03106 0.0372406 0)
(0.746792 0.00621726 2.4437e-21)
(1.12655 -0.00173163 -5.74593e-20)
(1.06059 0.00657296 -1.47087e-20)
(1.03088 0.00662738 -4.99798e-24)
(-0.198684 -0.0111381 0)
(0.935562 0.0447542 4.25657e-23)
(1.05117 0.0085731 -3.31477e-21)
(0.313493 -0.0456717 1.7807e-20)
(0.838633 0.11965 -6.47732e-20)
(1.04973 0.0104887 0)
(1.03206 0.00811663 -1.85837e-22)
(1.04079 0.0378738 3.52482e-21)
(1.00425 0.000153068 5.45419e-21)
(1.21273 0.185395 0)
(1.00038 0.00425495 -1.58905e-20)
(1.02657 0.047781 0)
(0.9858 0.00190341 0)
(1.01681 0.012106 -1.81841e-21)
(0.770386 0.00548699 -7.74676e-21)
(1.00288 0.0207855 -6.03522e-21)
(0.978054 0.0388485 1.47883e-20)
(1.0517 0.00874565 4.17894e-21)
(0.270572 -0.0298662 -1.53649e-21)
(1.02136 0.0198302 0)
(1.03619 0.0256463 7.3327e-22)
(1.01376 0.00973978 2.86006e-23)
(1.05036 0.0128162 9.52747e-21)
(-0.198677 -0.0145052 -4.085e-23)
(0.88418 -0.0477636 2.45063e-22)
(1.01798 0.390377 0)
(1.03984 0.0445624 -1.85986e-21)
(0.570421 -0.00874421 8.40185e-22)
(1.03675 0.0477809 -2.3243e-21)
(1.04102 0.0108886 0)
(0.999965 0.000476124 4.78254e-21)
(1.01711 0.000284275 2.78819e-21)
(1.003 0.0246883 -7.23418e-21)
(1.01485 0.000188487 -1.11449e-22)
(0.914221 -0.0332156 0)
(1.04964 0.0226092 7.26231e-21)
(0.999932 0.00062709 -5.03613e-21)
(1.19036 0.0285576 5.66795e-20)
(1.01415 0.00968092 -3.49496e-21)
(1.16658 0.0137443 -2.84199e-20)
(1.06715 -0.0201974 0)
(1.05502 0.0113481 -1.61689e-21)
(1.20262 0.0164253 0)
(1.05489 0.0161351 0)
(0.667826 -0.0173463 4.87423e-21)
(1.06009 0.00627294 1.09284e-20)
(0.965886 0.0132384 0)
(1.00004 0.000644794 -4.42434e-21)
(0.906286 0.089853 -4.38612e-20)
(1.02219 0.0323709 0)
(1.01912 0.0202544 -2.50349e-21)
(-0.181583 -0.0142379 -5.99915e-20)
(1.05207 0.0122342 -6.0674e-21)
(0.970455 0.00227473 0)
(1.06807 0.0375704 0)
(0.303056 0.000509607 0)
(0.486957 -0.0365713 3.5845e-22)
(1.06382 0.0144583 1.09432e-20)
(1.05391 0.01623 0)
(1.0406 0.059533 -5.03763e-21)
(1.04877 0.0082939 0)
(1.04156 0.00807586 0)
(0.921615 0.0600893 -2.12274e-20)
(-0.162134 -0.0165145 -9.45288e-20)
(0.984749 0.0148762 -8.0205e-23)
(1.02201 0.0198818 0)
(1.07428 0.0556359 2.29207e-20)
(0.917491 0.0610313 0)
(1.05876 0.0166393 3.51585e-21)
(1.07978 0.0416248 -2.67063e-20)
(1.01497 0.000753335 -3.16755e-21)
(1.04926 0.0938464 -1.33259e-20)
(0.999919 0.000591395 2.99525e-21)
(0.985836 0.00108537 0)
(0.511596 0.0138589 -1.36193e-21)
(1.06475 0.0144837 -1.33432e-20)
(1.00306 0.0238587 0)
(1.13066 0.0310444 3.22868e-20)
(0.977369 0.037713 -6.82858e-21)
(1.00351 0.00974363 -6.79328e-21)
(0.898007 0.16877 4.9704e-20)
(0.499109 -0.027159 -1.85794e-21)
(0.994671 -2.26843e-05 1.80566e-21)
(0.998354 0.00897764 -9.19884e-21)
(1.01105 0.00154316 5.22402e-21)
(1.02927 0.0179328 -1.83696e-22)
(0.490693 0.0114542 0)
(0.995104 0.000142576 -1.30566e-21)
(0.967571 0.0141326 0)
(1.17755 0.0149201 0)
(1.01098 0.0321176 0)
(1.009 0.0452053 -2.29414e-21)
(0.138655 -0.0233412 4.30809e-20)
(0.996446 0.00281255 9.79825e-21)
(1.20868 0.0248414 -1.82535e-20)
(1.02188 0.00454936 -1.71386e-21)
(1.04123 0.00386917 3.41378e-21)
(0.488744 0.0137243 0)
(1.06027 0.0166798 0)
(0.972817 0.00370102 9.41392e-21)
(0.996873 0.000436186 8.9679e-21)
(1.05245 0.0106098 0)
(1.04566 0.0116038 0)
(1.02119 0.00454154 2.02224e-21)
(0.982422 0.0556604 -2.19067e-22)
(1.01146 0.000792831 2.44468e-21)
(1.04979 0.090679 3.83283e-21)
(1.03188 0.00846932 -4.82086e-22)
(1.07289 0.0536782 -2.29485e-20)
(1.05835 0.0133453 -9.6915e-21)
(1.04193 0.011079 0)
(-0.0457326 -0.0215469 -4.55069e-20)
(1.05006 0.0106863 0)
(0.810922 -0.0351296 -2.37589e-20)
(0.997899 0.0743376 -8.17407e-21)
(1.02226 0.00469827 8.30079e-22)
(1.08309 -0.00473458 -8.93371e-21)
(0.998969 0.00568945 0)
(1.04992 0.0103614 5.07184e-21)
(1.14139 0.0165671 0)
(0.896407 0.0742458 -6.01208e-20)
(1.04246 0.00383086 0)
(0.602744 -0.00978758 0)
(1.00329 0.00051928 5.42012e-21)
(0.417431 -0.00251518 -4.44513e-20)
(1.08221 -0.00153657 -9.44607e-21)
(1.04928 0.023058 -6.29598e-21)
(0.930306 0.0398515 -1.58076e-20)
(0.235615 -0.0408595 5.63493e-20)
(0.462666 -0.0504986 -1.23436e-20)
(1.02191 0.00611484 0)
(1.00615 0.00133597 1.8141e-21)
(1.00539 0.00839108 4.92261e-21)
(1.15276 0.0291899 -2.7014e-20)
(1.12627 0.04794 0)
(0.0487815 -0.0238725 -5.52725e-21)
(-0.0764403 -0.00968838 0)
(0.998665 0.00898298 -7.79244e-21)
(1.05388 0.00673428 0)
(0.724504 0.292905 4.47858e-20)
(1.06118 -0.00843702 0)
(1.05109 0.00857167 3.80321e-21)
(1.05006 0.0131131 0)
(1.05703 0.0458297 -3.419e-21)
(1.03059 0.0149028 -5.19459e-22)
(1.04496 0.0120093 -3.7945e-21)
(0.351661 -0.0449183 -1.67201e-20)
(1.07051 0.0540582 2.79684e-22)
(1.05343 0.0122759 -2.2342e-21)
(1.02087 0.00467378 -2.34705e-21)
(1.00538 0.00818448 5.25572e-21)
(1.03408 0.0114991 0)
(1.06319 0.0724347 0)
(1.00966 0.00694669 7.42735e-21)
(1.04359 -0.00100258 -3.58465e-21)
(1.00012 0.00381038 -6.85728e-21)
(0.466147 0.0136413 -4.82148e-21)
(1.06803 -0.021296 -1.03745e-20)
(1.04717 0.0889466 2.6183e-21)
(0.705973 0.176145 0)
(1.03015 0.0151135 2.34614e-22)
(0.999099 0.0178134 0)
(0.596305 -0.00926766 -3.13032e-21)
(1.04454 0.0136154 6.69776e-21)
(0.469119 0.0141243 5.27204e-22)
(1.00811 0.00816921 -7.51028e-21)
(1.03449 0.0113301 -6.18026e-23)
(1.00935 0.0221353 8.77223e-21)
(1.00004 0.000170894 9.69355e-21)
(1.0546 0.00756214 -1.44855e-21)
(1.05562 0.016992 0)
(0.00113345 -0.0246644 3.34792e-23)
(-0.0976156 -0.0110126 9.54437e-20)
(0.996806 0.000860725 0)
(1.04012 0.0155291 5.83327e-21)
(1.05383 0.0166877 6.62862e-22)
(1.07135 -0.00448756 -1.54541e-20)
(0.999235 0.209178 7.50057e-23)
(1.02204 0.0985121 0)
(1.03251 0.0120601 -1.77479e-21)
(1.10261 0.412799 0)
(0.991933 0.0661998 6.33852e-21)
(0.959761 -0.0455609 3.17589e-20)
(1.02463 0.0106145 1.17761e-21)
(1.13227 -0.00991151 1.18341e-20)
(0.427809 0.0106286 -1.043e-21)
(1.00976 0.00670689 -4.04977e-21)
(0.996541 0.0188918 6.01883e-21)
(1.06025 0.132378 -8.43198e-21)
(1.00001 -0.000263406 8.50781e-21)
(1.02154 0.00472864 -6.28758e-23)
(1.08021 0.0455301 0)
(1.04039 0.0196112 1.19537e-22)
(0.593035 0.0144304 4.03483e-21)
(1.07887 0.015413 0)
(1.09865 -0.0285592 0)
(1.00307 0.0200019 0)
(1.12331 -0.014982 2.26043e-20)
(0.75578 0.552558 0)
(1.06424 0.130887 4.77788e-22)
(1.00001 -0.000227154 0)
(0.544422 0.0133547 -5.0068e-21)
(1.01344 0.0219355 1.87157e-21)
(1.05063 0.00400592 0)
(0.99535 0.00337468 -1.21742e-20)
(0.998991 0.000361276 0)
(0.551629 0.0155647 5.19098e-21)
(1.04848 0.00501811 3.86049e-21)
(1.05467 0.00458506 3.44779e-21)
(1.05417 0.00687751 0)
(0.994292 0.106428 -1.47617e-20)
(1.02663 0.00787454 0)
(0.545306 -0.0212848 -2.90944e-21)
(1.00378 0.0121471 8.10747e-21)
(1.11303 0.0814507 -4.59598e-20)
(1.18637 0.015439 -2.39549e-20)
(1.05362 0.0158708 1.22505e-20)
(1.01044 0.00575234 -3.23838e-21)
(0.992283 0.0139793 -8.48415e-21)
(1.05128 0.00964806 -6.42648e-21)
(1.05872 0.0461841 -3.70457e-21)
(1.00004 0.00106234 0)
(1.12387 0.054533 0)
(0.798416 0.244724 0)
(1.05484 0.0118348 1.80922e-21)
(0.992021 -0.00817975 -8.22104e-21)
(-0.00589146 -0.0037769 3.82997e-20)
(0.448185 -0.025637 7.78647e-21)
(1.12158 0.323028 0)
(0.994456 0.0155239 0)
(0.904075 0.173111 1.44638e-20)
(1.02251 0.00663005 1.48844e-21)
(1.03845 0.0203503 -3.06602e-21)
(0.946505 0.147217 1.84184e-20)
(0.317487 0.00368602 2.22204e-21)
(0.947327 0.109925 -1.91106e-20)
(0.498175 -0.0123246 1.92886e-21)
(0.90142 0.1585 -3.99909e-20)
(1.08789 -0.00695424 0)
(1.044 0.0120739 2.0399e-21)
(1.02193 0.0331718 0)
(0.368267 -0.0457258 2.88538e-20)
(1.18086 0.0859051 5.44764e-20)
(1.00496 0.00710408 -2.89237e-21)
(1.05251 0.0127333 -4.25991e-21)
(1.08429 -0.00566795 -2.78643e-21)
(1.06027 0.0322446 -1.44223e-20)
(0.947521 0.115538 5.05333e-21)
(1.03931 0.0576102 9.03786e-22)
(1.02338 0.101207 8.39905e-23)
(1.0878 -0.0339891 0)
(1.01098 0.00546225 -6.45851e-21)
(1.07919 0.0380819 -1.7194e-20)
(1.00741 0.0012461 7.90999e-21)
(1.03197 0.0303308 -6.76539e-23)
(0.784881 0.0061859 -2.12607e-21)
(0.440315 -0.0369686 7.04479e-21)
(1.08798 0.114799 2.26415e-20)
(0.986807 0.00261593 0)
(1.01477 0.00142927 -4.61147e-21)
(1.02109 0.00607586 3.24006e-21)
(0.999672 0.0641313 8.93738e-21)
(0.846988 0.102635 2.79001e-20)
(0.159424 -0.0368644 3.23927e-20)
(1.0763 0.0135442 0)
(1.153 0.0256037 3.00228e-20)
(0.453976 0.0151095 0)
(1.1035 0.0805844 0)
(0.985332 0.104204 -2.23678e-20)
(0.544174 0.0147091 6.12656e-21)
(1.01232 0.0355415 9.67171e-22)
(0.444336 -0.0173421 -2.83733e-21)
(1.02904 0.0478113 1.88362e-22)
(1.0042 0.000851541 0)
(0.987144 0.0102019 -3.46783e-21)
(1.0518 0.0125328 -1.43957e-20)
(1.10637 0.0419597 4.55277e-21)
(1.01076 0.00189212 3.00024e-21)
(0.926532 0.0401584 -9.45001e-21)
(1.07604 0.0331085 -8.72912e-21)
(1.13018 0.0384086 3.15611e-20)
(0.983784 0.101872 1.88299e-20)
(1.04255 0.0078609 -5.27019e-21)
(1.01259 0.0335741 -1.2453e-20)
(1.04362 0.0079965 2.91321e-21)
(1.05086 0.00907307 0)
(1.06256 0.0136666 0)
(1.05184 0.00955306 1.29303e-20)
(1.0005 0.000247464 0)
(0.979596 0.0257483 -2.24322e-20)
(-0.211937 -0.0138055 7.37892e-21)
(0.542884 -0.0195593 4.8916e-21)
(1.00334 0.03507 -1.0051e-20)
(1.04877 0.00491599 0)
(0.986613 0.0031832 4.17906e-21)
(1.0186 0.00751723 -2.04137e-21)
(0.992503 -0.0076933 1.48286e-20)
(0.999034 0.0667601 -1.52727e-20)
(1.05074 0.012279 0)
(1.01861 0.0196484 2.05778e-21)
(0.972463 0.128409 4.50631e-21)
(1.03225 0.0132778 0)
(1.04274 0.0593834 5.05032e-21)
(0.992172 0.0147612 0)
(1.08046 0.0497341 6.85078e-21)
(1.04463 0.0139453 9.27627e-23)
(1.01036 0.00607525 -7.20855e-23)
(0.992047 -0.00327729 -1.35424e-20)
(1.07764 0.0158117 0)
(1.07553 0.0276513 0)
(1.24803 0.129578 -7.91243e-22)
(1.05473 0.0161138 -3.49005e-21)
(1.00502 0.00693436 2.77534e-21)
(0.998773 0.00956963 6.57513e-21)
(1.00418 0.000628414 6.70975e-21)
(0.745931 0.00887611 0)
(0.90024 0.0481446 -2.68877e-20)
(1.09567 0.0382474 -3.42186e-20)
(0.387462 -0.0338545 3.45903e-21)
(1.02163 0.104948 1.39334e-21)
(1.05324 0.0169986 -5.48714e-22)
(0.788187 0.00795566 -2.58532e-21)
(1.00959 0.0228881 -1.07207e-20)
(1.00384 0.0117159 8.35236e-21)
(1.00305 0.000908569 0)
(1.03226 0.0123918 1.44611e-21)
(1.07088 -0.00569324 4.33703e-21)
(1.01122 0.000691688 0)
(1.017 0.00631588 0)
(1.12807 -0.0194561 1.3488e-20)
(1.06009 -0.00463491 0)
(0.928999 0.0640521 -3.21245e-20)
(1.03415 0.00786309 -1.40476e-21)
(0.723958 0.00629768 4.10354e-22)
(0.0707952 0.0235993 -1.47209e-19)
(1.05647 0.00754261 5.40711e-21)
(1.02086 0.0775706 -2.33342e-22)
(1.05635 0.0179926 0)
(1.04978 0.0140349 0)
(1.1007 0.0831108 0)
(0.991531 -0.00274267 1.01207e-21)
(1.13094 -0.0181816 -2.49904e-20)
(1.04779 0.00916311 -6.37612e-21)
(-0.148704 0.00836342 1.3665e-19)
(0.994427 0.0654841 -1.03649e-20)
(1.01704 0.110646 -1.48003e-21)
(1.06075 0.411811 3.24051e-20)
(1.00687 0.000708108 0)
(1.1402 -0.013829 2.44983e-20)
(1.04272 0.0195352 0)
(1.00003 0.000188321 -6.98213e-21)
(0.227913 -0.0444965 -3.91768e-20)
(1.05122 0.0097698 0)
(0.702505 0.197709 0)
(0.608589 0.01353 -3.80349e-21)
(1.13837 0.0519432 3.66772e-20)
(1.00249 0.0193728 5.90215e-21)
(0.724756 0.00890397 4.29447e-22)
(1.00761 0.00882341 0)
(0.984521 0.0544223 1.87548e-22)
(1.04918 0.0166657 1.27374e-20)
(1.03962 0.0384639 -3.3563e-21)
(0.999649 -0.000564284 0)
(-0.0454715 0.0127989 0)
(0.379763 -0.0462754 1.6673e-20)
(1.05126 0.00830497 -8.29794e-22)
(1.04883 0.0138712 0)
(1.01313 0.0766261 -1.51534e-21)
(0.440124 0.00914188 0)
(1.20994 0.0314442 -5.47612e-20)
(1.02067 0.113091 1.99855e-21)
(0.430499 -0.0339787 8.12931e-21)
(1.04303 0.0191762 0)
(1.00737 0.0008777 -2.30931e-21)
(1.02041 0.0125007 0)
(0.997136 0.00148484 0)
(0.985918 0.0164456 -2.58043e-20)
(0.452941 0.0166319 8.20238e-22)
(1.05342 0.0133928 -1.05605e-20)
(-0.0364087 -0.0211435 4.39534e-20)
(1.0426 -0.00153205 -8.53892e-22)
(1.00687 0.000293811 -1.68996e-22)
(1.07382 0.0126139 0)
(0.90949 0.107505 6.83167e-20)
(1.01936 0.000301063 1.79524e-21)
(1.03111 0.0301655 -1.23998e-24)
(0.334809 -0.0359911 -1.96858e-20)
(0.148899 0.000816747 0)
(1.03804 0.0260453 -4.60273e-21)
(1.09657 0.039989 9.50745e-21)
(1.01311 0.0418261 1.21374e-22)
(1.00256 0.0086596 1.47357e-20)
(1.07977 0.0360222 9.33979e-21)
(1.04766 0.0126389 -3.5811e-21)
(0.495712 -0.0268154 0)
(1.12464 0.00932854 3.52307e-20)
(1.04113 0.0136651 -1.67761e-21)
(1.02094 -0.00187191 -1.02191e-21)
(0.979712 0.0999115 2.20181e-20)
(1.04322 0.011541 -2.12693e-21)
(1.00036 0.00347174 1.05112e-20)
(0.773376 0.377943 0)
(1.06641 -0.00528387 -6.32444e-21)
(1.03349 0.0111217 1.00416e-21)
(1.05094 0.0126424 0)
(0.157945 0.00103635 0)
(0.995043 0.0151182 -7.76624e-21)
(0.98564 0.187415 0)
(1.02632 0.0112588 -1.04205e-21)
(0.439965 0.015224 -4.08482e-21)
(0.994814 0.186775 -1.81589e-21)
(0.991527 0.0422385 -1.56705e-20)
(1.01556 0.0410342 0)
(1.03281 0.00879277 -1.7633e-21)
(1.01296 0.000834764 2.62379e-21)
(1.01849 0.0764063 0)
(0.506517 0.206049 0)
(1.01458 0.0215512 3.69198e-21)
(1.03349 0.0120594 0)
(1.04978 0.00859893 0)
(0.988709 0.0407775 -1.87732e-20)
(-0.0126589 -0.025834 0)
(0.984126 0.220183 -2.79719e-21)
(0.996452 0.00625049 0)
(1.01507 0.00120024 3.33971e-21)
(0.9844 0.0138033 -3.44024e-21)
(0.845165 0.0938534 -1.63173e-20)
(1.00556 0.0353232 -8.35431e-21)
(1.00447 0.00305814 -7.78839e-21)
(1.04451 0.00852914 -9.0912e-22)
(1.10442 -0.0323992 -8.03398e-21)
(1.00156 0.00664593 0)
(1.02599 0.00747561 2.43636e-22)
(1.07583 0.0243534 0)
(0.537723 0.0160139 4.03168e-21)
(0.999885 0.0061639 1.80571e-21)
(1.03646 0.00769362 1.19974e-21)
(1.02947 0.0184941 0)
(1.04773 0.00956733 1.83922e-21)
(1.01739 0.00665548 0)
(0.0481202 -0.0140113 -1.02577e-20)
(1.0819 0.0515794 0)
(1.05486 0.00780476 -3.06444e-21)
(1.08752 0.42463 -1.53339e-20)
(0.957157 0.728235 -3.06498e-20)
(1.03304 0.0118777 4.74216e-22)
(1.19201 0.247205 0)
(1.02038 0.00169363 8.20768e-22)
(0.759012 0.00940624 0)
(1.06545 0.02333 -1.00115e-20)
(1.05087 0.0135706 0)
(0.995552 0.00100854 -9.78486e-21)
(0.987235 0.0107964 0)
(0.0718494 -0.00896404 0)
(0.971153 0.0034992 1.04153e-20)
(0.867657 -0.00631878 2.24715e-23)
(1.00252 0.00824839 -1.22728e-20)
(1.05524 0.00453473 2.43254e-20)
(0.519547 0.0147797 -1.63403e-21)
(0.112394 -0.00620308 0)
(1.11892 0.00703078 0)
(0.998924 0.000567245 0)
(0.562943 0.0127774 0)
(0.999999 1.91038e-05 1.12217e-20)
(1.01521 0.0217599 0)
(1.04972 0.00880394 5.74788e-21)
(1.22573 0.303023 3.56145e-20)
(0.969758 0.016904 0)
(1.15979 0.0418279 -2.45993e-20)
(1.0504 0.00901878 9.27766e-21)
(0.993269 0.0418851 -1.38301e-20)
(1.053 0.013278 5.27353e-21)
(1.00002 0.000535045 8.84196e-21)
(1.0078 0.0442811 -5.08432e-21)
(0.985343 0.017179 2.53962e-20)
(1.00633 0.000295642 1.08727e-22)
(1.00419 0.00304543 1.16105e-20)
(1.14659 0.0934034 3.39175e-20)
(0.996519 0.00010833 -9.16553e-21)
(1.07728 0.0267676 0)
(1.04506 0.0109482 3.32316e-21)
(0.509342 0.202679 -2.99022e-20)
(0.999996 -0.000137081 0)
(1.10491 -0.031938 -7.56257e-21)
(1.02307 0.00908435 6.53488e-22)
(0.836863 0.110976 1.60791e-20)
(1.05072 0.00866816 -2.79952e-21)
(1.10285 0.00172645 1.48464e-20)
(1.06337 0.0136377 -3.02253e-21)
(1.09809 0.0980614 1.97833e-20)
(1.05992 0.0370752 6.47993e-21)
(1.04859 0.00816836 1.12279e-20)
(0.999977 -0.000506824 0)
(1.05222 0.0130909 3.67021e-21)
(1.08382 -0.00768117 -1.38749e-20)
(0.924348 0.0643318 1.17562e-20)
(1.0123 0.000759436 -8.20162e-22)
(1.01828 0.00691169 2.21729e-21)
(0.17563 -0.0263774 -4.51454e-20)
(1.04989 0.010075 6.69958e-21)
(1.0806 0.0395886 9.25804e-21)
(1.02984 0.0160249 -1.52199e-22)
(1.00658 0.000875686 2.74133e-21)
(1.13437 0.0312896 -3.51913e-20)
(1.04909 0.00988912 5.91496e-21)
(0.789894 0.00916638 0)
(0.328664 -0.014224 8.14085e-21)
(1.05959 -0.00541741 -5.35226e-21)
(1.06149 0.00737257 -1.19285e-20)
(0.0599247 -0.0246129 -3.98683e-20)
(1.02547 0.0073807 -2.78284e-22)
(1.00022 0.000180252 -6.8737e-21)
(0.401339 0.0129085 1.40074e-21)
(1.06533 0.0244559 1.21748e-20)
(1.04636 0.422958 0)
(1.0547 0.00459871 -3.50809e-21)
(0.996747 0.00175822 -9.18037e-21)
(1.01875 0.000468973 0)
(1.05004 0.00383209 -3.65326e-21)
(1.01987 0.0122321 0)
(0.631512 0.0125463 4.08318e-21)
(1.04652 0.00782617 0)
(1.05038 0.00912864 -3.23618e-21)
(1.02343 0.0128841 1.0978e-21)
(1.04787 0.0140191 5.93902e-22)
(1.00026 0.00160436 0)
(1.21085 0.0264625 4.62136e-20)
(1.03303 0.0112841 -8.3192e-22)
(1.0249 0.0191707 1.16915e-21)
(0.870748 0.271217 1.05752e-20)
(1.1231 0.0125183 -7.96175e-21)
(1.04293 0.011307 4.14146e-21)
(0.0713486 -0.0222394 9.4254e-21)
(0.982287 0.227445 -4.32898e-21)
(0.878756 -0.00546733 -5.31579e-21)
(0.886933 0.00943125 -4.89778e-20)