/*--------------------------------*- C++ -*----------------------------------*\
| =========                 |                                                 |
| \\      /  F ield         | OpenFOAM: The Open Source CFD Toolbox           |
|  \\    /   O peration     | Version:  v2012                                 |
|   \\  /    A nd           | Website:  www.openfoam.com                      |
|    \\/     M anipulation  |                                                 |
\*---------------------------------------------------------------------------*/
FoamFile
{
    version     2.0;
    format      ascii;
    class       volVectorField;
    location    "200";
    object      ddt0(U);
}
// * * * * * * * * * * * * * * * * * * * * * * * * * * * * * * * * * * * * * //

dimensions      [0 1 -2 0 0 0 0];


internalField   nonuniform List<vector> 
14804
(
(-2.92185e-06 -2.25132e-06 3.5726e-24)
(-3.40169e-06 1.67635e-07 2.18896e-23)
(-2.65197e-05 -8.76513e-07 -8.06007e-25)
(-2.76397e-06 5.07702e-07 -4.16752e-23)
(4.39651e-06 -4.22015e-08 -1.19342e-22)
(2.08113e-06 2.14094e-06 0)
(-1.88319e-05 -1.15225e-06 0)
(4.83678e-06 1.03417e-06 0)
(-7.19092e-06 8.77132e-06 7.63374e-24)
(-5.09442e-06 -6.94372e-06 2.82577e-25)
(0.000109628 1.88836e-05 -1.56264e-24)
(-2.31266e-05 3.94007e-05 1.01648e-22)
(0.000225134 0.000274628 1.4486e-23)
(3.09309e-05 1.59727e-05 2.23925e-24)
(-2.23339e-05 -2.04226e-06 -2.43983e-22)
(2.16441e-06 1.17368e-06 -3.21236e-25)
(-1.44347e-05 -3.54759e-07 2.104e-25)
(2.73409e-05 1.33418e-05 -1.17149e-23)
(2.18307e-06 1.14861e-06 0)
(-2.76489e-06 -2.11189e-06 -1.62767e-25)
(-3.34578e-06 1.36367e-06 -2.85542e-23)
(4.39831e-06 5.4266e-09 4.18727e-22)
(-1.47e-05 2.48908e-05 4.12764e-23)
(2.29342e-06 1.32985e-06 -2.28962e-22)
(0.000228399 0.000253245 -3.07504e-24)
(-1.93863e-05 -1.09996e-06 -2.71797e-22)
(-1.85693e-05 -1.01012e-06 0)
(-3.90389e-07 1.29279e-06 -1.47052e-22)
(-2.23593e-05 -2.10098e-06 2.73246e-22)
(-2.62397e-05 1.73353e-06 0)
(-4.36472e-05 4.75874e-05 -1.23814e-22)
(-1.42431e-05 -7.62853e-07 -5.63528e-23)
(3.61447e-06 6.16326e-07 -2.92799e-22)
(4.82342e-06 1.08435e-06 0)
(-2.81055e-05 -4.00183e-06 -8.69084e-23)
(-2.66663e-06 6.44287e-07 0)
(-5.28339e-07 2.66587e-07 6.66081e-23)
(2.20893e-06 1.33121e-06 2.24125e-22)
(1.44979e-05 9.25112e-06 -8.29189e-23)
(-1.6699e-06 -2.08706e-06 3.16874e-24)
(1.55438e-05 7.52672e-06 0)
(9.49925e-06 6.30059e-06 -4.29811e-22)
(5.47179e-06 7.07114e-06 0)
(2.40788e-06 4.01597e-07 0)
(3.07886e-05 1.3651e-05 0)
(3.0223e-05 1.59603e-05 0)
(1.36447e-05 1.37318e-06 0)
(-2.71053e-06 4.70096e-07 2.10216e-23)
(2.94771e-06 4.7011e-06 1.76595e-22)
(-3.41227e-06 1.36185e-06 2.33783e-23)
(3.66708e-07 1.13659e-06 6.4514e-24)
(-2.27059e-06 5.43301e-08 4.17074e-23)
(-8.88748e-06 -6.38314e-08 -1.0287e-23)
(-1.05699e-05 2.96639e-05 0)
(3.67082e-06 6.60653e-07 6.5882e-22)
(-4.49352e-07 1.26881e-06 1.31524e-22)
(-1.91578e-05 -9.49538e-07 0)
(-1.46964e-05 -2.39445e-07 -8.72195e-23)
(-2.49019e-06 6.2314e-05 -1.7884e-23)
(0.00021231 0.000212593 -1.13423e-23)
(-1.43156e-05 -7.99941e-07 0)
(-2.76632e-05 -4.03495e-06 1.99614e-22)
(-2.31238e-06 -2.38018e-06 -4.96665e-24)
(-3.47623e-06 1.51243e-07 -1.94201e-23)
(2.86232e-06 2.92087e-07 2.23867e-22)
(-1.74655e-05 3.80991e-05 -1.17582e-22)
(0.000172793 -0.000243702 2.56039e-24)
(-4.45542e-06 -5.11493e-06 -8.46613e-24)
(-5.47239e-06 -6.78896e-06 -1.63933e-25)
(2.32547e-06 1.72983e-06 -9.15228e-23)
(2.8401e-06 1.29052e-06 -1.49717e-22)
(-3.78135e-06 -3.43639e-06 -8.89393e-24)
(2.87227e-06 1.32141e-07 -1.31272e-22)
(5.67659e-06 1.48118e-06 -1.8843e-22)
(-2.60025e-05 -4.80635e-07 4.46093e-23)
(3.36613e-07 1.14346e-06 1.02936e-22)
(1.37798e-06 7.10538e-07 0)
(4.09057e-06 4.05723e-06 4.55208e-23)
(1.30301e-06 -2.98553e-06 0)
(6.88665e-06 1.40224e-05 -5.15871e-23)
(5.42327e-06 1.29385e-05 0)
(5.46399e-05 7.37779e-05 3.63441e-25)
(5.8018e-06 5.31705e-07 3.05852e-22)
(-2.22899e-05 -4.82821e-07 0)
(-1.25048e-06 1.3975e-08 0)
(1.31118e-06 8.75526e-07 4.47498e-23)
(-3.37478e-06 2.65195e-08 0)
(-1.96709e-06 7.49215e-07 0)
(4.03637e-06 1.15979e-06 -1.84903e-22)
(4.05525e-06 1.09882e-06 -1.90822e-22)
(-4.53479e-06 1.68011e-05 6.63101e-23)
(-2.00283e-06 6.93066e-07 0)
(-1.74656e-06 -1.88739e-06 -1.00591e-24)
(5.86692e-07 5.40272e-07 1.17244e-22)
(-6.3705e-06 -6.51481e-06 -5.49426e-25)
(-2.66278e-05 2.40043e-06 1.3182e-22)
(-2.79571e-06 5.74829e-08 8.60384e-24)
(2.93647e-05 8.84453e-06 -2.87181e-24)
(2.7054e-06 1.60013e-06 1.11886e-22)
(3.30199e-05 8.075e-05 0)
(3.31683e-05 7.3848e-06 0)
(-1.96319e-05 1.75624e-06 -2.37239e-24)
(7.74855e-06 3.68896e-07 -4.32977e-22)
(2.93433e-06 2.77787e-07 -2.926e-22)
(7.60507e-06 5.44299e-07 2.31876e-23)
(0.000200622 0.000304603 -3.3551e-24)
(1.13017e-06 2.04048e-06 6.36257e-23)
(-2.70641e-06 5.14648e-08 -3.64041e-24)
(2.73814e-06 1.55433e-06 -2.2976e-22)
(3.9437e-07 1.04585e-05 -1.89037e-23)
(-2.97045e-06 7.1207e-08 0)
(1.09137e-06 1.9998e-06 -1.14542e-22)
(-6.64959e-05 -6.6182e-05 -5.83401e-23)
(5.40521e-06 1.05236e-06 2.90899e-22)
(3.17441e-06 1.42976e-06 -1.06113e-22)
(-2.86344e-05 -1.37864e-06 5.1727e-22)
(1.2324e-05 1.34206e-06 -2.11093e-22)
(5.23673e-06 7.50847e-06 0)
(2.22871e-06 1.24884e-06 -1.6128e-22)
(-5.6327e-06 -1.59409e-06 5.3801e-24)
(-2.65471e-05 -6.62827e-07 0)
(7.57282e-06 8.34113e-07 0)
(5.79802e-07 5.17919e-07 -6.43102e-23)
(5.90988e-06 5.32337e-07 -1.15203e-22)
(2.23803e-06 1.21477e-06 2.91551e-22)
(5.54691e-06 1.0727e-06 -3.88665e-22)
(-3.75605e-06 5.38823e-08 1.39551e-23)
(-3.12608e-06 -1.62929e-07 0)
(4.65965e-06 1.00264e-06 0)
(-2.59266e-05 1.87388e-06 3.67229e-23)
(-4.46352e-06 -2.71847e-07 -3.77989e-24)
(-2.67861e-05 2.44744e-06 -2.21482e-24)
(-8.17458e-06 6.50561e-06 7.26857e-24)
(-6.2333e-05 -1.95465e-05 -7.04449e-23)
(-8.88118e-06 -4.83962e-07 1.40561e-23)
(-1.33288e-05 2.16601e-05 8.1152e-25)
(-5.14929e-06 -2.55716e-05 3.89776e-22)
(2.07584e-05 -2.173e-05 0)
(-2.68961e-05 -9.19453e-07 0)
(1.67401e-05 2.91737e-05 -2.6704e-23)
(-4.98476e-07 2.30594e-07 0)
(-1.01461e-05 4.06284e-06 0)
(1.77858e-05 -1.59114e-05 0)
(2.48261e-06 3.8942e-07 0)
(-0.000119119 7.28402e-05 -4.26486e-22)
(8.88873e-07 1.77007e-06 -2.2036e-23)
(1.0345e-05 1.42399e-06 1.8549e-22)
(1.98916e-05 8.81401e-06 -3.1891e-22)
(-2.16276e-05 -1.0701e-06 0)
(1.04677e-06 1.835e-06 8.78986e-23)
(0.000116761 -0.000465686 -2.16088e-24)
(-4.48819e-06 -2.58017e-07 3.31885e-24)
(6.24841e-06 3.77706e-08 0)
(0.000268886 -0.000169969 6.46613e-23)
(-3.14975e-06 -2.27132e-06 -5.17692e-24)
(-4.5298e-06 -2.20919e-07 1.33193e-24)
(0.000221621 0.000164496 -8.46244e-25)
(2.95284e-06 5.55764e-07 2.5545e-22)
(1.19665e-06 1.04768e-06 0)
(-2.17402e-05 -1.25103e-06 0)
(9.85603e-08 1.0971e-06 1.12156e-22)
(-7.19282e-06 -2.35549e-06 9.48262e-24)
(-3.13184e-06 -1.5592e-07 -3.64169e-24)
(-1.01502e-05 5.74964e-06 -1.31228e-23)
(3.48474e-06 1.23893e-06 -4.83879e-22)
(3.54832e-06 -5.47424e-05 -3.154e-24)
(-3.597e-06 -6.85291e-08 -3.76938e-25)
(-6.12856e-06 -6.40194e-06 -4.94929e-25)
(0.000163752 -0.000140591 2.1279e-24)
(2.91597e-06 5.89317e-07 -4.24606e-22)
(6.54712e-08 1.10715e-06 -1.30811e-23)
(2.81658e-06 9.95133e-08 8.39821e-23)
(-2.71507e-05 1.29443e-07 1.5015e-22)
(1.40778e-06 1.96552e-06 4.91792e-23)
(-1.47323e-05 -4.12614e-06 0)
(-2.02291e-05 -1.70235e-06 -3.5822e-22)
(-1.37843e-06 6.56027e-06 -1.61271e-22)
(-1.87144e-05 3.23033e-05 -1.41227e-22)
(-2.64142e-05 2.69066e-07 1.28353e-22)
(0.000196585 -0.000153553 -9.92621e-26)
(-8.15984e-06 2.84902e-07 -1.10978e-23)
(2.65951e-06 4.42111e-06 -1.6018e-22)
(9.53922e-07 7.20306e-07 -3.3944e-25)
(-1.40226e-05 5.83675e-05 1.53302e-24)
(-7.37957e-06 -1.06946e-06 1.24564e-23)
(-2.74664e-05 -1.20285e-06 -2.42283e-22)
(-1.00688e-05 1.88333e-05 -1.04785e-22)
(-1.87487e-05 -1.83543e-06 -4.55306e-23)
(-5.84362e-05 -3.12241e-05 3.1978e-23)
(-3.10589e-06 -6.17517e-08 -1.95509e-25)
(-1.2032e-06 1.58379e-06 6.88515e-23)
(-3.04204e-05 -4.36667e-06 -9.57031e-23)
(-3.28566e-05 -2.72247e-05 9.0069e-23)
(0.000100122 -0.000112443 -1.52535e-24)
(9.96143e-06 3.80795e-06 -4.30292e-23)
(2.09703e-06 -4.46741e-05 2.15364e-23)
(-9.87288e-07 8.15747e-08 -2.40059e-24)
(-1.88149e-05 -1.80749e-06 5.27056e-23)
(9.4104e-07 6.91175e-07 0)
(-2.74951e-05 -9.04218e-07 -1.71948e-22)
(7.34368e-07 8.94943e-07 0)
(-1.39323e-06 1.67032e-06 0)
(-7.17195e-06 -2.20706e-06 2.57464e-24)
(-2.70563e-05 -3.47383e-06 0)
(2.20669e-06 2.19987e-06 0)
(7.59717e-06 2.07977e-06 -1.07071e-22)
(-4.99065e-05 4.84358e-05 8.90889e-23)
(0.00022894 0.000111553 1.14188e-23)
(5.78869e-06 1.41363e-06 0)
(5.21098e-07 5.6855e-07 0)
(-3.08673e-06 4.66202e-09 0)
(-2.77604e-05 -1.41443e-06 1.26232e-22)
(-8.61193e-06 3.3401e-06 0)
(-2.75125e-06 5.65772e-07 1.96135e-23)
(-2.7623e-05 -1.34356e-07 6.99726e-23)
(4.68673e-07 6.60961e-08 0)
(8.36228e-05 0.00012709 1.66553e-24)
(7.81009e-07 9.54106e-08 1.89253e-22)
(1.20868e-05 -1.72547e-05 -3.55807e-22)
(0.000245028 0.000147366 -4.52745e-24)
(3.73588e-06 -5.03947e-07 1.82571e-22)
(9.88071e-06 -5.68126e-05 -4.86021e-23)
(-8.75292e-07 1.04276e-07 1.11016e-22)
(0.000224991 -6.5352e-05 -2.17095e-24)
(-1.99398e-05 -2.40326e-06 3.33616e-22)
(7.53231e-06 2.00864e-06 -1.34318e-22)
(-2.03376e-05 -1.71253e-06 3.48099e-22)
(4.87251e-07 7.37358e-08 6.08309e-26)
(-1.02719e-05 -0.000698005 3.03479e-24)
(-1.4168e-06 8.73629e-06 0)
(4.34327e-06 4.14761e-06 0)
(9.65194e-06 -1.62483e-06 -9.02582e-23)
(8.68525e-07 8.53893e-07 2.40666e-22)
(5.66155e-07 5.73609e-07 2.89477e-23)
(2.78047e-05 1.73994e-05 -1.74431e-23)
(1.25293e-06 8.71572e-07 -1.43047e-23)
(-2.83869e-05 -2.16021e-06 0)
(-4.08672e-07 2.56014e-06 -1.01309e-22)
(1.52344e-06 5.29609e-07 0)
(2.49691e-05 8.75032e-06 -1.51115e-24)
(-1.273e-05 1.1066e-05 1.13556e-22)
(2.53e-06 3.77042e-06 -3.99093e-23)
(-2.68903e-05 -4.26011e-05 0)
(-1.50911e-05 -1.41215e-06 -5.51511e-23)
(-1.12958e-06 8.5741e-08 2.03802e-22)
(-3.18336e-06 1.6895e-07 1.71009e-23)
(2.22766e-06 2.33858e-06 1.28667e-22)
(-1.4271e-05 -7.89855e-07 6.83554e-22)
(4.47129e-06 7.79699e-07 -2.44844e-22)
(3.13713e-06 -1.97447e-07 1.6468e-22)
(-2.9916e-05 -1.99029e-06 -1.75191e-25)
(-1.83136e-05 2.49205e-06 -1.52604e-22)
(-8.31392e-06 -1.47286e-08 0)
(1.30009e-06 4.54641e-06 1.61078e-23)
(-2.2064e-06 6.62876e-08 -6.16647e-23)
(-0.000204345 -1.48809e-05 -4.72898e-23)
(-2.2277e-05 -4.68059e-07 0)
(-3.10325e-05 -3.1372e-06 1.21457e-24)
(-2.7319e-05 -1.42884e-06 6.519e-23)
(-1.49749e-05 -1.38586e-06 0)
(1.27106e-06 5.09688e-06 0)
(0.000245903 0.000231239 -3.01948e-24)
(-2.32261e-06 1.16639e-07 3.14927e-23)
(1.60802e-05 0.000105483 -1.09371e-24)
(-1.17798e-06 1.59576e-06 -9.49594e-23)
(-2.07208e-05 -1.06011e-06 1.55365e-22)
(2.88094e-07 3.34674e-07 5.20071e-25)
(-0.000193164 -7.09585e-05 4.2222e-23)
(-2.35849e-05 3.45354e-06 0)
(-2.11224e-06 -2.2204e-06 1.89638e-25)
(6.10286e-07 4.75934e-07 4.02703e-22)
(1.10683e-05 8.66109e-06 7.16204e-23)
(1.39253e-05 -2.16061e-06 0)
(-1.22806e-05 1.04333e-05 -1.38182e-22)
(6.51914e-06 -1.54613e-07 0)
(3.02312e-05 1.06552e-05 3.48908e-23)
(-3.45915e-06 1.44989e-08 -1.2786e-23)
(6.60759e-06 2.46058e-06 0)
(-1.86279e-06 -2.25652e-06 2.25735e-24)
(1.60797e-05 -5.17199e-05 4.38953e-23)
(3.21825e-07 3.32716e-07 -5.93822e-23)
(-2.45269e-05 -2.44772e-06 0)
(8.25349e-07 8.66958e-07 -2.23999e-22)
(2.77109e-06 2.17837e-06 0)
(1.52067e-06 5.67878e-07 -2.31299e-22)
(-1.6877e-05 -1.69273e-06 -4.98669e-22)
(2.30582e-06 1.29325e-06 2.5597e-22)
(-1.73329e-05 -1.02751e-06 3.37416e-22)
(1.96612e-07 1.12733e-06 -1.29287e-22)
(-1.73209e-05 -1.75294e-06 -4.07715e-22)
(-2.05356e-05 -9.68704e-07 -3.43341e-22)
(6.59298e-06 2.59986e-06 2.23247e-22)
(0.000251937 -2.85757e-05 -4.02856e-24)
(-2.67365e-05 -4.04559e-06 -4.09315e-22)
(2.20468e-06 1.37398e-06 3.23435e-22)
(3.18164e-06 1.45942e-06 9.91198e-23)
(-3.10307e-05 -3.5023e-06 2.06747e-22)
(1.0595e-06 6.42435e-08 5.5065e-23)
(4.22269e-06 5.31823e-08 1.20193e-22)
(-4.44086e-06 -1.01067e-07 -6.7592e-25)
(-1.27881e-05 -4.39529e-06 0)
(2.03036e-06 -5.55917e-08 -2.43842e-23)
(1.6245e-07 1.14391e-06 -2.06054e-22)
(3.862e-06 4.25777e-06 1.48474e-22)
(-9.33236e-07 1.03399e-07 -6.46669e-23)
(-5.51386e-05 3.70858e-05 -3.23769e-24)
(0.000187868 0.000504201 1.32607e-23)
(4.86668e-07 6.16765e-07 2.2173e-22)
(-3.08411e-05 -1.18199e-05 0)
(5.09199e-06 1.00538e-05 -2.12074e-24)
(-2.80266e-06 7.83506e-08 -3.78098e-23)
(7.98885e-07 1.05837e-07 -2.91578e-22)
(-3.09358e-05 -2.25847e-06 1.83515e-22)
(-2.68308e-06 5.84466e-07 2.18757e-23)
(-4.66044e-06 8.29004e-06 3.66298e-23)
(-1.52118e-07 -2.05049e-07 2.85538e-24)
(6.24669e-06 1.08235e-05 -5.96024e-23)
(-3.90511e-06 -9.16439e-08 4.49431e-25)
(2.17721e-05 -1.19787e-05 -3.85334e-23)
(-3.45065e-06 -6.41902e-08 -8.70039e-25)
(-1.16834e-05 -5.25788e-06 0)
(2.10468e-06 9.91939e-07 -1.5476e-22)
(-2.7504e-05 -1.99564e-06 0)
(-6.59847e-05 2.5976e-05 0)
(6.22797e-07 5.01762e-07 -2.06839e-22)
(-3.65371e-06 1.24131e-06 -8.82614e-24)
(3.41822e-06 -4.87854e-07 -2.94768e-22)
(-2.91293e-05 -1.61991e-06 -3.08888e-22)
(-3.09885e-05 -3.83419e-06 0)
(5.73873e-06 -4.07432e-07 -2.28953e-22)
(1.4011e-05 -4.40687e-06 -4.0016e-23)
(-3.10359e-06 1.62521e-06 0)
(1.0311e-06 4.96e-08 0)
(-1.70164e-05 -8.74702e-07 0)
(-1.09468e-06 4.79251e-06 0)
(-1.68807e-05 -1.73264e-06 5.28011e-22)
(6.49475e-06 -6.29555e-08 -3.75001e-23)
(-1.59924e-05 -7.73757e-07 0)
(-2.70789e-05 -1.07879e-06 5.04011e-22)
(-1.70668e-05 -1.63998e-06 3.66272e-22)
(-1.90876e-05 -1.81448e-06 -9.10925e-23)
(9.26874e-06 2.27095e-06 8.79849e-23)
(-2.36602e-05 1.50807e-05 2.31752e-22)
(-2.89453e-05 -1.50793e-06 -4.55517e-22)
(-8.74852e-06 2.45493e-06 1.68708e-23)
(1.32929e-06 6.86746e-07 0)
(-2.98952e-05 -1.8151e-06 -3.52356e-23)
(-3.57104e-05 -1.95477e-05 0)
(-1.32771e-06 1.72231e-06 1.51649e-23)
(2.28366e-06 1.45935e-06 -2.23818e-22)
(5.52634e-06 1.42255e-06 3.20948e-22)
(-5.00386e-06 -2.13586e-06 0)
(-3.24716e-06 9.01547e-07 0)
(-6.14672e-05 -1.39416e-05 -6.41533e-25)
(-1.85737e-06 1.46265e-06 7.17538e-23)
(-1.03657e-05 -4.25918e-06 -1.31164e-23)
(-2.09325e-05 9.77622e-06 3.58301e-25)
(-1.04656e-06 5.22337e-08 -1.39181e-22)
(-6.2418e-05 3.82546e-05 0)
(1.09051e-06 1.68515e-07 0)
(1.20471e-05 4.58972e-06 1.46609e-22)
(-4.07481e-06 5.67237e-08 9.30607e-24)
(-1.57115e-05 4.50845e-06 0)
(-2.59514e-05 -7.48578e-07 0)
(-1.62507e-05 -8.06797e-07 -2.68861e-24)
(2.01624e-06 -5.08773e-07 -5.41803e-23)
(1.07166e-06 1.92323e-07 1.0022e-22)
(-1.25824e-05 -3.4652e-06 -3.9211e-23)
(-2.60334e-05 -5.50967e-07 0)
(1.12094e-05 3.43789e-06 -1.91071e-22)
(-9.59962e-06 -4.50446e-06 -3.94734e-24)
(-2.19045e-05 -1.14942e-06 1.79237e-22)
(-7.91648e-06 -2.96932e-06 0)
(6.77362e-06 6.79555e-05 -2.03261e-23)
(7.86326e-05 2.16093e-05 2.74521e-25)
(-2.77527e-05 -1.5807e-06 -4.20444e-22)
(6.83751e-07 9.60682e-06 6.00748e-24)
(0.000120167 6.50764e-05 2.58146e-24)
(4.7749e-08 1.97338e-07 5.26787e-25)
(6.68263e-06 4.11439e-06 3.98634e-22)
(-3.02432e-06 8.16355e-08 0)
(8.44126e-05 9.29971e-05 2.2591e-25)
(-2.75755e-05 3.01569e-06 -2.36177e-22)
(3.14894e-06 -1.19863e-07 -5.05969e-22)
(-7.63572e-06 -2.78518e-06 6.21665e-24)
(-4.20113e-06 -2.5348e-07 4.12603e-25)
(-3.30383e-06 8.89953e-07 0)
(-1.90664e-06 1.44917e-06 -3.539e-23)
(-1.91055e-05 -2.28124e-06 0)
(-2.56998e-06 1.47242e-08 1.82608e-23)
(-2.48126e-05 -2.38211e-06 -4.92613e-23)
(8.03081e-06 2.86778e-06 0)
(4.58962e-06 7.92555e-08 0)
(-3.7086e-06 -3.10564e-08 -1.80672e-24)
(5.2716e-07 6.12576e-07 0)
(-1.53778e-05 -1.4117e-06 0)
(1.29341e-05 -1.92427e-06 -7.58672e-23)
(5.21731e-06 9.74203e-08 -1.87995e-22)
(-9.75633e-06 -6.35381e-06 -4.71931e-24)
(7.14831e-06 -2.82866e-07 -6.41515e-23)
(3.83802e-06 8.60079e-07 0)
(-1.14729e-05 -1.81927e-06 0)
(-1.85366e-05 -1.82689e-06 9.39935e-23)
(-3.08191e-05 -4.18321e-06 -6.03004e-24)
(1.01854e-05 1.13261e-06 0)
(4.46612e-06 7.27877e-07 2.33398e-22)
(1.72011e-06 6.54216e-06 0)
(-4.2722e-06 -4.42411e-08 -1.98084e-24)
(-7.46803e-06 -5.53082e-07 0)
(-3.64004e-06 1.32437e-06 -1.69467e-23)
(-1.50704e-06 1.78708e-07 0)
(6.45169e-06 -1.49869e-07 5.93482e-22)
(-1.44906e-05 -7.51201e-07 -7.93813e-22)
(-2.18212e-05 -1.08741e-06 -2.11499e-23)
(0.000245898 0.000518908 -4.06598e-24)
(-3.10231e-06 1.58883e-06 -3.76806e-24)
(-7.06328e-06 -2.25091e-05 0)
(4.87383e-07 7.81141e-07 3.09123e-22)
(2.89003e-06 1.28693e-06 -1.72308e-22)
(3.84226e-06 9.26704e-07 -1.41211e-24)
(-4.70838e-05 1.76297e-05 -4.0703e-23)
(2.2875e-06 1.41366e-06 -2.34407e-22)
(6.75246e-06 6.37057e-06 0)
(-1.78337e-05 -1.50199e-05 3.95184e-23)
(2.11821e-06 3.68509e-06 0)
(6.34333e-07 6.27189e-08 1.42916e-22)
(8.47792e-06 2.29564e-06 -7.29834e-23)
(-2.44911e-06 1.58061e-05 -2.57062e-22)
(6.49725e-06 2.31775e-07 0)
(2.29944e-06 1.03583e-06 -1.37795e-24)
(-1.40462e-06 1.76509e-06 -7.32499e-23)
(-5.66337e-06 -1.76277e-06 0)
(1.58097e-06 7.52277e-05 0)
(-2.54356e-05 1.30068e-06 1.45109e-22)
(1.12956e-06 1.78742e-06 -1.02361e-22)
(-1.94022e-05 -1.34891e-05 -1.6023e-22)
(6.78093e-06 2.85036e-06 3.27125e-22)
(-1.81099e-06 1.42777e-05 2.03332e-22)
(6.23871e-07 6.72529e-08 -3.90479e-22)
(-2.51009e-05 -3.06882e-06 5.90313e-22)
(-1.89056e-05 -1.68625e-06 0)
(1.4304e-06 8.03236e-07 0)
(1.15439e-06 6.69759e-06 0)
(-2.44031e-06 7.90339e-08 -1.16435e-23)
(4.01181e-06 2.43423e-06 1.76023e-22)
(2.74965e-06 4.05514e-06 0)
(-4.80504e-05 -5.02023e-05 7.23467e-24)
(2.86066e-06 4.352e-06 0)
(7.81001e-07 9.25407e-07 0)
(-6.06431e-05 3.23308e-05 5.11333e-23)
(1.04864e-05 1.11288e-06 -3.14478e-22)
(4.11991e-05 3.20231e-05 -9.03822e-25)
(-2.58065e-05 -2.75882e-06 4.66657e-22)
(1.40365e-05 -1.11e-06 -4.70926e-25)
(-2.07264e-05 -1.61813e-06 0)
(-1.93841e-06 1.80578e-07 4.39098e-23)
(-6.72144e-05 2.82088e-05 -3.91814e-23)
(-3.38332e-06 2.2949e-07 -2.68396e-23)
(6.28785e-06 7.70842e-06 -6.08203e-23)
(4.15287e-06 4.11306e-08 -2.43095e-22)
(3.12818e-06 1.45323e-06 -1.81356e-22)
(5.77298e-06 -4.8587e-07 0)
(1.87249e-06 -2.60942e-06 8.53063e-25)
(-2.51322e-05 -3.03618e-05 0)
(6.41603e-07 4.35664e-07 -2.39478e-22)
(-1.51988e-05 0.000126814 4.10558e-23)
(4.10996e-06 2.53117e-06 0)
(7.45816e-06 3.10196e-06 0)
(-2.25101e-05 3.33308e-07 -3.11141e-23)
(1.48759e-06 8.20343e-07 7.41072e-23)
(6.52211e-07 4.60982e-07 2.40093e-22)
(-2.72313e-06 4.12492e-07 2.16992e-23)
(-1.75505e-05 -1.78523e-06 0)
(-8.26054e-05 -4.22211e-05 0)
(-2.72155e-05 1.17423e-05 -1.42556e-22)
(6.54647e-06 -2.23803e-07 -7.02392e-22)
(-5.76179e-06 -1.6793e-06 -8.57235e-24)
(1.0286e-05 9.98335e-08 0)
(-8.79629e-06 -3.64121e-06 -7.90621e-24)
(7.59933e-06 1.10894e-06 0)
(1.99153e-06 1.76843e-06 -9.17097e-23)
(-2.6997e-05 2.90765e-06 1.37028e-22)
(-2.76351e-05 -1.13101e-07 -1.59144e-22)
(1.04773e-05 5.60235e-07 -2.22337e-22)
(-2.68363e-05 -9.77048e-07 -3.01282e-23)
(7.79009e-05 0.000146171 -9.24116e-25)
(1.08023e-05 -3.24529e-05 0)
(2.26672e-06 -1.75997e-08 -2.25904e-22)
(-2.56552e-05 -9.90966e-07 -1.42679e-22)
(-1.85707e-05 -1.77177e-06 1.34963e-23)
(-2.5646e-05 -3.10757e-06 -6.33215e-22)
(-1.66318e-05 -1.65594e-06 -2.06205e-22)
(8.05033e-06 4.45645e-06 -1.98161e-22)
(1.19743e-05 6.04908e-05 -5.85419e-24)
(-2.10708e-05 -2.66704e-06 0)
(1.21609e-06 -7.12953e-07 -9.2677e-25)
(-7.55101e-06 -1.42522e-06 -4.47357e-24)
(1.89916e-05 -0.000492831 1.08488e-23)
(-7.43013e-06 -1.57946e-06 -8.37196e-24)
(4.32357e-06 6.52967e-08 -4.82394e-22)
(5.11053e-06 8.84719e-08 -3.548e-22)
(2.18486e-06 1.514e-06 0)
(-8.29057e-06 -3.57032e-06 0)
(-1.50835e-05 -1.30091e-06 0)
(1.96622e-06 2.16019e-06 0)
(-6.23138e-06 -5.91051e-06 5.60406e-23)
(9.19689e-06 4.21685e-06 2.34007e-22)
(2.60629e-06 -1.72856e-06 0)
(-5.79145e-06 -1.85743e-06 2.59983e-24)
(-2.76532e-05 -4.97572e-06 -2.22791e-22)
(6.75887e-06 2.64965e-06 -1.83264e-22)
(-2.59976e-05 -3.17585e-06 -5.2656e-22)
(6.0732e-06 7.04624e-05 5.39942e-24)
(2.19521e-06 1.46595e-06 2.15505e-22)
(6.48588e-06 1.42327e-07 1.12421e-22)
(4.15833e-05 3.29278e-05 0)
(-2.1482e-05 -1.38065e-06 0)
(-2.56193e-05 -3.05742e-06 1.84222e-22)
(3.85002e-07 2.8769e-07 -3.29638e-22)
(4.68088e-06 8.03037e-06 -9.86837e-23)
(-1.24681e-06 1.62091e-06 3.15409e-23)
(7.22139e-06 -3.83301e-07 3.35612e-22)
(-2.5763e-05 1.1249e-06 0)
(-1.5147e-05 3.95462e-06 0)
(-1.93074e-05 -1.83741e-06 3.92093e-22)
(-2.13081e-05 -1.44849e-06 1.51011e-22)
(9.385e-06 1.72434e-06 2.21996e-22)
(-2.46142e-05 4.89851e-06 0)
(-2.15093e-05 -2.58839e-06 -3.31915e-22)
(3.75298e-06 -2.35908e-06 0)
(2.17148e-05 0.000315104 0)
(-4.53191e-06 -2.50926e-07 -1.54657e-24)
(-2.15592e-05 -1.34169e-06 0)
(-9.6845e-06 -4.2117e-05 0)
(1.14991e-05 5.74712e-05 -8.07393e-24)
(-1.62794e-06 9.02582e-08 -7.30658e-23)
(-2.21972e-05 0.000258665 -3.82641e-23)
(2.26109e-06 1.60917e-06 0)
(6.80136e-06 8.82554e-06 1.3158e-22)
(-2.31278e-05 4.15297e-06 0)
(1.13128e-06 1.82255e-06 0)
(2.32481e-05 0.00012009 -4.53732e-23)
(5.63062e-07 1.70585e-08 6.73599e-24)
(9.69243e-06 3.80614e-06 9.47562e-23)
(-6.00644e-06 -6.22746e-06 0)
(1.82347e-06 2.24683e-06 -1.59911e-22)
(8.96617e-06 -2.21901e-06 1.26377e-23)
(-6.4754e-07 7.27437e-07 7.94576e-23)
(1.43468e-06 2.50226e-06 2.28646e-24)
(-1.88487e-06 1.58502e-08 5.00386e-25)
(-2.00878e-06 2.47291e-09 0)
(-3.92173e-06 4.69341e-08 -9.14527e-24)
(3.85001e-07 2.68838e-07 2.54501e-22)
(-3.78063e-06 1.67299e-07 0)
(7.56755e-06 1.22878e-07 -2.26523e-22)
(1.0778e-06 -8.88973e-07 0)
(-1.74353e-05 -4.77528e-05 0)
(4.02862e-05 3.28407e-05 0)
(9.48423e-07 1.74238e-06 1.82816e-22)
(-1.55979e-05 -1.38739e-06 0)
(-1.56212e-06 9.04853e-08 -2.21931e-23)
(-1.46143e-05 -3.33396e-07 3.92705e-22)
(-4.02615e-07 5.42591e-07 -8.6799e-23)
(2.13435e-06 -1.58295e-05 3.43948e-23)
(9.72661e-07 1.39738e-06 0)
(-6.69287e-06 5.65071e-06 3.13866e-23)
(-7.66487e-06 -9.76902e-07 9.18997e-24)
(-4.18145e-06 8.49034e-06 1.22933e-22)
(-2.38646e-05 -6.58152e-07 1.02401e-22)
(-1.34999e-06 1.85351e-06 5.98162e-23)
(4.64694e-06 1.54709e-08 -4.96554e-24)
(1.11945e-05 2.05528e-06 -5.17315e-22)
(-3.06095e-05 -2.18819e-06 -4.88478e-23)
(-2.12582e-05 1.91907e-06 -2.98932e-22)
(-4.95245e-06 2.7877e-05 0)
(5.62171e-06 1.1221e-06 3.82373e-22)
(-6.32479e-05 -1.27207e-05 -4.23459e-23)
(-2.5679e-05 -8.12207e-07 0)
(5.5002e-05 -7.88453e-05 1.14369e-23)
(-4.32149e-06 -2.62431e-07 -8.80309e-25)
(-2.57304e-05 6.0575e-07 2.81915e-22)
(-3.83733e-06 -2.31444e-06 -3.79586e-24)
(7.7057e-06 1.07802e-06 0)
(-1.79519e-06 7.57761e-05 0)
(-1.65971e-05 -1.64159e-06 5.84763e-23)
(-1.7352e-05 -1.67756e-06 0)
(1.27148e-07 1.11293e-07 -2.7005e-22)
(3.48898e-07 6.10541e-08 0)
(-4.18538e-06 2.41918e-07 -4.79632e-24)
(2.62896e-07 5.53654e-08 0)
(8.34829e-05 -8.87754e-05 0)
(1.20303e-06 1.75893e-06 9.25617e-23)
(0.000186147 -8.36857e-05 4.16323e-24)
(-5.68338e-05 -7.59472e-06 2.30301e-23)
(0.000161558 0.000303831 -1.21435e-23)
(-2.09525e-05 -2.51769e-06 -3.42271e-22)
(-1.85431e-05 -9.60225e-07 0)
(-1.61011e-05 -8.07315e-07 0)
(7.61917e-06 -8.95967e-08 0)
(1.60368e-06 2.64918e-06 0)
(-2.94664e-05 -3.20329e-06 0)
(-3.09176e-05 -2.81257e-06 0)
(-5.74005e-07 7.05189e-07 -7.89091e-23)
(1.18521e-05 -4.0983e-06 -2.40286e-23)
(-1.67191e-05 -8.91105e-07 -1.40538e-22)
(-1.00096e-05 9.66358e-06 -1.28932e-22)
(1.05373e-06 1.89183e-06 1.2532e-22)
(5.74393e-06 3.37098e-05 9.96707e-24)
(2.27268e-06 1.55722e-06 0)
(9.17799e-06 2.93782e-06 0)
(-2.48881e-05 -3.05463e-06 5.16614e-22)
(-1.44948e-06 1.47635e-06 2.44939e-23)
(1.75234e-06 6.62846e-06 1.02394e-22)
(-2.51802e-05 -2.84503e-06 -3.75512e-22)
(-2.32617e-05 1.31227e-05 -1.51262e-22)
(-1.45254e-05 -2.45954e-07 -3.98042e-22)
(4.64167e-05 0.00024624 -7.42257e-26)
(-1.45966e-06 1.50256e-06 0)
(-2.03991e-05 -2.57149e-06 -3.29178e-22)
(-5.12667e-06 -2.247e-06 0)
(6.55823e-06 1.22369e-07 3.34801e-22)
(9.4233e-06 1.31256e-06 -1.36172e-22)
(1.14127e-05 7.19291e-06 1.72197e-22)
(1.37618e-05 2.20486e-05 4.58935e-23)
(9.87063e-07 1.74297e-06 -9.57068e-23)
(2.41059e-06 1.76696e-06 2.07086e-22)
(8.5304e-06 -7.4155e-05 -8.08385e-24)
(2.80921e-06 1.35897e-06 1.55793e-22)
(-0.000123208 0.000195563 0)
(1.34174e-06 2.24666e-06 -7.18527e-23)
(-3.98326e-06 -2.30172e-06 3.92073e-24)
(-9.4414e-07 -3.03109e-06 1.97999e-24)
(-1.64132e-05 -8.76471e-07 0)
(5.77896e-07 2.37647e-08 0)
(1.52612e-06 2.3273e-06 -2.39939e-24)
(1.04428e-06 -3.26369e-06 2.20335e-25)
(8.32908e-06 5.87133e-07 2.49551e-22)
(-3.05404e-05 5.66442e-05 1.69538e-24)
(6.70021e-06 1.66133e-06 5.09484e-22)
(3.49856e-06 1.30992e-06 2.82298e-22)
(6.50797e-05 -5.95664e-05 -1.44249e-24)
(-1.30919e-05 0.000579605 1.57097e-23)
(1.48405e-06 3.61826e-07 -4.18868e-22)
(3.60306e-06 4.07591e-06 -3.91727e-24)
(-3.73356e-06 1.35458e-07 4.81914e-24)
(-1.46114e-06 1.90706e-06 5.73945e-23)
(1.27802e-06 1.7181e-06 7.16301e-23)
(-1.60784e-06 -1.72828e-06 0)
(3.29989e-07 3.00951e-07 1.03816e-22)
(6.69831e-06 1.24764e-06 -4.39828e-22)
(-5.50618e-05 -3.72931e-05 0)
(2.77858e-06 6.25009e-06 -5.29289e-24)
(2.31811e-06 -5.38887e-08 2.85792e-22)
(-8.38373e-06 -1.04608e-06 0)
(1.45303e-05 1.64246e-06 -8.23787e-23)
(3.39443e-06 -5.27224e-05 -5.80007e-23)
(0.000237029 0.000119796 1.28139e-23)
(5.88935e-06 6.76832e-06 0)
(6.61648e-06 1.67601e-07 -3.94955e-23)
(1.46449e-05 -1.22006e-05 6.74163e-23)
(-3.35576e-05 3.66558e-05 -2.19442e-23)
(9.13822e-07 7.46987e-07 3.01806e-25)
(-2.53712e-05 -1.24947e-06 1.56236e-22)
(1.2415e-06 1.03738e-06 -3.42151e-25)
(1.3091e-05 -8.23131e-06 -6.28907e-23)
(-2.58966e-05 -2.85171e-06 4.79675e-22)
(-2.59696e-05 -3.08263e-06 0)
(-2.99968e-05 -4.30615e-06 2.12759e-22)
(1.68089e-06 0.000133347 0)
(-6.2616e-07 -3.30711e-06 1.21952e-24)
(-3.23859e-05 -2.7021e-06 7.61851e-23)
(2.6421e-06 2.29786e-06 -1.1215e-22)
(9.67514e-07 1.35431e-06 -3.98625e-23)
(-0.000103074 0.000167757 0)
(2.27707e-06 2.63608e-06 0)
(1.20093e-06 1.80154e-06 -9.49316e-23)
(8.4574e-06 -9.77008e-05 0)
(1.96532e-05 -8.47535e-06 0)
(-2.69633e-05 -7.20776e-05 -1.43809e-24)
(-1.53109e-05 -1.31111e-06 0)
(-6.37728e-07 -3.54402e-06 -1.4209e-24)
(-7.35634e-06 -7.00018e-08 1.04162e-22)
(-5.61149e-06 1.50919e-05 0)
(-2.51954e-05 -3.08867e-06 0)
(-2.54245e-06 -6.48541e-06 0)
(6.53816e-07 1.63347e-06 1.20821e-24)
(-1.22207e-05 -7.01314e-06 -1.43075e-22)
(-7.45213e-06 -2.43336e-06 0)
(-3.93934e-06 -7.30194e-08 2.50479e-25)
(3.71361e-06 1.16632e-06 0)
(-4.46492e-06 -1.76568e-07 -1.10874e-24)
(-3.3905e-05 -2.20797e-06 -1.44322e-22)
(-2.0433e-05 1.88672e-06 2.06317e-22)
(1.73572e-06 2.15902e-06 0)
(5.26067e-06 5.32233e-08 5.74907e-22)
(7.15112e-07 1.66441e-06 1.11961e-24)
(5.38055e-07 5.20054e-06 0)
(0.000237641 0.000618823 1.54371e-23)
(6.59115e-06 1.72764e-06 -6.58915e-22)
(4.28092e-07 1.07096e-05 -6.4758e-23)
(-7.3501e-06 -2.28051e-06 3.75238e-24)
(-6.45435e-06 1.9901e-05 -3.23393e-24)
(-4.48119e-06 -2.05606e-07 1.26496e-24)
(-3.47438e-06 -3.18296e-08 1.18496e-25)
(-2.67166e-05 -2.52644e-06 -2.35228e-22)
(-1.47903e-05 -4.89482e-07 0)
(-1.87869e-05 -1.04354e-06 0)
(-2.94639e-05 -2.12717e-06 0)
(1.19801e-06 1.67008e-06 6.9943e-23)
(-2.52076e-05 -2.87453e-06 -5.40006e-22)
(-4.70161e-07 5.79275e-07 0)
(-8.39052e-06 -1.91394e-06 0)
(-1.97536e-05 -1.55128e-06 -1.63702e-22)
(-1.91778e-05 -1.76495e-06 -3.32767e-22)
(-2.28167e-05 2.73949e-05 1.59853e-22)
(1.23673e-05 2.06278e-06 3.96431e-22)
(-1.76625e-06 1.43109e-06 0)
(-4.51167e-07 -2.69176e-07 2.46506e-24)
(1.22141e-05 -6.48266e-06 -3.6466e-23)
(3.14229e-05 0.000107621 -2.94362e-24)
(0.000139341 0.00025707 0)
(3.42711e-06 4.45706e-07 1.61717e-22)
(-2.15905e-06 1.52314e-07 0)
(6.78073e-06 1.28431e-06 5.24503e-22)
(-1.9289e-05 -9.44839e-06 1.57297e-22)
(-6.49732e-05 4.85144e-05 -2.26489e-24)
(2.23911e-06 1.0097e-06 4.82974e-22)
(-1.3186e-06 5.34296e-06 1.25386e-23)
(-4.32716e-06 -3.55578e-08 9.94367e-25)
(4.06212e-05 -7.13931e-05 -2.6201e-25)
(-1.4421e-05 -8.20962e-07 4.17691e-22)
(-5.53771e-05 -0.00054634 0)
(0.000179078 0.000325944 9.6189e-24)
(0.000122066 -0.000182859 1.19431e-24)
(3.35203e-05 -2.70467e-05 -1.67595e-23)
(4.39002e-07 1.73628e-07 1.08683e-22)
(6.4749e-07 1.7739e-06 4.60007e-23)
(1.5858e-07 1.23604e-07 1.85229e-22)
(-1.37155e-05 -1.06025e-05 0)
(6.475e-06 3.89931e-06 3.71701e-22)
(-4.11622e-06 -5.42466e-06 0)
(0.000227952 0.000226558 7.69762e-24)
(-5.21154e-07 7.2187e-07 2.75599e-22)
(3.33904e-06 4.39965e-07 4.76167e-22)
(-1.60662e-05 -7.16321e-07 0)
(5.30757e-06 2.56243e-06 5.02324e-23)
(-3.21248e-05 0.000124836 2.12265e-23)
(-1.82725e-06 1.40709e-06 0)
(-4.19608e-06 2.04327e-07 -1.37506e-23)
(1.858e-06 -1.72182e-06 -5.88128e-25)
(5.7218e-06 2.41904e-06 0)
(4.55572e-06 5.30292e-06 1.25546e-22)
(1.98285e-05 -1.00315e-05 3.74938e-23)
(2.16687e-06 3.7946e-06 0)
(-2.20614e-05 1.68362e-06 -2.57924e-22)
(4.94844e-06 2.68858e-06 -1.28297e-22)
(-6.00609e-05 -5.6126e-06 -2.64815e-23)
(1.28164e-06 1.76785e-06 1.0467e-22)
(-3.14477e-05 -2.81989e-06 0)
(-1.25795e-06 1.64764e-06 -6.44705e-23)
(-7.53197e-06 -4.23041e-06 0)
(1.07856e-06 2.41748e-07 -1.09592e-22)
(2.37934e-05 -2.4106e-05 -9.10919e-25)
(1.89233e-06 3.84141e-06 -1.12205e-22)
(-2.12721e-05 -8.20794e-07 1.5549e-22)
(-2.31371e-05 4.03609e-07 -1.83192e-22)
(-2.03011e-06 1.31241e-07 9.43589e-23)
(-4.14243e-06 -3.33807e-08 3.73846e-24)
(-2.22603e-05 -7.10515e-08 -2.82494e-22)
(-9.82414e-06 -0.00077451 0)
(2.37348e-06 1.16796e-05 7.30363e-23)
(2.1917e-05 -1.66062e-05 0)
(5.77034e-07 1.74531e-06 -1.36133e-22)
(6.93035e-07 3.63685e-07 3.59983e-22)
(-3.18939e-05 -2.76343e-05 6.81468e-23)
(-3.12887e-06 4.6141e-06 -9.24685e-23)
(5.62864e-06 1.23622e-06 7.68804e-23)
(1.372e-06 7.37549e-07 0)
(-1.13751e-06 1.14176e-05 2.60929e-22)
(-0.000169585 0.000108846 2.09411e-23)
(-2.54738e-05 -9.0512e-07 1.26232e-22)
(-7.31416e-06 -1.97913e-06 0)
(5.5172e-07 4.67657e-09 1.25153e-22)
(-2.24304e-05 -3.51955e-08 2.05157e-22)
(2.59277e-06 1.63461e-06 1.0859e-22)
(-2.19185e-05 3.18669e-07 -1.03806e-22)
(-2.67041e-05 -1.21529e-06 -2.78347e-24)
(1.50966e-05 -3.18225e-05 -5.99303e-24)
(1.03386e-06 2.39459e-07 1.11713e-22)
(-2.59538e-05 4.30194e-07 -1.28849e-22)
(-7.76499e-06 -1.18037e-05 1.6031e-23)
(5.53077e-06 8.65392e-06 1.32938e-22)
(-1.95539e-06 1.41406e-07 -2.16628e-23)
(3.2361e-07 5.80624e-06 3.11474e-24)
(3.64911e-07 3.07913e-07 -6.17139e-23)
(1.76759e-06 5.96034e-06 0)
(-1.43342e-05 -8.01247e-06 -7.47051e-23)
(8.29011e-05 0.000219657 1.25e-24)
(8.23775e-07 2.7926e-07 -4.11879e-23)
(4.38317e-07 7.89353e-07 -2.44249e-22)
(-5.64855e-05 7.56422e-05 -9.60685e-23)