/*--------------------------------*- C++ -*----------------------------------*\
| =========                 |                                                 |
| \\      /  F ield         | OpenFOAM: The Open Source CFD Toolbox           |
|  \\    /   O peration     | Version:  v2012                                 |
|   \\  /    A nd           | Website:  www.openfoam.com                      |
|    \\/     M anipulation  |                                                 |
\*---------------------------------------------------------------------------*/
FoamFile
{
    version     2.0;
    format      ascii;
    class       volScalarField;
    location    "200";
    object      ddt0(omega);
}
// * * * * * * * * * * * * * * * * * * * * * * * * * * * * * * * * * * * * * //

dimensions      [0 0 -2 0 0 0 0];


internalField   nonuniform List<scalar> 
14804
(
-8.81032e-08
-1.66983e-08
1.38562e-05
3.20026e-08
5.82935e-07
3.91723e-07
-3.42348e-05
7.92746e-07
4.33666e-07
-3.63976e-07
6.81823e-05
1.21578e-05
-0.000233123
-1.66931e-05
-3.35895e-05
2.10694e-07
0.000236067
-9.29467e-06
2.13003e-07
-7.62243e-08
1.02283e-07
5.84306e-07
-6.32317e-07
2.63161e-07
-0.000108182
-1.77454e-05
-7.5925e-05
8.33791e-08
-3.46665e-05
-4.66428e-06
5.72372e-05
0.000226462
3.89584e-07
7.82553e-07
1.17892e-05
3.68321e-08
1.77179e-08
2.56933e-07
8.15471e-05
-8.52729e-08
0.000402353
-4.049e-06
-1.44416e-05
1.53391e-07
-9.26919e-06
-8.90895e-05
0.000136068
3.16338e-08
2.24814e-06
9.95859e-08
7.79119e-08
-8.29014e-08
1.80839e-08
-1.02515e-06
3.95759e-07
8.10345e-08
-4.82633e-05
0.00011303
3.21704e-05
-0.000192211
9.00978e-05
1.32793e-05
-9.57931e-08
-2.34122e-08
2.05848e-07
1.1093e-05
-0.000334124
5.95063e-07
-3.65914e-07
3.37538e-07
3.50982e-07
5.60191e-07
1.92375e-07
1.05212e-06
1.29734e-05
7.75767e-08
7.73964e-08
1.83262e-06
-1.35952e-07
1.31458e-07
2.08285e-07
1.75255e-05
9.36899e-07
-8.16663e-06
6.69482e-08
9.25169e-08
-1.49386e-07
4.22857e-08
5.70754e-07
5.59073e-07
-1.857e-05
3.93829e-08
-8.05163e-08
3.17347e-08
-3.47176e-07
7.4487e-06
-9.97383e-08
-2.30991e-05
4.02829e-07
1.12165e-05
-0.000107509
1.33879e-05
1.08309e-05
2.0799e-07
2.00438e-05
-3.97005e-05
4.06471e-07
-5.81047e-08
4.09515e-07
-2.09945e-05
-1.28065e-07
4.14299e-07
0.00128526
9.74569e-07
4.94756e-07
1.94713e-05
0.000216661
-1.61564e-05
2.34664e-07
-5.99853e-08
9.91194e-06
1.09913e-05
2.87159e-08
1.78887e-06
2.36869e-07
1.04493e-06
-1.35794e-07
-2.2192e-07
8.0536e-07
-4.85378e-06
-9.69136e-09
9.87445e-06
3.99056e-07
5.06369e-05
9.57317e-09
-1.12542e-05
0.000652911
2.35254e-06
1.17932e-05
5.47111e-05
1.7973e-08
2.42877e-07
2.17018e-06
1.54052e-07
-0.00161551
3.71426e-07
1.92892e-05
-0.000555368
-9.28788e-06
4.20108e-07
-0.000388047
-9.69012e-09
-1.4107e-05
0.00935006
-1.01383e-07
4.26722e-09
-7.43975e-06
2.49642e-07
1.0919e-07
-1.13141e-05
7.06394e-08
-1.18673e-07
-2.01542e-07
2.91622e-07
6.06648e-07
-7.21522e-05
-1.7239e-07
-3.32462e-07
0.000210818
2.46275e-07
7.12352e-08
1.83473e-07
-1.97461e-06
3.85244e-07
0.000160884
-1.76571e-05
0.000623887
8.86611e-06
2.51122e-06
0.00067894
6.18324e-08
2.14715e-06
5.54153e-08
2.65046e-05
-1.98539e-08
1.31382e-05
-1.48267e-05
-2.40659e-05
3.67554e-05
-9.23128e-08
2.19005e-07
6.55496e-06
-6.81218e-05
-5.90405e-05
-4.76127e-05
-7.64157e-05
-1.51843e-05
-2.09986e-05
5.36347e-08
-4.62521e-06
6.57536e-08
1.78657e-07
-1.0348e-07
1.9358e-05
4.15398e-07
-7.94606e-06
7.33085e-05
-0.000243995
1.45241e-06
3.1643e-08
-9.16699e-08
3.25804e-07
2.46863e-07
3.38744e-08
-7.32537e-06
1.23205e-08
-7.25966e-05
1.2986e-08
0.000178667
-0.000251176
1.29299e-06
-9.05708e-05
4.83025e-08
0.000489135
-6.6235e-05
4.82576e-07
-1.53708e-05
9.34438e-09
-0.000351115
0.000292001
1.79067e-06
-4.84408e-05
6.68241e-08
3.36361e-08
2.4435e-05
9.42334e-08
2.11984e-05
-1.41742e-05
7.47517e-08
-8.97878e-06
-0.000230744
1.99338e-06
1.02317e-05
-2.86071e-05
1.09918e-08
2.90673e-09
1.74533e-06
6.88817e-05
6.38824e-07
2.42984e-07
1.46253e-05
1.30565e-05
3.72504e-08
4.78755e-07
-6.27817e-08
-0.00111584
-5.795e-06
9.16472e-06
-4.0051e-06
-2.33315e-05
4.918e-07
-0.000192823
-2.67943e-08
2.01944e-05
2.13828e-07
-2.06722e-05
1.44874e-08
-0.000980199
-2.22833e-05
-8.21119e-08
2.61794e-08
6.3354e-05
-5.30445e-06
-0.000308637
-9.39294e-05
1.19493e-06
-1.5994e-07
-7.77933e-06
-8.92917e-08
-8.9261e-05
1.52741e-08
-4.59628e-05
6.49894e-08
1.43845e-06
7.48805e-08
-2.73396e-05
2.63149e-07
-4.98874e-05
7.5345e-08
-2.87726e-05
-5.94134e-05
-1.79625e-05
0.000668426
2.45515e-05
2.57524e-07
4.83534e-07
8.21386e-06
2.30233e-08
4.40343e-07
-1.58907e-07
-2.52023e-07
1.6762e-06
7.58602e-08
1.92099e-06
5.1388e-08
0.000222178
0.000198193
3.4503e-08
-1.48639e-05
5.23984e-07
-1.06946e-07
1.3364e-08
-4.4492e-06
3.33663e-08
0.000200951
-2.92672e-07
3.67711e-07
-2.56076e-07
-3.2733e-05
-1.90067e-07
-2.92757e-07
1.71891e-07
2.56923e-05
9.61679e-05
2.92765e-08
8.71092e-08
1.28087e-06
1.24897e-05
2.92041e-06
3.76849e-06
1.38637e-06
1.64837e-07
2.20863e-08
-9.69912e-05
4.01445e-07
-2.55868e-05
-8.00594e-05
-0.000224829
1.78977e-05
-2.68139e-05
-2.27098e-05
1.88051e-06
-8.33195e-05
1.27805e-05
2.06467e-07
7.29112e-08
7.47507e-06
-8.39628e-05
1.92794e-07
2.88146e-07
1.13655e-06
-8.81879e-08
5.77463e-08
5.0237e-05
1.12987e-07
-1.91957e-07
6.32594e-05
1.65115e-08
9.44328e-05
2.87766e-08
7.09767e-07
-1.08462e-07
1.18817e-05
-2.64352e-05
-0.00012837
1.74888e-06
2.79991e-08
0.000539505
-2.7324e-05
9.24824e-07
-1.90403e-07
-1.08945e-05
-4.07346e-08
3.01484e-05
1.99876e-05
-3.24441e-06
-6.5822e-05
7.14225e-05
1.09271e-08
5.14446e-06
-9.55173e-08
4.55724e-05
-1.89138e-06
2.37018e-07
-3.85327e-08
-1.719e-07
5.57594e-08
1.15264e-07
-6.17895e-05
-1.17952e-07
-4.58257e-05
9.03113e-07
7.06201e-07
-1.46154e-07
3.56019e-08
-2.7297e-05
0.000101725
8.35012e-07
8.33431e-05
-4.30439e-05
4.90235e-07
1.71964e-06
-2.54975e-05
6.84817e-06
5.5164e-05
6.43094e-07
8.79394e-06
-1.69057e-07
1.75734e-06
9.41014e-08
3.36284e-08
-0.000163938
0.000193834
-8.87308e-06
6.35327e-05
1.54087e-07
0.000307328
4.81083e-08
3.5157e-07
5.09978e-07
0.000245396
2.82509e-07
1.57989e-05
-1.47268e-05
4.29893e-07
7.14905e-09
4.37001e-06
1.71076e-05
0.000213256
2.01238e-07
1.8891e-07
-6.91796e-08
4.79701e-06
-1.45302e-05
2.45221e-07
-1.18567e-05
-2.46071e-06
1.45027e-05
7.44739e-09
-6.89173e-05
-2.09639e-05
9.13622e-08
1.26061e-05
-7.65498e-08
1.20391e-06
2.03525e-06
4.15516e-05
4.55341e-07
6.96696e-08
8.27632e-05
3.20888e-05
-3.85668e-05
-5.95209e-05
8.94591e-05
-1.53407e-05
2.68243e-08
0.000103333
2.70549e-08
-1.95309e-05
1.09782e-06
4.72383e-07
1.04498e-05
5.84323e-07
3.15543e-05
2.3873e-08
0.000275927
1.27185e-06
8.89187e-07
-8.41702e-06
9.71476e-08
2.68358e-08
3.17769e-08
-2.89383e-05
0.0015058
-9.84445e-05
-0.000329581
-6.29596e-08
4.70807e-05
-1.02373e-07
1.9611e-06
3.01255e-07
5.21301e-07
-5.48886e-06
2.85864e-05
1.68566e-05
-5.82627e-06
0.000591931
1.1241e-07
-2.8774e-05
-2.27637e-05
-6.67777e-05
-2.61732e-05
4.59653e-06
3.08716e-05
-5.45093e-05
-4.63747e-07
-3.38547e-08
-0.000190299
-4.64493e-08
5.45352e-07
8.02097e-07
2.81663e-07
-8.17062e-08
-2.30102e-05
3.93054e-07
2.19661e-06
1.39559e-07
5.43041e-07
-7.35094e-08
1.53975e-05
-8.66644e-06
-6.61482e-05
1.46388e-05
2.75707e-07
0.00023094
-3.31282e-05
-1.2747e-05
-6.72387e-05
1.35544e-08
7.57005e-07
1.99219e-07
-2.99661e-05
-1.49627e-05
1.25494e-05
-2.17641e-05
-1.30485e-05
1.62555e-05
-0.000212137
-4.83487e-05
-0.0106125
-0.00117822
2.52909e-09
-9.58594e-06
-6.24327e-05
3.05342e-05
-8.69755e-09
-0.00110203
3.10838e-07
0.00010862
-4.82541e-05
2.62041e-07
-0.000374372
4.39859e-08
7.81338e-07
-2.33662e-07
4.08804e-07
0.0161144
3.43071e-08
3.69476e-07
1.0111e-07
5.94619e-08
-1.28192e-07
1.32269e-08
-4.78275e-09
9.15698e-06
-4.45958e-07
-4.82534e-05
-8.27816e-05
2.33549e-07
-2.65081e-05
-3.70805e-10
0.00011871
2.46908e-08
0.000313641
1.45035e-07
0.000420057
-1.78822e-08
7.74934e-05
-2.64518e-05
2.04543e-07
7.11481e-07
0.000317869
9.75589e-06
-1.33578e-05
-6.82778e-07
1.01441e-06
5.41512e-05
-2.95514e-05
1.84069e-05
-1.38745e-07
-2.17072e-05
-9.69785e-08
8.99329e-07
-2.41485e-05
-2.4144e-05
-2.75293e-05
2.40386e-08
4.13844e-08
2.69739e-08
5.97837e-08
4.75462e-05
2.36565e-07
-0.000280915
4.84091e-05
5.26554e-06
-4.46767e-05
-0.000156658
-0.000193515
6.66809e-06
3.81446e-07
5.4266e-06
1.15135e-05
3.24521e-08
1.98131e-06
-0.000126471
0.000154752
4.32856e-07
4.35666e-05
3.03192e-07
9.34176e-07
-6.80721e-05
1.1676e-07
-2.04088e-05
-6.02187e-05
9.99412e-07
0.000242062
-3.05841e-05
1.25832e-07
-5.0399e-05
-9.62366e-08
-0.000199143
6.30124e-07
0.00019168
1.44563e-05
4.89193e-07
3.56257e-07
-5.10523e-05
3.89963e-07
-0.00044282
3.48606e-07
-9.74145e-08
-1.1406e-07
-0.000129264
3.30447e-08
3.61999e-07
-1.34528e-07
-6.10541e-06
2.73322e-05
1.16629e-05
6.02216e-07
-5.70441e-05
0.000436263
6.31839e-08
1.89729e-06
-2.31769e-08
2.00656e-07
2.28183e-07
-8.16527e-08
1.43977e-08
-3.36272e-05
3.95513e-05
-5.89023e-05
1.16088e-07
-2.14849e-08
0.000126062
-8.42552e-05
-5.65063e-05
-7.02546e-06
-6.09868e-05
4.0322e-06
1.13635e-05
5.73905e-08
-3.09791e-05
1.09468e-07
2.10233e-06
-6.10225e-05
-6.55032e-05
5.95122e-06
4.10182e-06
-1.27399e-07
-2.98886e-06
1.59671e-06
1.36741e-07
-0.000211894
1.80261e-06
2.51767e-07
0.000376718
1.84128e-06
9.4775e-05
-2.3293e-05
-1.47462e-07
6.96531e-06
-1.42121e-05
-6.68148e-05
1.82457e-06
1.86707e-07
-7.14959e-06
-4.26361e-08
-1.97056e-07
7.87075e-07
-1.55539e-07
-1.83867e-05
-1.46796e-05
3.78502e-07
8.22384e-07
1.97865e-07
5.07673e-07
3.23861e-05
-3.63151e-06
-3.27117e-05
-4.05981e-08
-1.68074e-05
-1.07319e-07
-1.35385e-07
-4.69857e-05
0.000109348
-5.29946e-05
1.79221e-05
2.13634e-07
-6.07312e-05
2.6238e-08
5.63147e-06
-1.52098e-05
-2.00621e-05
1.49508e-07
0.000317477
1.08815e-07
-2.89178e-07
-6.10371e-05
-0.000528579
-0.000369416
3.12514e-07
2.08595e-09
-2.08748e-05
-7.13921e-06
0.00010441
1.893e-07
4.08966e-07
-1.58958e-07
0.000405952
0.000186838
-0.000209867
-3.9108e-05
0.000256273
-1.10344e-05
8.87151e-09
2.13207e-07
2.11704e-08
-1.16341e-05
6.77299e-06
1.89107e-06
-5.97856e-05
3.36121e-08
3.02881e-07
-0.000163942
7.71825e-07
0.000532201
1.07289e-07
2.57728e-08
-2.59003e-07
8.20919e-07
2.23111e-06
0.000310244
2.13363e-06
-5.91479e-06
1.30471e-06
5.4051e-05
2.43456e-07
6.61231e-06
1.95288e-07
2.05556e-06
3.09209e-08
3.75665e-05
-2.06066e-05
-2.96667e-06
3.81415e-05
-8.18489e-09
-1.85095e-07
-6.33289e-06
-0.000501963
-3.55393e-06
3.57945e-05
2.01092e-07
1.99848e-08
-0.000102019
1.17784e-06
1.00621e-06
8.00277e-08
8.91064e-05
-0.00167223
3.83097e-05
-7.80431e-08
1.21039e-07
-8.17061e-06
1.37207e-06
1.19669e-05
-2.63638e-06
2.00745e-06
2.94262e-08
-2.12756e-05
0.000100457
6.93985e-07
-2.43568e-09
5.29162e-07
1.35295e-08
5.31938e-06
-7.83516e-06
-0.000302613
2.08226e-08
4.71269e-08
0.000475983
2.3659e-08
3.70554e-08
-2.5466e-05
-1.36434e-07
3.81996e-07
3.60904e-08
-3.09384e-07
1.02925e-07
4.52591e-06
-5.84258e-05
-9.48186e-09
-6.41259e-05
1.56061e-07
2.46583e-05
1.10594e-08
1.14534e-07
-2.78279e-05
-7.63028e-05
-5.75101e-05
1.24556e-06
-4.85061e-05
4.71172e-07
5.87543e-08
-2.90673e-07
3.19655e-08
1.19873e-08
1.62586e-08
1.21663e-08
-5.55939e-05
1.62035e-07
1.74082e-07
4.16365e-05
-2.02923e-08
-5.00943e-05
3.92878e-07
-6.90692e-05
3.27818e-08
1.4806e-06
-2.65178e-05
5.52822e-05
-0.000344729
5.87835e-08
-4.69767e-06
9.28555e-05
-2.50276e-05
4.47928e-08
1.50463e-06
6.3169e-07
1.99737e-07
1.90117e-07
3.53299e-08
-1.17057e-05
2.21687e-05
6.07349e-07
8.59455e-05
1.06555e-07
3.55444e-06
1.70202e-05
0.000350918
1.67504e-07
2.56268e-07
-9.513e-06
1.24331e-05
2.54989e-08
4.85202e-08
2.41883e-05
1.26618e-06
-2.4563e-05
2.95829e-05
8.00846e-07
3.44009e-07
-1.10716e-07
-0.000317944
-1.91299e-07
-1.34572e-08
1.09237e-06
-1.00652e-05
-2.26339e-07
9.63724e-08
1.51571e-09
3.0193e-08
1.58186e-06
-8.90164e-08
6.88515e-09
-1.55176e-05
-5.85932e-05
0.000549573
0.000313728
-0.000242436
2.75677e-08
6.99298e-07
-1.32894e-05
3.05857e-07
1.03163e-07
-1.14428e-05
7.82236e-09
-1.75031e-06
2.16112e-05
8.17407e-07
6.30399e-08
7.05231e-09
-6.24747e-07
2.02025e-07
7.01629e-06
-1.08246e-06
5.2033e-07
-9.73862e-05
-2.24513e-05
1.71847e-06
1.67833e-06
2.47795e-08
4.26143e-06
-0.00121321
7.82339e-07
-2.55699e-05
-9.48709e-05
2.47505e-08
0.000470287
-0.00016275
-3.25022e-08
3.81772e-07
3.31631e-07
1.33188e-07
3.98751e-05
5.04746e-06
1.32769e-06
1.8937e-06
-6.116e-08
7.15085e-08
-2.99426e-07
-5.31217e-08
1.3996e-07
1.72325e-07
-2.09272e-05
1.40315e-05
4.26336e-07
-3.78348e-05
7.90409e-07
-3.09587e-05
8.26748e-07
5.59753e-07
-7.74199e-05
1.49011e-05
1.68213e-05
0.000574948
1.97618e-07
3.20369e-06
-8.7266e-06
4.84131e-07
-6.33936e-08
1.86802e-07
-1.11407e-07
2.63496e-05
1.62285e-06
4.04805e-07
8.21261e-07
5.87048e-05
1.01891e-05
5.61869e-08
-2.12116e-06
2.51622e-05
1.89389e-08
1.09578e-07
8.49814e-07
4.42018e-07
1.64171e-07
1.79886e-08
0.000677773
4.5066e-07
7.50518e-05
-7.23365e-06
1.10497e-06
-4.2453e-06
-4.22185e-06
-0.000126067
3.205e-08
-5.49204e-07
4.32178e-07
-1.79975e-05
6.93983e-08
3.58998e-05
-1.53736e-05
4.28659e-05
2.16597e-08
2.2428e-06
0.000367843
2.72571e-06
1.42822e-06
5.5059e-07
1.96046e-06
1.48565e-05
-8.14779e-06
3.37164e-05
-7.57453e-08
-0.000530917
3.26535e-08
2.21474e-07
-1.49145e-05
0.000665748
1.32032e-07
2.44141e-06
5.15154e-05
4.24344e-08
-0.000312121
0.000212251
-4.63563e-06
4.64228e-08
1.06879e-06
2.3945e-06
1.82317e-07
-4.84547e-05
-1.498e-07
1.62975e-06
4.42448e-07
-3.46327e-05
6.20931e-08
7.94241e-07
2.27379e-06
2.00523e-09
-6.69674e-05
2.83372e-05
-3.22942e-05
4.14885e-06
1.38464e-06
-3.37457e-05
2.87539e-05
3.36677e-08
2.59163e-07
1.02331e-07
6.93758e-08
0.000405241
6.12749e-07
-5.45887e-07
4.96922e-06
1.36819e-05
5.86583e-09
6.00849e-09
5.92406e-08
-1.73168e-06
1.77597e-09
7.10162e-09
2.44178e-07
4.44622e-08
0.000342377
1.40986e-05
0.000355028
5.34517e-06
1.16886e-05
-0.000160593
7.43041e-05
0.000502687
1.22523e-07
-0.000386576
7.37364e-05
0.00134898
-1.33157e-07
-2.32572e-07
3.83441e-08
0.000621398
-4.114e-05
1.98481e-07
-2.0353e-05
8.41067e-08
1.60572e-07
-4.56926e-05
-1.60757e-05
-3.6118e-05
-3.48475e-08
3.28436e-07
6.98938e-08
4.39618e-08
1.55102e-05
-1.36107e-07
4.47739e-07
-8.41762e-08
-3.41777e-05
1.73928e-07
4.48577e-07
2.27845e-08
1.22695e-05
6.48376e-06
1.16619e-07
4.44274e-08
0.000101808
-9.81957e-08
0.000282121
-8.32311e-06
7.83322e-07
1.45757e-08
1.01274e-05
2.5887e-07
0.000167521
4.45334e-08
-5.32582e-05
1.37693e-05
9.57446e-07
-5.19071e-05
1.89607e-06
-1.41064e-07
-2.02748e-05
1.71683e-05
3.08524e-05
4.68341e-05
2.49035e-07
-2.68331e-05
-6.94183e-06
2.13134e-05
2.55638e-08
6.07039e-07
5.51973e-07
6.63731e-05
-2.37871e-06
3.45311e-07
-8.34632e-05
-3.59008e-05
1.24194e-07
3.55738e-07
-1.04937e-05
0.000253296
-1.32304e-05
-3.74518e-05
-6.42134e-05
3.8249e-06
6.53055e-07
-5.18764e-08
-3.76629e-05
3.27316e-06
2.63987e-05
-3.0358e-06
-2.83418e-07
0.000130021
-1.05989e-07
2.19992e-07
8.2881e-06
2.17393e-07
1.27281e-05
1.22239e-07
3.66171e-08
-3.60486e-08
1.7131e-07
-7.50211e-08
-2.98681e-05
1.99605e-07
-6.71115e-05
0.000298169
-2.46274e-07
9.23493e-07
-3.22838e-05
-2.11557e-05
8.30849e-08
3.21798e-08
3.89392e-08
-5.88885e-05
-1.34128e-07
0.000113347
4.67693e-07
-1.20963e-07
-5.3084e-05
2.8247e-05
-1.54142e-06
-0.000160547
6.00236e-07
2.38223e-08
4.29771e-05
6.52036e-06
-7.63393e-06
-1.8942e-07
-3.85535e-05
3.51762e-07
4.44192e-08
2.1567e-07
2.63713e-07
4.00139e-05
5.50225e-07
4.18767e-07
-9.71162e-05
-7.73733e-06
8.67464e-06
1.72453e-05
6.50199e-07
6.01496e-07
0.000187397
4.93631e-08
1.11829e-05
1.12939e-07
1.43623e-06
-5.29078e-05
-1.60784e-07
-9.80531e-07
-0.000339454
-0.000106578
3.48184e-07
2.47392e-07
-1.83587e-07
1.20553e-07
7.40411e-06
1.48879e-06
-5.07541e-05
5.10364e-06
-4.11311e-05
1.20672e-05
-6.85557e-05
1.87253e-05
-0.000394563
1.68859e-06
-1.66515e-05
3.85858e-05
-1.19122e-05
1.18798e-06
6.22205e-07
0.000161566
8.85025e-07
3.52099e-05
4.78757e-06
5.07137e-05
1.9073e-08
9.15382e-06
-0.000207755
7.04537e-06
-2.68811e-05
-1.55414e-06
-4.05225e-07
3.38924e-08
1.42946e-06
1.03084e-07
4.82135e-08
9.27408e-08
1.57665e-07
-4.22505e-07
3.75303e-05
1.11301e-07
-6.31425e-08
2.99894e-08
2.22451e-05
2.43828e-07
0.00123191
5.39439e-09
-7.81197e-06
-2.61739e-05
8.50138e-08
-4.31393e-05
-2.66285e-07
-1.1246e-05
-4.82894e-05
8.30566e-07
1.35425e-07
7.67602e-08
2.00426e-07
2.37715e-06
1.99736e-06
-2.57556e-07
0.000290887
1.29131e-06
-0.001014
1.35592e-06
0.000512455
-2.18797e-06
-3.30161e-07
4.97474e-05
3.70389e-05
1.18759e-06
6.78772e-07
6.08065e-08
1.36959e-05
2.08458e-07
-9.70225e-05
-1.56185e-06
6.93853e-09
-4.92013e-08
2.05715e-08
2.62424e-05
1.76837e-06
-8.55494e-06
3.11079e-05
-8.61918e-08
-4.10518e-05
-2.23888e-05
3.48146e-07
-2.29965e-05
8.75067e-08
3.4039e-08
1.91849e-07
6.00192e-08
-4.64627e-06
1.74828e-05
-2.08527e-05
2.05693e-07
-4.76368e-06
3.06595e-05
8.31628e-08
5.44972e-05
-0.000628359
-1.78024e-05
7.89145e-07
5.1292e-06
1.10603e-06
-0.000471684
3.87948e-08
2.71532e-07
-1.77631e-05
3.74804e-05
6.50772e-07
0.00138377
1.22691e-05
-1.49846e-07
1.5439e-05
4.07012e-07
1.39165e-07
8.34373e-09
2.46733e-08
-1.99259e-07
2.36818e-07
-6.3711e-05
-1.34421e-05
-2.93427e-05
6.18517e-07
3.2319e-06
-1.11859e-05
4.06465e-07
-2.91568e-05
-3.52071e-05
0.000469309
1.15692e-08
-1.73549e-05
7.96907e-08
-4.99227e-05
2.17078e-05
1.30897e-06
-4.61135e-05
1.51409e-05
2.20943e-06
-8.28272e-05
-1.50055e-07
5.00269e-08
-7.72429e-05
1.37324e-05
1.13002e-07
-0.000104427
1.56954e-05
2.84781e-06
2.04294e-08
-7.65913e-06
4.77745e-06
-2.43135e-05
-1.40084e-07
4.87327e-05
-5.22925e-08
4.30654e-08
2.27187e-05
-9.21262e-06
1.71378e-08
2.01371e-07
2.91923e-06
-6.07361e-05
6.42073e-08
3.92482e-07
-1.43428e-07
-7.59082e-05
3.67701e-07
2.96625e-05
1.41889e-08
4.66338e-07
5.3666e-05
1.55909e-07
3.26861e-05
1.57989e-06
2.27586e-07
-1.44104e-05
-5.98346e-05
-6.67208e-05
-1.05873e-07
2.02868e-07
-2.66918e-05
0.000195641
2.47411e-05
5.83507e-06
1.3807e-07
1.77801e-07
-1.32606e-05
9.21144e-08
4.29903e-05
-8.27498e-06
-1.02655e-07
-1.81086e-05
1.80365e-07
9.97301e-06
-4.21318e-05
-3.51264e-05
-5.1887e-05
-2.51903e-05
-1.91812e-05
-4.74232e-05
6.98566e-07
5.10671e-07
6.88984e-08
0.000282555
-0.000786454
2.05398e-07
8.54983e-08
6.81724e-08
1.8794e-06
1.26781e-05
-5.80308e-05
-5.35564e-06
-1.83146e-07
-2.1825e-07
6.89932e-06
1.20954e-06
4.28043e-08
-1.19742e-07
2.57105e-05
-9.08479e-05
5.91853e-08
4.29507e-07
9.84617e-08
9.26607e-07
1.52412e-07
3.33424e-08
6.26037e-08
2.26108e-08
2.95821e-07
-5.70893e-05
-3.07355e-05
2.30776e-05
4.51474e-05
1.15888e-07
-2.40976e-08
-0.000400965
-2.46393e-05
-5.69613e-05
1.35893e-06
1.83669e-05
0.000100138
1.81828e-07
1.18539e-07
3.69508e-08
5.32518e-08
2.69068e-05
-0.000197737
9.43363e-06
1.77275e-05
-0.000135792
-4.48551e-05
0.000108406
1.45992e-05
0.000216704
4.30826e-07
-1.05998e-07
1.64053e-07
1.61496e-07
6.78559e-06
-7.02617e-06
7.99996e-07
7.19732e-07
2.47115e-08
3.65931e-08
-1.88907e-06
2.33432e-07
9.54351e-05
2.63576e-08
-9.0296e-06
-4.30419e-05
3.23197e-05
1.23355e-06
-0.000109821
-3.18762e-05
8.04492e-09
-1.63191e-05
-7.86211e-05
-9.01017e-05
1.71965e-08
2.03738e-06
1.22423e-08
-1.30004e-05
2.77852e-07
2.63725e-06
2.10734e-07
-1.37166e-05
2.20151e-05
3.29918e-08
1.12109e-06
8.82383e-05
5.29178e-05
1.07978e-05
9.90243e-07
-1.37316e-05
3.61416e-08
3.30114e-06
-1.00327e-05
5.50771e-08
4.86755e-07
1.08432e-06
-2.01142e-05
2.03354e-05
3.88261e-06
1.58726e-06
4.06079e-08
2.50431e-07
-1.75382e-07
5.45362e-07
6.20393e-07
0.000220984
-3.09508e-07
-3.37574e-05
3.19299e-05
-6.73972e-06
3.67679e-07
5.36487e-05
6.58382e-05
-6.53838e-07
1.06162e-06
1.00196e-07
1.6518e-07
2.49366e-07
3.75034e-05
-3.03735e-05
-2.57374e-08
7.38899e-08
-2.22211e-07
-1.88136e-07
1.87513e-08
1.4864e-05
-4.19642e-05
-1.92176e-08
1.59701e-08
2.49312e-08
4.36702e-07
-4.23806e-05
-2.89099e-07
9.73174e-06
3.98067e-08
2.5186e-05
7.71316e-05
-0.000988441
8.2859e-05
4.55347e-05
0.00027276
0.0010204
-7.78163e-05
4.51e-07
-3.91238e-07
-6.41227e-05
1.34948e-06
-3.12163e-08
-0.000112747
9.98687e-06
-2.0282e-05
1.01133e-07
-2.5477e-07
1.27622e-07
-0.000900402
4.13369e-05
-7.40407e-06
1.5043e-05
-6.14008e-06
-1.41898e-05
-5.06337e-06
4.33865e-05
-9.99315e-05
1.26303e-06
1.60461e-08
9.11265e-08
5.92039e-07
2.12391e-07
-0.00110479
-5.80858e-05
1.13787e-07
5.87803e-05
4.64633e-05
1.94214e-07
7.4364e-07
7.76836e-08
5.04197e-07
0.000105615
-2.76399e-05
1.4818e-06
2.1295e-07
3.8501e-07
1.92609e-07
-3.54834e-05
1.08439e-06
-7.67615e-05
1.93021e-05
3.65044e-07
5.07898e-07
3.58802e-07
-2.16057e-07
3.23065e-08
1.27846e-06
3.81482e-08
7.33426e-07
-2.62476e-05
-8.5689e-05
6.18284e-08
-5.26332e-06
8.88541e-08
7.7892e-05
0.000475767
5.62485e-06
9.11475e-08
5.87284e-07
8.99544e-08
2.93281e-06
-0.000151054
2.22704e-06
3.06836e-06
-3.77734e-05
3.52193e-08
1.06184e-05
-6.78144e-05
3.9438e-07
7.51185e-07
-1.23157e-05
1.73408e-05
3.92027e-08
1.11232e-07
-1.14758e-07
0.000388389
2.2983e-05
2.69987e-08
5.36128e-05
1.21983e-06
9.17907e-08
4.96649e-08
-5.72516e-05
6.50014e-05
6.32458e-09
3.83281e-06
-5.39322e-05
-0.000179129
1.55714e-07
-5.33137e-08
0.000229878
2.67734e-05
6.3299e-05
7.72799e-07
1.18294e-06
1.83968e-05
-1.48451e-05
0.000395188
-2.33796e-05
-8.94655e-06
7.08878e-07
-4.69528e-05
3.25131e-08
5.96984e-06
6.23192e-06
1.70701e-08
-1.21849e-05
8.37632e-07
1.22034e-07
9.94359e-08
-3.24211e-07
4.37647e-07
2.20824e-07
4.57808e-07
3.83413e-07
2.69529e-05
3.01622e-05
-0.000152724
1.74952e-06
2.88683e-05
1.12518e-06
-2.95256e-07
1.72336e-05
1.11742e-06
2.89708e-07
-4.40237e-05
1.24252e-07
-1.43779e-07
6.44345e-07
7.94856e-08
3.01979e-05
-5.50071e-06
3.70691e-07
2.24908e-06
2.09976e-07
2.99793e-07
-6.09265e-06
-8.68922e-07
8.59544e-06
1.23578e-06
1.47986e-08
1.53928e-07
3.20796e-05
3.70987e-07
1.20839e-06
-1.86288e-05
-5.59684e-07
6.69846e-07
2.77609e-06
7.79247e-05
1.56272e-07
-7.30681e-07
2.4223e-05
5.79615e-06
1.46417e-07
-0.000245731
-0.000341389
6.95636e-07
-6.33538e-05
1.30195e-05
3.31098e-05
0.000383591
5.12533e-07
-5.4669e-06
-3.96398e-06
4.3288e-05
-5.39419e-05
2.26903e-07
1.60465e-06
1.0566e-05
-0.000132021
0.000393558
9.28439e-06
4.81429e-07
0.000122842
2.02065e-05
2.28989e-05
9.26209e-07
-1.39946e-05
1.45e-07
4.62776e-05
1.21245e-06
1.05852e-06
1.43738e-07
1.22966e-06
-5.94716e-05
1.01382e-07
-1.58375e-07
1.18499e-05
7.6623e-07
1.09539e-06
8.03386e-07
-4.88341e-07
-0.000158197
6.21349e-07
2.04297e-06
1.14138e-05
-9.68632e-05
2.98059e-07
-2.44072e-05
2.54139e-06
-4.05775e-05
3.90295e-07
-2.62955e-06
1.61033e-07
7.87653e-09
3.64254e-08
1.95352e-07
1.33296e-05
1.32017e-07
-8.50964e-08
2.50173e-07
-9.7404e-09
5.84985e-08
-0.000217918
-1.03554e-05
2.75446e-05
-0.000109881
-2.27921e-07
1.8487e-06
0.000551487
1.71808e-06
1.05611e-07
1.95658e-08
4.96221e-06
3.29227e-06
-4.10352e-08
1.05608e-07
4.90808e-07
7.52192e-07
6.94392e-07
-6.21204e-05
8.19861e-07
5.75118e-08
1.65481e-06
-7.1487e-05
5.09589e-07
7.10891e-08
3.59358e-07
2.64079e-05
2.86529e-05
6.61988e-07
-3.41656e-05
0.000163617
-3.79579e-05
3.70018e-05
-7.25663e-06
7.59856e-08
-0.000185739
1.50834e-07
1.75067e-08
6.26579e-08
1.27351e-06
7.99336e-07
-2.87349e-07
6.09172e-07
-1.85549e-07
5.85968e-06
0.000221868
2.19223e-07
-1.55576e-07
9.4373e-07
-7.87686e-05
2.88293e-08
6.70922e-06
-8.1697e-08
2.70125e-06
3.78333e-08
8.95333e-08
9.08134e-05
1.59059e-07
4.36301e-07
-1.17204e-07
4.18768e-08
3.52018e-05
1.03418e-06
4.11867e-07
1.25918e-08
8.76243e-05
2.85851e-05
4.42499e-07
-1.59165e-06
-4.06727e-06
1.22982e-06
2.03987e-05
-5.76491e-06
-6.89628e-05
-3.18546e-07
-4.63449e-05
3.82487e-07
5.97292e-05
-7.88745e-06
1.10546e-07
-4.17817e-06
5.25723e-08
-1.69267e-05
2.69578e-07
7.86995e-05
3.78063e-07
4.71674e-07
-3.55722e-06
1.88421e-05
-8.22447e-06
2.26872e-06
9.22224e-08
0.0222573
1.10161e-05
7.22776e-07
1.2447e-06
5.14023e-05
0.000439504
4.99349e-08
3.77927e-08
3.36267e-06
0.000339052
-5.28277e-06
-0.000128094
4.3659e-08
3.69736e-06
1.20396e-08
1.56631e-05
4.54677e-05
-3.42749e-05
-8.70117e-06
1.48794e-05
4.13921e-08
-0.000531399
5.81335e-07
3.6635e-08
0.000249202
2.78388e-07
0.000640343
4.51033e-05
2.62851e-05
2.53094e-05
4.52574e-07
1.63406e-05
1.41881e-05
-1.91081e-05
2.16651e-07
9.74405e-08
-8.6335e-06
9.61e-08
-9.61608e-05
1.85271e-07
3.05589e-08
-2.14826e-07
-2.50644e-05
-3.09614e-07
2.68182e-05
-0.000478337
3.44276e-05
7.81958e-07
3.78993e-05
7.19624e-06
4.54087e-05
3.13319e-05
-6.77169e-05
-6.45647e-05
-2.8211e-05
1.84936e-08
1.88394e-06
3.88276e-05
2.02227e-05
-9.46808e-07
1.62073e-08
-3.17532e-08
6.10711e-05
-1.02606e-06
5.86689e-07
9.15327e-06
-1.04935e-08
1.97084e-08
-9.26601e-06
6.69966e-08
-0.000202896
1.13929e-08
-3.86434e-05
1.33632e-07
1.22536e-07
4.11426e-05
1.23676e-06
4.30981e-06
1.73678e-08
7.92074e-05
-4.28016e-06
5.9101e-07
1.14198e-05
5.19179e-05
8.34699e-06
4.75882e-08
2.61556e-08
-9.60019e-08
6.12963e-07
2.9934e-05
0.000126721
3.7386e-05
-1.39862e-07
4.76148e-06
9.495e-05
-3.62118e-05
-1.65205e-06
6.90377e-05
-0.000270407
-2.16885e-08
8.63274e-07
-0.000871932
-2.07746e-05
1.16369e-05
8.13637e-06
8.48157e-08
-4.29951e-05
6.4354e-05
8.66036e-08
5.79773e-07
1.27785e-06
6.4574e-05
9.14712e-08
6.10159e-07
2.66346e-05
-2.98707e-07
-2.83986e-05
7.8966e-07
5.55281e-05
5.30393e-06
1.85619e-05
4.38206e-08
2.85603e-05
9.85271e-06
4.25917e-05
2.63036e-07
3.21052e-06
-1.83069e-05
-3.78405e-09
5.41727e-06
6.67369e-07
1.51977e-07
3.69071e-06
5.67769e-06
3.82652e-07
2.14503e-07
-7.43041e-05
4.47371e-07
1.9336e-05
5.07885e-07
-1.17594e-07
2.132e-06
3.9751e-05
1.57861e-05
-2.0166e-05
-3.0547e-07
4.82e-07
4.66109e-06
1.20317e-06
-1.56815e-06
6.30929e-08
6.9723e-07
5.81874e-06
2.23245e-06
-2.42908e-05
4.09338e-06
-6.24704e-06
-4.556e-05
4.00154e-07
-6.62825e-05
2.13665e-06
3.50046e-06
-7.19301e-07
8.85921e-09
-7.46369e-06
-9.26351e-05
-1.09583e-05
1.97974e-05
3.67564e-07
-1.44517e-05
-4.19902e-05
-1.16127e-05
2.41107e-05
-4.84317e-06
7.33581e-05
-2.67834e-05
2.26519e-07
2.13793e-05
7.09697e-07
1.11314e-07
0.000120906
-1.21909e-06
1.20594e-07
-1.17845e-05
5.74073e-07
-1.89225e-06
-2.69824e-07
1.84793e-05
-6.74397e-05
-7.81492e-07
6.99698e-07
0.000606598
4.14364e-07
-1.32093e-05
-2.43348e-05
0.000292312
1.25306e-07
7.87984e-06
5.68729e-07
-3.28815e-05
3.92095e-07
2.76027e-05
8.73556e-07
1.64587e-06
0.000270661
1.51615e-07
4.32607e-06
-8.65215e-06
8.9788e-08
3.74732e-08
-1.23812e-05
8.1809e-07
5.70291e-07
6.21656e-07
1.40798e-07
-4.13081e-05
4.9109e-07
6.66889e-07
8.76397e-08
1.11712e-06
1.78426e-07
1.85445e-05
1.02562e-06
4.95188e-07
-1.7244e-08
0.000100724
2.02034e-06
-8.67889e-08
1.05129e-06
2.31019e-07
2.2864e-06
-3.55682e-05
-0.000546669
-6.06176e-05
-2.54629e-05
2.7023e-05
9.4646e-05
2.37493e-07
1.46993e-07
-2.96553e-06
4.46787e-05
1.32884e-05
-0.000569715
1.65264e-07
0.000355727
1.40421e-07
-5.22029e-05
-0.000112902
0.000163582
1.2186e-06
-2.36275e-05
-0.000892915
5.90039e-08
-3.69739e-05
0.000102999
-9.57162e-09
3.70151e-08
-0.000221912
4.38977e-08
2.14418e-05
2.9512e-07
6.07747e-07
1.03318e-06
5.15887e-08
5.73017e-08
-3.21865e-06
2.83959e-05
3.47342e-08
-6.24748e-05
4.10058e-05
1.30029e-05
1.04899e-05
4.66549e-05
5.08513e-08
0.000256452
4.43907e-06
1.6071e-07
-3.391e-06
5.27563e-07
7.9646e-07
1.07278e-05
1.79031e-08
-2.74155e-07
3.31855e-06
4.73095e-07
9.38532e-06
9.95829e-08
2.65575e-07
7.34472e-08
-1.49461e-07
-1.5949e-05
1.09477e-07
1.03281e-07
-0.000963728
2.80494e-06
1.44788e-06
2.69076e-07
3.85553e-05
1.73278e-05
2.27806e-08
9.70739e-06
-2.85418e-05
6.69099e-06
7.98492e-08
2.67662e-08
6.97411e-08
1.07311e-06
6.88264e-08
1.56711e-06
-0.00014387
4.53806e-08
3.36314e-06
-0.000148635
2.31608e-05
-6.70904e-06
4.74421e-07
1.20249e-05
-6.91896e-05
6.39601e-05
-3.0959e-06
6.50231e-06
5.52318e-05
4.73672e-08
-9.00393e-05
1.09864e-07
-8.60483e-06
2.00256e-08
1.05497e-06
2.28439e-08
0.00155845
-0.000620034
1.01018e-07
8.87516e-06
-0.00011161
3.64238e-07
-1.0982e-06
1.26206e-06
-8.1555e-07
1.22199e-06
1.89837e-06
1.23348e-05
5.08581e-07
0.000193159
-6.79431e-05
2.72246e-05
0.000325739
-2.57488e-05
2.19276e-08
8.16954e-09
2.56251e-06
4.24566e-05
-2.80058e-05
-3.63175e-05
7.81745e-06
-1.24771e-05
0.000213909
0.00125599
1.00313e-06
-5.70443e-05
1.08134e-06
-6.20219e-05
2.79827e-07
-6.27771e-05
4.52896e-08
1.03984e-06
1.03032e-06
-6.46128e-05
8.33356e-07
-2.12572e-05
3.14792e-07
2.39388e-08
-0.000209881
1.7042e-05
2.64753e-05
4.7012e-05
-3.10472e-05
-2.15527e-06
3.36942e-05
2.24669e-08
-1.28939e-05
-1.6744e-07
5.4762e-05
3.38068e-05
-8.51431e-05
0.000310334
3.6023e-05
-5.2179e-07
5.3957e-05
-2.68329e-05
1.03577e-07
-2.48979e-06
-5.23585e-06
4.96056e-08
1.28972e-05
6.45442e-06
2.94025e-05
2.37719e-07
4.80029e-07
5.30141e-05
6.12511e-07
5.03824e-06
-5.51286e-05
2.36305e-08
2.91789e-06
7.66851e-07
-2.5194e-06
1.84e-05
0.000171637
-2.58946e-05
-9.20153e-05
1.31511e-05
6.47229e-08
-0.00013125
-1.2867e-05
2.45293e-07
6.87844e-05
-7.35943e-05
0.00040149
3.02647e-08
-1.13002e-06
9.47331e-08
4.01678e-08
3.68363e-08
-2.99686e-05
-3.61162e-06
1.40787e-06
-2.00304e-05
1.21054e-07
1.04875e-07
7.1023e-05
-9.03207e-06
-0.000146564
1.91536e-07
1.77881e-08
-5.89894e-05
-3.68926e-06
-2.00781e-07
9.06487e-08
7.33489e-07
3.14486e-08
5.93384e-07
0.000453245
1.2602e-05
-2.49125e-07
2.45599e-07
9.59501e-07
5.52851e-06
1.36395e-06
-1.23946e-05
-2.19126e-05
2.32863e-07
4.00715e-07
-0.00151541
-0.000133476
-0.000160703
2.40096e-05
5.66129e-08
3.29576e-06
2.63193e-07
1.02004e-06
-9.98791e-05
4.72276e-06
-1.41397e-05
3.93351e-07
0.0005774
4.96241e-07
-1.61757e-05
3.77636e-08
1.07511e-05
-3.23042e-07
-1.25095e-05
-1.25257e-05
1.23907e-07
8.28497e-08
-3.86667e-06
2.68813e-08
-1.86021e-05
-1.94682e-05
1.46178e-05
-1.31771e-05
5.85145e-06
3.40703e-08
8.46137e-07
1.69733e-07
1.38908e-06
9.48225e-06
-1.59967e-05
6.49722e-05
-2.33591e-05
8.02409e-07
-3.29606e-06
1.2304e-07
9.60082e-05
9.41936e-06
3.36416e-08
3.2239e-08
-0.000440285
3.8097e-08
2.06542e-06
6.92463e-08
-6.35225e-09
-4.33904e-08
1.96782e-05
-4.08945e-05
3.47663e-05
6.25617e-06
1.4971e-08
2.17306e-06
1.49851e-06
4.94776e-05
1.23998e-06
2.59541e-06
3.49004e-07
0.000121239
2.94138e-07
8.92601e-07
-0.00157725
-1.27084e-07
-1.56027e-05
-0.00049716
1.47677e-06
1.34825e-07
1.35627e-06
4.16264e-06
-4.68375e-06
1.37883e-05
-3.02549e-05
4.5736e-08
5.61683e-06
1.00912e-06
2.55357e-08
-8.93776e-05