/*--------------------------------*- C++ -*----------------------------------*\
| =========                 |                                                 |
| \\      /  F ield         | OpenFOAM: The Open Source CFD Toolbox           |
|  \\    /   O peration     | Version:  v2012                                 |
|   \\  /    A nd           | Website:  www.openfoam.com                      |
|    \\/     M anipulation  |                                                 |
\*---------------------------------------------------------------------------*/
FoamFile
{
    version     2.0;
    format      ascii;
    class       volScalarField;
    location    "200";
    object      ddt0(k);
}
// * * * * * * * * * * * * * * * * * * * * * * * * * * * * * * * * * * * * * //

dimensions      [0 2 -3 0 0 0 0];


internalField   nonuniform List<scalar> 
14804
(
-1.24422e-09
-9.84959e-11
4.81079e-06
4.40868e-10
1.08618e-09
1.20505e-09
3.51913e-07
1.06359e-09
5.07334e-09
-4.09307e-09
3.23567e-07
1.13727e-06
-2.00823e-05
-1.17575e-06
1.34248e-06
7.75969e-10
-2.63547e-07
-4.69831e-07
7.77243e-10
-1.15302e-09
1.37849e-09
1.10866e-09
5.17764e-10
8.67937e-10
-3.30095e-05
3.41815e-07
3.53984e-07
1.0969e-09
1.36305e-06
1.02173e-06
5.1004e-06
-2.81787e-07
7.09802e-10
9.91861e-10
4.77873e-06
5.29908e-10
2.25473e-10
8.53362e-10
-8.68836e-06
-1.01304e-09
-1.33236e-06
1.87339e-07
-5.01168e-09
5.59562e-10
-2.3735e-06
-2.32199e-06
-1.55667e-07
4.28577e-10
2.04333e-09
1.37474e-09
9.82709e-10
-5.59879e-10
2.79709e-11
-1.60623e-09
6.90287e-10
1.11746e-09
3.29264e-07
-1.2463e-07
-2.0615e-07
-2.52685e-05
-1.15528e-07
4.86643e-06
-1.25955e-09
-1.56517e-10
5.7645e-10
1.07439e-06
-1.58641e-05
1.3989e-09
-3.61221e-09
8.87332e-10
7.21501e-10
1.5774e-09
5.35003e-10
1.20481e-09
4.74569e-06
1.00922e-09
6.36854e-10
1.68032e-09
-1.64919e-09
-1.11363e-09
-2.83807e-10
1.28172e-07
-6.04562e-10
6.96651e-07
2.35425e-09
7.20259e-10
-6.19654e-10
5.76572e-10
6.30921e-10
6.11875e-10
4.55054e-07
5.43264e-10
-1.00478e-09
4.03909e-10
-2.97749e-09
8.91355e-07
-7.44106e-10
-2.59165e-06
8.78134e-10
7.75386e-08
-2.49922e-06
2.31091e-06
2.93642e-08
5.46354e-10
7.11345e-09
-2.41075e-05
1.29578e-09
4.11829e-11
9.53147e-10
5.11175e-08
-8.8804e-10
1.30426e-09
7.12671e-06
4.99032e-10
7.38076e-10
4.75593e-06
1.67413e-07
-6.83961e-09
8.22284e-10
-7.04676e-10
4.564e-06
3.73137e-09
3.9245e-10
5.47588e-09
8.18534e-10
5.18751e-10
-8.98291e-10
-5.31566e-10
1.08809e-09
9.85503e-07
-9.22975e-11
8.67494e-07
2.87909e-09
7.47758e-06
8.87873e-11
5.47113e-07
3.37435e-06
6.00091e-09
4.76925e-06
2.03749e-06
2.25063e-10
1.68038e-09
5.55214e-09
5.6342e-10
-0.000172507
1.15274e-09
-9.17492e-08
5.70534e-06
6.31515e-07
1.33706e-09
-1.29593e-05
-6.31962e-11
2.98746e-08
0.000596903
-1.2595e-09
1.0633e-10
-1.62454e-05
6.62928e-10
8.0413e-10
6.72288e-07
9.47707e-10
-9.81237e-10
-3.05118e-10
3.20886e-09
1.11291e-09
-1.92836e-07
-2.96416e-10
-3.16123e-09
7.53587e-07
6.69904e-10
9.66283e-10
5.34303e-10
2.6711e-06
1.21252e-09
1.7145e-07
6.25579e-07
1.40368e-06
1.08128e-06
3.03032e-06
3.98234e-06
4.94937e-10
1.83994e-09
7.46645e-10
1.0319e-07
-1.34312e-10
4.82288e-06
4.87594e-07
5.79401e-07
6.44418e-06
6.03384e-10
1.40486e-09
4.60171e-06
7.31062e-07
-3.93051e-06
-7.20438e-07
8.39968e-07
8.84353e-07
5.3728e-07
7.09623e-10
1.4281e-06
8.46254e-10
1.43624e-09
-7.17526e-10
5.17419e-06
1.22026e-09
2.78788e-09
6.20415e-06
-2.30816e-05
1.33553e-10
4.20369e-10
3.37511e-10
4.49177e-06
2.40355e-09
4.78715e-10
1.4609e-06
1.1147e-10
-9.35856e-06
1.64604e-10
-7.18323e-08
-2.27717e-05
1.06939e-09
-2.32584e-06
3.22079e-10
2.80928e-06
6.95888e-07
8.91825e-09
5.74748e-07
9.41317e-11
-1.01799e-06
6.71166e-07
1.71105e-09
-5.80028e-07
8.21747e-10
4.44782e-10
-7.14843e-07
7.36308e-10
4.88097e-06
8.76335e-07
5.55938e-10
3.43705e-07
3.49478e-07
1.57919e-09
7.82276e-06
2.35935e-07
-2.30044e-12
6.24769e-11
1.27646e-09
-1.07387e-07
8.74199e-10
6.4053e-10
4.59707e-06
2.23572e-06
3.94617e-10
1.41717e-09
-7.01273e-10
-1.17039e-05
6.59667e-07
4.56427e-06
1.47948e-06
2.15167e-07
1.39363e-09
-3.15801e-05
-3.06615e-10
5.01491e-08
1.39461e-09
3.70487e-07
1.9521e-10
-7.09736e-06
7.05298e-07
-1.10261e-09
3.586e-10
-1.25882e-07
-8.88287e-08
2.44593e-07
-7.59501e-10
-1.62406e-06
-6.85373e-10
3.33705e-09
-1.07092e-09
-3.14649e-06
2.02581e-10
2.37597e-06
8.48266e-10
1.18663e-09
5.61338e-10
4.21286e-07
8.60062e-10
3.60434e-07
1.00167e-09
4.61307e-07
3.5222e-07
2.37968e-09
4.10922e-06
5.09414e-06
8.65283e-10
7.4968e-10
4.57025e-06
3.0693e-10
9.59443e-10
-7.82338e-10
-3.46539e-09
2.20157e-09
1.02111e-09
1.76811e-09
4.89007e-10
1.91627e-06
-1.06749e-05
4.57107e-10
1.30443e-06
6.03138e-10
-6.67685e-10
1.80989e-10
4.07945e-06
4.95456e-10
1.36522e-06
-6.24002e-10
-3.85663e-10
-8.97219e-10
1.63676e-06
-4.08186e-10
-3.28903e-09
6.95385e-10
5.08842e-06
5.90028e-06
3.78655e-10
1.2155e-09
9.53967e-10
4.65851e-06
4.39238e-06
5.74147e-09
-4.22599e-09
1.62035e-09
2.96003e-10
3.91558e-07
1.85072e-09
3.93401e-07
-1.61963e-09
4.54712e-07
4.97041e-06
4.19691e-07
5.99762e-07
-2.92766e-08
1.13731e-06
4.71504e-06
1.82188e-09
6.43736e-10
1.08735e-06
9.00163e-07
1.45306e-09
8.8747e-10
6.10248e-10
-1.14261e-09
8.18405e-10
8.38893e-06
1.4342e-09
-1.8347e-09
1.55287e-06
-2.27987e-10
6.86979e-06
3.88366e-10
-3.14862e-09
-7.12911e-10
2.50072e-06
2.28911e-06
3.78499e-07
2.11772e-09
3.75565e-10
4.71333e-06
2.06051e-06
-3.10795e-09
-2.31436e-09
6.81253e-07
-7.50497e-10
4.51189e-07
1.15338e-07
4.28717e-06
1.64389e-07
3.75846e-07
1.43566e-10
-6.02275e-10
-7.75622e-10
2.51966e-07
7.3284e-07
6.116e-10
-5.91328e-10
-1.22537e-09
7.98949e-10
1.43306e-09
6.02726e-07
-8.31023e-10
2.567e-06
-1.06484e-09
1.13388e-09
-3.48275e-10
4.76152e-10
2.65971e-07
3.05646e-07
4.35758e-10
7.02919e-09
-8.07998e-09
7.12794e-10
7.60625e-09
5.68343e-07
4.58807e-06
-7.65317e-08
9.3056e-10
8.7361e-09
-1.18871e-09
6.43091e-09
1.31472e-09
3.55747e-10
2.86425e-10
-2.38026e-07
6.45078e-07
-1.93177e-05
1.60437e-09
6.148e-06
6.50623e-10
6.78457e-10
7.56747e-10
1.53572e-06
8.80308e-10
9.78647e-09
1.11443e-06
1.24273e-09
1.00986e-10
1.18355e-09
2.37488e-07
7.12879e-10
7.19326e-10
1.46766e-09
-8.03688e-10
1.1157e-07
1.03919e-06
1.10698e-09
1.16567e-06
1.11796e-09
1.91925e-07
9.31211e-11
1.62849e-06
5.57258e-07
6.63131e-10
8.77722e-09
-8.0599e-10
1.81454e-09
1.55725e-09
2.2496e-06
1.06038e-09
8.82897e-10
7.51122e-06
-1.20165e-07
-6.66079e-06
2.17126e-06
3.01342e-07
6.46633e-07
3.88314e-10
4.1494e-06
3.50159e-10
-4.68304e-09
8.3957e-10
7.53177e-10
-6.64895e-09
1.25008e-09
9.49627e-06
3.27961e-10
-6.45992e-07
1.83823e-09
-6.25626e-10
7.11803e-07
6.56188e-10
3.50634e-10
4.25899e-10
4.88628e-07
6.31352e-06
1.23885e-06
-2.66122e-09
-7.23201e-10
-1.06496e-07
-1.12164e-09
-6.18664e-10
9.83522e-10
7.76972e-07
1.35126e-06
-1.29145e-07
4.95107e-06
6.62074e-08
4.75347e-06
4.65989e-10
2.36012e-06
5.37937e-07
1.8453e-06
3.9593e-07
-3.83297e-09
9.17718e-08
1.0969e-06
-3.00105e-09
-2.89501e-10
7.32147e-07
-4.19771e-10
1.10641e-09
4.64687e-10
8.86178e-10
-1.45474e-09
2.35391e-07
1.22457e-09
5.74217e-09
-2.79454e-09
1.1281e-09
-8.52891e-10
4.99989e-06
3.5889e-09
1.93777e-06
6.75312e-07
8.67029e-10
1.24371e-09
-6.10737e-06
6.60696e-07
1.8113e-06
1.79838e-10
7.21566e-10
1.41319e-09
1.1654e-09
1.09954e-06
2.26988e-06
6.12437e-07
6.59608e-07
-7.68514e-08
8.58066e-07
1.27747e-06
5.67557e-07
-2.48807e-05
9.22433e-11
6.15257e-07
3.86487e-06
-7.91585e-07
-2.74551e-10
-2.51638e-05
8.81622e-10
-6.59232e-08
6.79317e-07
1.12333e-09
-1.9193e-06
2.70109e-10
-1.8649e-09
-1.41858e-09
1.24812e-09
1.72524e-07
4.58688e-10
1.21574e-09
2.85331e-09
2.25005e-09
-8.47204e-10
1.63085e-10
5.58974e-11
-1.81261e-08
-3.08421e-09
4.86446e-06
-6.43809e-06
1.11017e-09
2.87698e-07
2.20125e-11
-8.71686e-08
3.25979e-10
4.46661e-06
9.62445e-10
2.27962e-06
-1.0388e-10
3.2587e-09
1.22636e-06
1.49489e-09
1.02902e-09
6.28008e-08
4.47204e-06
5.97511e-07
-1.63366e-09
5.91097e-10
8.28967e-06
2.09872e-06
5.44378e-08
-1.07295e-09
1.26308e-06
-1.31621e-09
1.93199e-09
-3.40143e-07
3.78443e-07
4.49909e-07
1.98593e-10
2.61738e-10
3.95339e-10
3.58652e-10
1.82349e-07
1.07812e-09
-1.64279e-05
6.94881e-06
-2.32852e-05
1.15359e-06
2.84397e-07
4.75962e-07
-1.7268e-08
1.2047e-09
1.14425e-06
4.54482e-06
4.32972e-10
-2.54458e-09
4.13757e-07
5.78979e-07
1.3168e-09
2.33612e-06
8.62654e-10
-2.02428e-09
1.70004e-06
1.40333e-09
5.27869e-07
2.06136e-06
1.26509e-06
-2.13556e-07
-6.71713e-06
1.39911e-09
9.91715e-07
-1.20299e-09
6.47538e-11
-1.02937e-07
-1.15751e-07
6.11426e-07
1.43605e-09
8.59818e-10
6.07799e-06
9.52947e-10
-2.4219e-06
1.17767e-09
-1.21022e-09
-1.61541e-09
3.84091e-07
2.16702e-10
1.13432e-09
-1.68263e-09
-4.56022e-09
8.92917e-07
2.78912e-09
1.08535e-09
8.63149e-07
3.0569e-06
5.34988e-10
1.73032e-09
-1.27255e-10
1.51882e-09
1.04691e-09
-1.00832e-09
1.80519e-10
2.01956e-10
3.83182e-06
2.77617e-07
4.63447e-10
-1.2491e-10
-1.41743e-07
-9.4795e-07
-1.87974e-05
-4.23594e-09
-6.50715e-10
-7.9527e-09
-2.02742e-07
7.64486e-10
2.42817e-06
7.90397e-10
-4.56392e-09
2.09688e-06
1.95405e-06
4.66578e-06
3.88954e-08
-1.89191e-09
1.14811e-06
1.24372e-09
9.45794e-10
-6.17793e-07
1.08133e-09
1.09621e-09
1.59778e-05
5.23618e-09
-3.44958e-07
2.5662e-07
-2.0017e-09
6.21692e-09
7.881e-07
1.77399e-06
4.36009e-09
1.10258e-09
1.33131e-06
-1.34925e-10
-7.42385e-10
1.27195e-09
-1.09951e-09
1.20744e-06
5.61142e-07
1.21572e-09
-8.9173e-11
1.09642e-09
1.64137e-09
-1.58451e-05
1.555e-09
1.00055e-07
-1.52948e-10
2.90098e-07
-7.87816e-10
5.15808e-11
2.81058e-06
-4.01196e-08
3.26752e-07
4.74774e-06
1.03545e-09
2.00267e-06
3.45892e-10
3.49701e-09
5.20439e-07
5.69615e-07
1.21599e-06
-7.78426e-09
1.38664e-09
-6.2909e-10
1.86343e-08
-3.00972e-06
-3.46078e-05
5.9045e-10
4.31433e-11
-6.57458e-10
1.36724e-06
3.7375e-06
7.05559e-10
1.94877e-09
-1.08148e-09
1.14129e-05
-2.33959e-07
6.22976e-06
-1.21472e-05
1.07962e-06
-2.19946e-07
1.12101e-10
1.15158e-09
1.80528e-10
1.24428e-06
1.33226e-09
5.64233e-09
-1.50576e-05
4.49587e-10
5.97432e-10
3.76035e-07
6.75628e-10
-4.92541e-07
1.38308e-09
3.77365e-10
-2.76434e-09
5.75458e-10
2.80053e-09
1.39409e-06
1.65711e-09
6.36384e-07
1.03941e-09
8.01237e-06
1.06697e-09
4.40457e-06
1.40849e-09
6.71882e-09
4.17199e-10
-2.14931e-07
5.55628e-07
3.60912e-07
5.23835e-06
-1.9682e-10
-1.23242e-09
6.77257e-07
-2.80912e-06
2.7928e-07
-2.2896e-08
1.1563e-09
2.69111e-10
5.5042e-07
3.73788e-09
9.16338e-10
6.46741e-10
2.28316e-07
-1.77122e-05
5.06794e-06
-6.36784e-10
5.87663e-10
7.06529e-07
1.17368e-09
2.09602e-06
1.70395e-06
5.22907e-09
3.87485e-10
1.30836e-06
6.95431e-08
3.27307e-11
-1.16386e-10
1.68438e-09
1.87999e-10
6.27461e-09
1.36256e-06
-3.88672e-05
2.74892e-10
6.41117e-10
8.7654e-07
2.58888e-10
4.93772e-10
1.50228e-07
-1.75739e-09
9.71471e-10
3.2113e-10
-4.63994e-09
1.2372e-09
4.80884e-09
2.05515e-06
-1.36514e-11
5.51193e-07
5.57489e-10
4.93605e-06
1.41454e-10
8.16165e-10
5.35085e-07
-3.14263e-06
2.28444e-06
5.22252e-09
-5.78741e-06
6.59996e-09
7.73035e-10
4.21872e-06
4.30343e-10
1.53792e-10
1.39095e-10
1.63739e-10
2.35604e-06
1.08743e-09
6.80848e-10
-9.8095e-10
-1.68583e-10
2.492e-06
1.2777e-09
-7.18504e-08
4.44855e-10
-5.13763e-09
1.24857e-06
5.30598e-06
-3.74262e-06
5.41525e-10
1.61553e-06
3.78527e-08
1.88538e-06
6.14711e-10
5.01842e-09
1.49993e-09
1.61697e-09
1.55891e-09
4.73119e-10
7.53983e-07
4.81908e-06
1.44037e-09
3.59061e-09
8.49453e-10
2.1134e-09
8.88639e-07
-7.47606e-07
6.81028e-10
6.02785e-10
6.80474e-06
4.81409e-06
3.42675e-10
6.56989e-10
4.94428e-06
3.73291e-09
2.15388e-06
4.91938e-06
2.44377e-10
7.44033e-10
2.81493e-10
-7.50745e-06
-1.25526e-09
-1.7268e-10
8.93991e-10
6.86433e-07
-1.30189e-09
1.2283e-09
7.15225e-11
4.08137e-10
1.28085e-09
-5.01989e-10
9.25202e-11
1.21573e-06
-1.26928e-06
1.43053e-06
-1.1389e-05
9.34939e-07
3.59713e-10
8.3184e-10
6.05175e-07
9.67469e-10
4.61856e-10
1.25068e-06
6.28068e-11
-6.37348e-09
4.8002e-06
1.19757e-09
8.95287e-10
9.6299e-11
2.31938e-09
1.01801e-09
4.75371e-09
4.56406e-10
1.38586e-09
-1.65269e-06
4.488e-06
1.87643e-09
1.05236e-09
3.36664e-10
4.49882e-06
-8.07699e-06
1.25569e-09
3.42713e-07
-2.07013e-06
3.41067e-10
1.25875e-08
3.8735e-07
-4.18837e-10
8.44639e-10
8.41716e-10
6.60792e-10
5.26064e-06
4.40412e-06
1.94787e-09
5.3976e-09
-3.49495e-10
6.12227e-10
-1.78247e-09
1.14234e-10
5.40507e-10
1.07708e-09
1.00675e-06
6.33759e-07
2.07409e-09
1.50579e-06
-3.18699e-08
1.26718e-06
1.08386e-09
5.13224e-09
-1.73886e-06
4.7389e-06
9.59789e-07
4.27048e-06
5.36733e-10
3.40203e-09
1.0867e-06
7.61307e-10
9.62381e-10
1.00741e-09
1.00211e-09
5.50205e-06
1.22784e-09
1.26458e-09
3.80868e-10
1.08615e-06
1.9199e-06
3.1297e-10
6.44339e-09
5.07965e-06
2.53139e-10
1.37813e-09
2.69227e-10
1.94392e-09
9.81626e-10
-9.38004e-11
1.05209e-06
1.29645e-09
4.39245e-07
6.69529e-07
6.68965e-10
-1.50516e-09
-2.04811e-09
-8.28355e-06
4.47694e-10
-3.95317e-09
7.81741e-10
1.40423e-06
9.46569e-10
4.9872e-06
1.28107e-06
1.65806e-06
2.96732e-10
-3.41039e-08
5.47532e-06
3.30116e-09
1.3282e-09
6.79327e-10
7.30766e-09
5.68035e-08
1.10453e-06
5.0788e-06
-6.60698e-10
-4.36232e-06
9.19173e-11
6.10389e-10
1.24376e-06
3.0447e-06
1.57758e-09
1.32229e-06
-5.84858e-08
5.76717e-10
-5.53591e-06
-1.47961e-08
1.43482e-06
6.2839e-10
5.20304e-10
7.88436e-09
1.4307e-09
2.67375e-07
-9.34643e-10
1.05433e-09
9.71474e-10
2.96265e-06
8.85424e-10
1.05349e-09
-3.95441e-09
-2.37992e-11
1.74258e-06
3.85298e-07
2.59029e-06
3.99474e-09
1.16597e-09
2.36537e-06
4.86818e-06
4.57631e-10
1.12584e-09
5.76033e-10
9.46878e-10
3.22145e-06
1.20865e-09
-3.83544e-09
2.29483e-06
5.84311e-09
8.29638e-11
8.33646e-11
4.74089e-11
-3.77169e-09
1.09591e-10
9.54843e-11
1.12361e-09
6.04153e-10
2.09638e-06
2.3746e-08
1.5589e-06
5.65435e-09
4.53319e-06
-3.04449e-06
6.82249e-06
6.45402e-06
6.14211e-10
-3.59952e-06
5.86335e-06
4.68539e-06
-1.82005e-09
-1.56753e-09
5.13945e-10
1.77658e-06
1.24245e-06
7.39137e-10
7.557e-09
1.08686e-09
6.46304e-10
-1.17043e-07
4.6467e-08
-2.02359e-08
-2.2888e-10
9.06948e-10
7.37342e-10
5.97244e-10
2.29867e-09
-1.43522e-09
8.82109e-10
-1.05745e-09
2.62017e-06
6.57695e-10
9.34121e-10
-7.82397e-11
1.6656e-06
4.4068e-06
1.48017e-09
4.48104e-10
4.90337e-09
-1.22313e-09
2.60922e-06
-5.84101e-09
4.65681e-10
1.76175e-10
1.4715e-08
1.9603e-09
4.03517e-07
2.87694e-10
9.25214e-07
2.99441e-06
8.93332e-10
2.64399e-06
1.41774e-06
-1.47058e-09
-1.17374e-09
4.73959e-06
6.77257e-07
7.2574e-08
5.77584e-10
1.30704e-07
6.8723e-07
5.15814e-06
3.41334e-10
5.921e-09
7.50429e-10
1.09784e-06
-3.02182e-09
8.4478e-10
6.17921e-07
-8.59076e-08
5.09029e-10
9.03505e-10
6.98074e-07
1.15262e-06
4.9072e-07
-6.22495e-07
5.64545e-07
5.65686e-09
1.23557e-09
-2.11664e-10
2.62714e-06
4.13952e-07
4.84189e-06
-1.07183e-09
-3.69274e-09
5.01422e-06
-1.34537e-09
6.41101e-10
3.65673e-07
1.55581e-09
4.8285e-06
1.49904e-09
4.84269e-10
-3.60689e-10
6.68972e-10
-4.56905e-10
-1.07964e-06
1.49389e-09
1.74638e-06
-6.6033e-06
-3.3839e-09
8.14382e-10
2.27784e-06
-1.12724e-07
1.09796e-09
4.31752e-11
5.5128e-10
2.21688e-06
-9.22882e-10
7.66332e-07
9.87067e-10
-1.01054e-09
9.44532e-07
5.42524e-06
1.30968e-06
-4.88904e-08
2.16733e-09
3.19256e-10
4.47979e-06
4.54433e-07
1.37438e-06
3.43248e-10
1.15944e-06
1.22269e-09
2.81206e-10
1.12002e-09
7.33089e-10
5.05708e-06
-5.31287e-09
5.01584e-09
-3.8629e-07
-2.91844e-06
1.81396e-06
4.88438e-06
1.08359e-09
2.52407e-09
1.74287e-07
6.60576e-10
1.31858e-08
5.98181e-10
1.22282e-09
-1.21353e-06
-2.23848e-09
2.77663e-09
-9.81707e-06
6.8275e-07
2.70007e-09
1.12e-09
-1.91706e-09
8.45375e-10
-9.10297e-07
-7.62232e-10
8.42458e-07
1.18025e-09
-7.34617e-07
4.79528e-06
1.63787e-06
4.80158e-06
-7.99184e-06
-5.65695e-10
7.39426e-07
1.59838e-06
1.2083e-06
-1.04935e-09
2.63218e-09
4.90685e-06
1.35834e-11
2.87413e-07
1.19475e-06
-8.15937e-07
2.52824e-10
2.58079e-06
5.78243e-07
5.34665e-06
8.6722e-07
-2.50031e-09
-2.62486e-09
4.82371e-10
1.23115e-06
8.45311e-10
6.5805e-10
1.2789e-09
4.85662e-10
-2.5586e-09
1.09353e-06
-1.17192e-08
1.59548e-06
4.01454e-10
6.17836e-07
1.13526e-09
8.39137e-06
1.40902e-10
3.92521e-06
9.50288e-07
7.35971e-10
-1.11996e-07
-3.64109e-09
6.25706e-07
2.51267e-06
7.99456e-11
6.5482e-10
1.09717e-09
8.87179e-10
1.91756e-09
1.71295e-09
1.73656e-09
-2.04386e-07
6.68742e-10
-1.16894e-05
2.47919e-09
3.08131e-07
1.45548e-06
4.48289e-09
-2.98914e-08
5.2547e-06
7.66258e-10
5.69051e-10
8.13259e-10
3.27732e-06
1.50262e-09
-1.59044e-05
1.27852e-08
9.22926e-11
-3.37416e-10
2.7082e-10
4.89949e-06
1.98024e-09
6.95308e-07
5.0861e-06
-1.33697e-09
2.6589e-06
7.08162e-07
8.02219e-10
-2.77896e-06
1.24207e-09
3.30161e-10
1.64145e-09
6.61703e-09
-3.95387e-09
3.51258e-07
4.10512e-07
1.13329e-09
3.94102e-09
3.96241e-06
1.19132e-09
5.34413e-06
-3.68055e-06
5.36789e-07
9.65601e-10
3.35747e-07
-1.97701e-09
-2.46753e-06
5.51776e-10
1.60804e-09
5.8794e-07
1.88286e-08
1.27978e-09
1.42809e-05
4.89285e-06
-1.94411e-09
4.70723e-06
2.62846e-09
5.31097e-10
1.08065e-10
3.24241e-10
-1.09774e-09
1.13287e-09
2.03161e-06
6.54863e-07
1.49391e-06
9.38835e-10
1.83624e-09
7.57855e-07
1.20078e-09
1.43445e-06
2.3001e-06
1.736e-08
1.53509e-10
-1.09117e-08
1.12657e-09
8.90888e-07
5.00821e-06
1.20472e-09
6.96165e-07
4.8165e-06
3.57642e-09
1.30126e-06
-2.00089e-09
6.6998e-10
3.10796e-07
2.82699e-07
8.35145e-10
1.01648e-06
4.7751e-06
1.2445e-06
2.6173e-10
-4.10179e-09
4.63873e-06
1.11492e-06
-1.8501e-09
4.98895e-06
-2.98699e-10
5.87496e-10
3.38855e-07
-6.22549e-06
2.29082e-10
5.30207e-10
4.44902e-09
5.1923e-07
8.41882e-10
9.87922e-10
-1.84359e-09
-3.05925e-06
1.24013e-09
6.96351e-08
1.68303e-10
1.22328e-09
5.08277e-06
1.18778e-09
6.02513e-07
1.78616e-09
6.01177e-10
6.52192e-07
1.59146e-07
1.15342e-08
-1.36613e-09
7.46586e-10
7.95985e-07
-6.54569e-08
7.294e-07
-8.24184e-09
1.55425e-09
9.90578e-10
-1.93864e-10
1.27074e-09
5.10913e-06
7.41264e-07
-7.82902e-10
1.81669e-08
1.63764e-09
-9.24191e-07
1.39532e-06
-1.93012e-08
2.10972e-07
-2.69907e-08
7.29598e-07
2.34937e-06
1.70647e-09
4.28668e-09
5.66217e-10
-3.08439e-06
-2.29109e-05
5.74272e-10
1.21971e-09
8.96245e-10
-2.76327e-09
2.00789e-06
2.37317e-06
4.13846e-06
-1.26906e-09
-2.45993e-09
4.41937e-06
4.05513e-10
4.51547e-10
-8.17532e-10
5.27341e-06
-1.06947e-06
3.95078e-10
1.10031e-09
1.33109e-09
-4.69159e-09
5.73415e-10
3.11683e-10
7.89342e-10
2.98042e-10
1.26819e-06
7.97808e-07
5.97958e-07
5.05141e-06
1.05961e-07
1.38529e-09
-8.92996e-11
-1.38012e-08
-7.87201e-09
5.09624e-06
-8.33942e-10
4.78157e-07
-1.00186e-05
7.08945e-10
1.51981e-09
3.88534e-10
7.22465e-10
1.45508e-08
8.41068e-06
2.01161e-06
-1.85498e-08
-3.35245e-09
1.18733e-09
2.89301e-07
1.46703e-07
-5.3362e-06
7.35086e-10
-1.38868e-09
1.34661e-09
1.36245e-09
5.64996e-09
1.4977e-06
6.48106e-10
1.26826e-09
3.31009e-10
2.41596e-09
-5.57515e-09
6.6183e-10
-5.02099e-08
3.54491e-10
-2.07525e-08
2.63702e-06
-1.22511e-06
7.01912e-10
9.27331e-07
3.90652e-07
1.14892e-10
4.64814e-07
7.72678e-07
-3.61645e-06
2.24396e-10
1.87677e-09
1.64423e-10
7.49788e-07
7.60504e-10
4.48481e-06
1.11089e-09
2.28255e-07
5.30866e-06
4.5364e-10
7.84526e-10
-9.53556e-08
4.74036e-06
7.3303e-08
6.5245e-10
7.49303e-07
4.87714e-10
1.70275e-06
8.54775e-09
3.26566e-10
5.63474e-10
3.00645e-09
6.22867e-07
5.87186e-07
-7.65085e-09
1.59414e-06
5.41818e-10
1.57062e-09
-1.23464e-09
1.96475e-09
1.20865e-09
-6.03069e-05
-5.86127e-09
1.50107e-06
5.3154e-06
6.71141e-07
4.17196e-06
2.89807e-09
6.02934e-06
-3.26408e-09
2.96318e-09
7.50722e-10
1.63911e-09
-7.62317e-09
2.3393e-08
1.27289e-06
-5.04559e-10
6.87693e-10
-2.1962e-09
3.73619e-10
2.49046e-10
1.47176e-08
-1.92094e-06
-9.85188e-11
2.1688e-10
3.31865e-10
-5.60325e-09
2.45514e-06
-3.80468e-09
4.47102e-06
5.65926e-10
5.08451e-06
-3.82005e-08
-1.35804e-05
1.38554e-07
6.00618e-06
6.86793e-07
-3.15944e-06
-2.12438e-06
1.33536e-09
-6.7626e-09
7.94293e-06
1.33872e-09
-4.23727e-10
-7.28043e-07
1.36962e-06
3.29226e-09
4.61547e-10
-3.46817e-09
8.48636e-10
-6.62342e-06
5.04913e-06
9.91749e-09
4.59927e-06
5.4908e-07
-3.2284e-08
1.45129e-06
6.53817e-08
3.64978e-07
9.63765e-10
2.20533e-10
1.27648e-09
2.95431e-10
6.41215e-10
-2.25849e-05
-1.47677e-06
1.39781e-09
2.89165e-08
5.10428e-06
5.38271e-10
1.09921e-09
4.82064e-10
9.9824e-10
-5.53236e-06
1.22139e-06
1.33608e-09
4.7207e-10
8.07698e-10
8.83686e-10
2.29632e-09
-5.2403e-06
-2.87408e-07
3.57373e-08
2.1739e-09
3.36423e-09
8.27594e-10
4.02383e-10
4.50487e-10
1.32946e-09
5.23652e-10
1.17785e-09
-1.36625e-08
5.97734e-07
3.22892e-10
3.71957e-07
4.55902e-10
8.7557e-06
2.39339e-06
5.04894e-09
1.16258e-09
1.22367e-08
1.2484e-09
1.07891e-09
-1.06453e-05
1.2527e-06
3.02531e-09
-8.07289e-07
5.07493e-10
4.49313e-06
3.63674e-06
1.22703e-09
1.33575e-09
6.09963e-07
-4.45913e-08
5.23491e-10
5.96449e-10
-9.273e-10
1.76808e-07
5.10907e-06
9.70003e-11
5.51592e-06
7.4912e-10
6.74569e-10
6.76282e-10
2.18881e-06
7.50313e-08
8.62789e-11
1.26723e-06
4.29927e-07
-2.00337e-06
9.63326e-10
-5.79836e-10
4.47871e-06
5.00833e-06
2.64874e-08
9.40113e-10
1.77014e-09
5.16271e-06
-3.1671e-08
1.001e-08
-8.92911e-08
1.4835e-08
8.25935e-10
1.26966e-07
4.427e-10
3.40068e-08
1.35838e-06
2.22514e-10
1.23207e-06
1.25414e-09
1.39365e-09
1.27168e-09
5.74387e-07
8.98762e-10
1.51326e-09
8.17606e-10
1.21584e-09
3.35838e-06
5.12842e-06
2.39452e-07
5.25426e-09
-1.52386e-06
8.97971e-10
-1.41609e-09
6.03027e-07
8.66777e-10
5.27024e-10
-1.02402e-06
1.54355e-09
-2.0797e-09
2.14907e-10
6.71848e-10
-1.34581e-06
7.48858e-07
1.2279e-09
1.63486e-07
6.56324e-10
8.65012e-10
3.29107e-07
4.98466e-09
-4.57688e-07
1.73907e-09
1.62353e-10
5.7133e-10
8.55872e-08
8.36885e-10
1.63307e-09
-1.60728e-08
4.55555e-09
7.01868e-10
-2.16119e-05
9.52287e-08
5.12495e-10
-7.0857e-09
1.41591e-08
6.2967e-09
7.1759e-10
5.50701e-07
-1.39187e-06
7.96441e-10
-2.54896e-05
4.62217e-06
5.63467e-06
4.00545e-07
9.98691e-10
4.50351e-08
-4.29592e-09
8.79182e-09
7.7461e-07
1.76299e-09
-1.16356e-09
4.69906e-06
-8.25878e-10
-8.36033e-07
9.03678e-09
1.01007e-09
2.57102e-06
5.37399e-06
7.51185e-07
6.30368e-09
-8.11926e-10
4.71638e-10
1.68991e-06
4.44441e-06
1.06469e-06
1.0453e-09
1.45286e-09
-4.43595e-08
1.00374e-09
3.0107e-11
-5.52455e-09
1.27543e-09
1.38404e-09
5.82488e-10
8.27911e-06
2.6366e-06
-1.43772e-09
-3.38154e-09
4.13471e-06
2.71782e-07
5.17878e-10
-9.42318e-08
2.29502e-09
4.15592e-07
2.29114e-09
1.62675e-06
8.22933e-10
9.97329e-11
5.05707e-10
1.16687e-09
6.02261e-09
1.52493e-09
-1.06762e-09
5.93836e-10
-2.88407e-11
7.8932e-10
-3.53519e-05
-4.1888e-08
1.83557e-09
-8.13914e-07
2.54516e-09
1.64468e-09
2.05418e-08
7.80107e-09
1.34279e-09
2.58776e-10
1.13487e-06
-6.14625e-10
-4.45594e-10
1.36193e-09
2.06024e-09
2.02612e-10
1.02361e-09
-5.53686e-06
4.85042e-10
7.91813e-10
-7.11663e-10
1.28994e-05
2.16266e-09
5.96876e-10
7.89355e-10
4.87277e-06
4.99446e-06
7.08219e-10
1.81758e-06
1.07579e-06
7.89887e-07
1.42562e-08
6.94868e-07
1.03007e-09
8.50037e-07
7.13713e-10
2.17383e-10
8.51262e-10
8.0862e-10
8.74064e-10
-1.14346e-09
1.17878e-09
-1.18784e-09
-1.908e-09
1.30752e-06
1.7813e-09
8.4759e-10
8.87394e-10
-1.7664e-07
3.82818e-10
3.04993e-06
-6.42268e-10
3.17691e-07
5.13138e-10
1.26732e-09
-9.19568e-08
9.88109e-10
8.9281e-10
-1.05633e-09
5.62626e-10
1.55749e-08
5.31135e-09
1.26319e-09
2.3039e-10
6.44726e-06
-1.1964e-07
1.84818e-09
1.20872e-06
1.51283e-06
-1.60553e-09
4.89056e-06
1.07085e-06
-2.79138e-07
-2.22682e-09
-6.2562e-09
1.22285e-09
-6.47924e-09
6.50459e-07
1.37471e-09
5.34199e-09
7.05303e-10
9.7717e-09
5.34796e-10
-1.96369e-05
7.80765e-10
7.51408e-10
6.25241e-07
5.22295e-08
3.88575e-09
2.08188e-09
1.14061e-09
0.00124829
3.50083e-06
-3.74037e-09
3.25868e-09
1.23293e-06
2.55922e-06
6.81577e-10
5.08931e-10
3.01627e-09
2.25386e-06
6.59154e-07
-1.46561e-06
5.87296e-10
-4.74693e-10
1.49594e-10
4.58377e-06
8.99131e-06
8.87067e-08
1.24812e-06
9.79028e-07
5.57975e-10
-3.84134e-05
1.57269e-09
5.02559e-10
2.38019e-06
5.54907e-10
6.62578e-07
-4.83226e-08
2.97772e-06
4.872e-06
9.81507e-10
1.24332e-07
1.27438e-07
6.26556e-07
6.54799e-10
1.31148e-09
7.17821e-07
5.49187e-10
1.23145e-06
1.48359e-09
4.16065e-10
1.23986e-10
2.37294e-07
-2.60434e-09
5.05777e-06
1.00848e-06
4.3097e-08
9.86644e-10
1.17514e-07
3.99424e-07
-5.38636e-07
5.179e-06
1.77016e-06
1.97648e-06
-1.33538e-08
2.21115e-10
1.89394e-09
-8.22716e-09
5.24549e-06
-7.27671e-09
2.0865e-10
-1.78603e-10
5.49915e-06
2.83717e-09
1.09934e-09
-3.95268e-09
1.14632e-11
2.56212e-10
-3.50523e-08
3.88074e-10
6.37156e-07
1.47449e-10
1.25301e-06
6.36719e-10
1.50975e-09
5.23405e-06
8.38705e-10
-1.87816e-09
2.32314e-10
-8.58269e-07
3.7371e-08
2.28135e-09
1.68164e-08
4.81508e-06
1.46737e-06
5.29109e-10
-2.94295e-10
1.19806e-09
1.15976e-09
8.32454e-07
3.92435e-06
8.2944e-07
-1.04595e-09
4.44275e-09
2.93053e-06
2.59014e-06
5.87466e-07
9.24685e-07
4.50245e-07
-7.54949e-11
1.1128e-09
-4.61849e-06
1.44822e-06
7.78783e-09
4.10705e-07
1.17095e-09
2.87894e-06
7.6846e-07
1.16072e-09
2.11628e-09
4.62841e-10
7.67513e-06
1.24355e-09
2.55609e-09
6.71989e-07
-3.92801e-09
3.52036e-07
5.54023e-10
5.22773e-06
3.43296e-07
7.03671e-08
5.95373e-10
8.13927e-07
4.76605e-07
8.19833e-07
5.63513e-10
2.5576e-06
1.28013e-06
6.72184e-11
-7.63199e-09
6.47547e-10
1.06995e-09
1.00924e-06
5.23056e-10
7.16562e-10
1.09738e-09
-1.73466e-06
2.57119e-09
4.30873e-08
7.81067e-10
-8.91096e-10
6.189e-09
1.27189e-08
4.82096e-06
1.02865e-06
-3.89616e-09
4.86584e-10
1.91738e-09
2.42253e-09
1.14739e-06
5.99812e-10
9.63963e-10
3.68173e-06
1.20045e-06
3.59607e-07
1.17349e-06
-1.55522e-09
-5.14517e-07
1.08947e-09
-3.12357e-07
1.4973e-09
3.76834e-09
-1.19335e-09
1.20044e-10
7.01027e-07
2.00271e-06
2.62685e-07
4.95251e-06
1.0039e-06
-3.84242e-08
3.45835e-07
6.21131e-07
5.18756e-06
1.49021e-06
8.38963e-07
5.54505e-07
1.40456e-08
-8.25837e-08
1.24368e-09
1.44139e-09
7.76899e-07
-8.65924e-09
1.38061e-09
6.16259e-07
1.04156e-09
2.14972e-09
-9.59335e-10
7.13334e-07
1.78353e-06
2.34402e-07
3.4563e-09
3.96266e-06
1.80378e-09
6.59762e-07
7.49155e-07
6.97729e-07
5.2548e-10
3.8235e-07
1.07952e-09
-6.09701e-08
1.23533e-09
7.3584e-07
1.53718e-09
7.09389e-10
9.85168e-07
5.11191e-10
2.92736e-08
7.26383e-07
1.26442e-09
5.05669e-10
3.85057e-07
-5.6183e-10
1.12551e-09
1.31633e-06
1.08388e-09
1.23815e-06
2.78323e-09
1.00338e-09
4.91386e-10
2.54113e-09
1.67198e-09
-6.97631e-08
1.2719e-06
3.20767e-09
-2.11523e-11
9.07204e-07
1.99091e-09
-5.65388e-10
6.94504e-10
7.03696e-10
-3.25455e-10
-3.14001e-07
-1.65279e-08
3.59725e-07
3.71323e-07
7.27434e-09
6.25285e-06
1.66787e-09
6.28771e-10
4.14149e-09
5.51737e-06
4.97232e-06
1.26084e-06
8.13872e-10
2.27203e-06
5.57897e-10
1.09898e-06
5.53579e-06
9.60987e-07
1.08342e-09
1.15189e-06
-7.46783e-06
8.36096e-10
3.63772e-07
-1.38965e-07
-6.39356e-11
4.81337e-10
4.62564e-07
5.34807e-10
-7.49588e-10
2.00701e-09
7.31568e-10
-5.42127e-10
5.8509e-10
6.12588e-10
2.39997e-09
5.55056e-06
4.54473e-10
2.06327e-06
-1.2139e-06
-4.54391e-10
2.16657e-06
3.33733e-08
6.88674e-10
1.27701e-06
1.66459e-09
1.62535e-09
6.36906e-07
-9.43559e-10
1.20053e-10
1.13909e-07
2.34942e-10
-1.96888e-09
-6.71323e-06
1.88085e-09
9.31577e-07
4.6352e-10
7.16466e-10
1.02245e-09
1.10429e-08
4.81947e-07
7.67269e-07
1.39741e-09
-6.19167e-06
4.56327e-06
7.72433e-09
7.4197e-10
6.042e-07
1.2698e-08
2.97281e-10
4.32527e-07
5.13736e-07
8.5802e-09
1.11503e-09
3.54894e-10
6.22228e-10
1.2701e-09
9.41683e-10
1.99948e-09
7.79263e-07
6.20942e-10
1.50111e-06
9.16411e-07
5.08467e-06
1.10142e-06
1.04691e-09
1.40284e-08
1.6089e-06
1.06155e-06
3.65931e-09
5.16808e-06
5.27142e-06
6.34471e-10
-1.12259e-05
1.3842e-09
1.13739e-06
2.69402e-10
9.34078e-10
2.98962e-10
1.18894e-05
-3.07749e-06
4.6511e-10
5.20376e-07
-1.35735e-06
1.21427e-09
2.38982e-09
1.54544e-09
-6.75705e-09
1.78611e-09
3.47487e-09
2.60594e-06
1.2519e-09
1.34313e-07
-6.48391e-07
-1.49569e-06
4.72954e-06
5.1529e-07
2.84882e-10
1.02148e-10
2.16569e-05
5.20861e-06
-5.30903e-08
5.08728e-07
1.60532e-09
-5.03106e-08
-1.71985e-05
1.21374e-05
2.40309e-09
-2.27171e-06
1.57198e-09
1.43433e-06
2.04573e-09
7.4812e-07
4.71456e-10
2.9107e-10
8.2856e-10
-1.77435e-06
3.60922e-10
9.15443e-07
1.3315e-09
3.25568e-10
-7.12859e-06
4.91191e-06
5.08658e-06
8.8785e-06
-1.68354e-07
1.24064e-06
8.52433e-09
2.91694e-10
3.65173e-07
-1.46636e-09
5.13736e-06
7.92349e-07
1.10861e-06
-4.19177e-07
4.13134e-09
-8.04545e-09
7.32988e-09
4.9669e-07
7.6222e-10
1.46762e-06
1.11266e-06
4.55241e-10
4.34711e-07
4.89703e-09
1.53724e-07
1.10691e-09
1.32848e-09
1.23261e-06
3.01008e-09
1.89182e-08
8.51427e-07
3.17333e-10
3.24576e-09
2.30749e-10
1.45853e-06
4.86536e-06
3.64859e-08
3.13989e-07
1.36286e-06
-3.51777e-08
8.6154e-10
-1.86603e-06
7.80981e-07
1.59611e-09
7.49007e-07
1.28223e-06
1.55545e-06
4.76261e-10
1.33502e-06
1.29587e-09
5.50697e-10
5.04388e-10
1.35594e-06
6.08019e-07
9.58791e-10
1.53302e-06
1.50482e-09
5.69336e-10
4.93656e-09
7.44782e-09
4.47224e-07
6.2288e-10
4.77651e-10
1.92706e-07
-1.26339e-08
-1.37139e-09
1.25908e-09
-6.07219e-09
4.20249e-10
7.92421e-10
2.34372e-06
6.40759e-07
1.20154e-08
8.05087e-10
9.43647e-10
7.94855e-07
1.24842e-06
7.9042e-07
1.97926e-06
1.51691e-09
-9.41451e-10
-4.6596e-05
-1.36452e-06
-1.47539e-05
4.83716e-06
3.41076e-10
1.29959e-06
6.46159e-10
4.52991e-10
4.45857e-07
2.21096e-10
7.8479e-07
1.1793e-09
1.12476e-06
2.98556e-09
1.08737e-06
5.09188e-10
-5.94281e-10
-1.81778e-09
7.83493e-07
-2.92882e-06
1.08563e-09
3.21924e-09
1.52169e-07
3.59814e-10
5.8279e-07
4.49267e-06
2.83287e-06
8.36102e-07
4.19005e-07
4.53425e-10
1.12997e-09
5.68339e-10
2.45295e-09
1.80446e-06
5.05296e-07
3.09977e-08
7.02224e-07
1.08468e-09
-8.40638e-09
5.29458e-10
5.63273e-06
-5.28447e-10
4.58956e-10
4.28472e-10
-7.12243e-05
5.19104e-10
2.43946e-07
1.00532e-09
2.18633e-11
-4.681e-10
-8.01536e-08
1.06812e-06
-1.50628e-09
1.54298e-08
1.9592e-10
5.3764e-09
4.78243e-09
5.10801e-06
1.79988e-09
2.78124e-09
7.77751e-10
9.8884e-07
2.05898e-09
3.96747e-10
-2.18423e-05
1.03998e-06
7.85217e-07
-2.25982e-06
-8.54265e-10
1.05646e-09
1.36142e-09
-2.53341e-09
5.47914e-06
-2.59437e-09
-1.59674e-07
6.21039e-10
3.41875e-09
8.84478e-10
3.43981e-10
4.49643e-07
8.80422e-10
3.01434e-10
1.148e-09
2.89559e-07
1.47942e-06
1.19285e-09
-4.59843e-10
3.38064e-07
7.60903e-06
1.00265e-09
2.54742e-09
1.37186e-06
3.93335e-09
5.12329e-06
1.70137e-06
3.05566e-06
1.89598e-06
4.03777e-07
-1.33934e-08
7.66784e-07
2.22917e-09
-1.41504e-06
3.3377e-06
2.32259e-06
3.16645e-06
1.12059e-09