/*--------------------------------*- C++ -*----------------------------------*\
| =========                 |                                                 |
| \\      /  F ield         | OpenFOAM: The Open Source CFD Toolbox           |
|  \\    /   O peration     | Version:  v2012                                 |
|   \\  /    A nd           | Website:  www.openfoam.com                      |
|    \\/     M anipulation  |                                                 |
\*---------------------------------------------------------------------------*/
FoamFile
{
    version     2.0;
    format      ascii;
    class       surfaceScalarField;
    location    "200";
    object      ddtCorrDdt0(phi);
}
// * * * * * * * * * * * * * * * * * * * * * * * * * * * * * * * * * * * * * //

dimensions      [0 3 -2 0 0 0 0];
oriented        oriented;


internalField   nonuniform List<scalar> 
21967
(
1.16707e-06
4.57622e-07
-1.62483e-06
-2.3003e-06
9.82316e-07
1.31798e-06
-2.25803e-06
2.71453e-06
-4.56842e-07
8.69287e-07
7.39576e-07
-1.60885e-06
1.30026e-06
-7.62274e-07
-5.37958e-07
5.91608e-07
5.19555e-07
-1.11134e-06
2.62712e-08
8.33067e-07
-8.59544e-07
1.20753e-06
-4.26613e-07
-7.80907e-07
-5.6361e-06
5.7322e-06
-9.62699e-08
-2.08223e-06
5.03561e-06
-2.95339e-06
-5.72881e-06
7.20255e-05
-6.62968e-05
2.50823e-07
-3.85596e-06
3.60257e-06
6.42374e-05
-0.000179385
0.000115148
-1.27696e-05
3.71084e-06
9.05865e-06
1.78856e-06
-1.07342e-06
-7.15205e-07
-1.08283e-06
8.25031e-07
2.57666e-07
7.09963e-07
-6.04859e-07
-1.05367e-07
-6.707e-06
-6.06258e-06
-2.66344e-07
-8.16351e-07
-9.24591e-07
2.09177e-06
-2.34484e-06
6.5935e-07
1.68542e-06
5.71966e-07
7.28327e-07
1.19705e-05
6.21268e-08
-1.20324e-05
3.01613e-07
-1.04235e-06
7.40488e-07
0.000169057
-8.83876e-05
-8.06694e-05
-1.1083e-07
-8.35772e-07
9.46369e-07
-7.74643e-07
8.00794e-07
-5.95484e-07
6.26401e-07
-3.08132e-08
9.40006e-07
8.48447e-07
2.03605e-06
-4.81317e-07
-1.55519e-06
-5.20409e-07
1.05633e-05
-1.00435e-05
6.16656e-07
9.31295e-08
8.11187e-07
2.25373e-07
-1.03671e-06
1.03138e-06
1.76079e-07
-2.05146e-06
8.77274e-08
1.96429e-06
-8.64834e-07
1.68088e-06
-8.15946e-07
9.8106e-08
-3.27614e-07
2.29499e-07
1.0206e-06
-7.1903e-07
-1.02236e-06
-5.97921e-07
1.61754e-06
1.67578e-06
-1.23351e-06
-4.4226e-07
-7.93731e-08
1.52302e-06
-1.44178e-06
3.38116e-07
-1.36296e-06
1.45416e-06
-1.65946e-06
2.04889e-07
-3.30119e-07
-4.93251e-07
8.23307e-07
-1.02714e-05
2.6793e-06
7.59239e-06
-4.07327e-06
-2.47036e-06
6.54493e-06
-5.44197e-08
-1.3293e-06
1.38291e-06
-6.55616e-07
1.52495e-06
1.09222e-07
-1.07532e-06
9.66054e-07
-1.54831e-06
-7.9654e-07
1.97201e-07
-5.10132e-07
3.12601e-07
1.43274e-06
-1.44084e-06
7.9577e-09
-6.26049e-06
4.05657e-06
2.204e-06
-7.76656e-07
1.27472e-05
-1.21002e-07
9.32135e-07
-6.86824e-07
9.13052e-08
7.06268e-07
-8.17219e-07
-7.20576e-07
1.15479e-07
-1.40917e-05
-1.39132e-05
2.80053e-05
0.00018381
-0.000119573
7.46952e-07
-1.30487e-07
4.4583e-07
-2.49685e-06
1.13246e-06
7.76404e-07
-1.90887e-06
-1.25928e-06
-1.041e-06
-5.25835e-07
1.02009e-06
-4.94812e-07
-2.47744e-06
2.72325e-06
-0.000143685
2.39788e-05
0.000119707
1.86677e-06
-3.14581e-06
1.28327e-06
-5.37045e-06
3.28821e-06
9.49888e-07
-9.60059e-07
9.98168e-09
-8.11626e-07
-1.23223e-07
9.34759e-07
2.44033e-06
-5.71997e-07
-6.88335e-07
9.17238e-07
-2.29103e-07
-8.15254e-07
-3.12252e-07
1.12762e-06
2.26589e-06
3.97905e-07
-2.6641e-06
4.91211e-07
-2.94464e-07
-4.97457e-07
6.68646e-07
-1.71327e-07
-6.10726e-07
1.30253e-06
-6.91849e-07
-2.24404e-06
1.72291e-06
5.21111e-07
-4.50074e-06
-1.20815e-06
5.70858e-06
-4.76286e-06
2.62019e-07
-2.31306e-06
4.9714e-05
-4.7401e-05
-4.57384e-08
-8.6064e-07
9.06229e-07
-1.15082e-06
-1.53327e-07
1.30352e-06
-1.09455e-06
1.09459e-06
9.18856e-08
-6.11126e-07
5.19208e-07
3.84882e-08
-1.67844e-06
1.64009e-06
-7.793e-07
-3.63758e-07
1.14256e-06
-1.28377e-06
7.26281e-07
5.57387e-07
-6.30542e-07
-6.53328e-07
-2.88154e-06
8.82098e-07
1.99907e-06
3.57614e-07
-1.13782e-06
9.86e-07
6.89847e-07
-5.04735e-07
3.67248e-07
1.3771e-07
3.64845e-06
1.612e-06
-5.26044e-06
-2.43819e-06
7.93615e-07
1.64299e-06
1.29927e-06
-1.76114e-06
4.61761e-07
-6.56048e-06
-8.08147e-07
-2.00369e-07
1.00848e-06
-3.18777e-05
2.95646e-05
-5.45793e-06
1.38404e-06
-3.19791e-06
9.75293e-07
2.22271e-06
-1.79193e-07
9.53073e-07
-7.75218e-07
2.07942e-07
-7.3393e-07
9.43021e-07
-1.06402e-06
1.20481e-07
4.66073e-05
0.00012245
8.38896e-07
-8.37663e-07
-1.13822e-09
1.61247e-06
5.30366e-08
-1.66547e-06
-1.17809e-06
3.69876e-07
6.17641e-07
-5.7758e-07
-4.0868e-08
1.29194e-06
3.20544e-07
1.36402e-08
8.2535e-07
6.6856e-06
4.71377e-06
-7.73604e-08
-9.70269e-07
1.0473e-06
1.10775e-06
-8.88922e-07
-2.1868e-07
2.77952e-06
-2.61745e-06
-1.62442e-07
-1.80342e-07
-1.00163e-06
1.18506e-06
-3.19347e-07
1.77404e-06
-1.12227e-06
8.2364e-07
2.98455e-07
-3.27203e-06
3.17298e-06
9.89609e-08
2.55433e-06
-2.88615e-07
1.06577e-06
-1.22913e-07
-3.2068e-07
-1.84159e-07
7.77003e-07
-8.22862e-07
-2.97211e-07
7.47969e-07
-8.25461e-07
1.86536e-06
-1.82681e-06
2.24969e-06
-1.01103e-06
-1.23881e-06
2.27639e-07
-6.54292e-07
4.20597e-07
1.61532e-06
2.54526e-06
-2.01537e-06
-5.29845e-07
-2.5244e-07
-2.18675e-06
-6.60516e-06
9.68951e-07
-2.10031e-05
1.11345e-05
9.86859e-06
-1.50558e-06
-4.75492e-06
1.1569e-07
4.52205e-06
-4.63779e-06
2.1062e-06
2.81512e-07
-2.35571e-06
1.1916e-05
-1.44641e-05
2.55351e-06
2.96232e-07
9.74887e-06
-3.40894e-06
-6.33979e-06
2.63504e-07
-1.65283e-07
4.89289e-06
2.24917e-06
-7.1423e-06
1.0903e-05
1.01309e-06
-7.58849e-07
4.28615e-07
-1.01448e-05
3.5933e-06
6.55651e-06
1.36288e-06
-4.71234e-07
-8.91703e-07
1.04128e-06
-1.21961e-06
-2.51149e-06
1.92635e-06
-1.17533e-06
1.36217e-06
-1.87e-07
-3.70218e-07
9.53185e-07
-5.8283e-07
0.000160407
-0.000304092
2.00226e-06
5.43021e-07
4.41418e-07
-6.22453e-07
-1.38442e-07
-9.97776e-06
-1.5261e-06
1.98427e-06
-1.9681e-06
-6.02214e-07
2.57032e-06
-0.000138833
9.3149e-05
4.56837e-05
8.29665e-07
-8.70035e-07
4.05642e-08
-4.24453e-07
7.59181e-07
-3.347e-07
-1.2837e-06
1.0833e-07
2.82932e-08
3.63463e-07
-3.91808e-07
3.98756e-06
-4.10537e-06
1.17952e-07
1.09991e-06
1.15001e-06
-1.71308e-06
1.02722e-06
-9.66153e-07
-6.12659e-08
1.58515e-07
-7.42541e-06
7.2663e-06
1.64773e-06
6.59463e-07
-2.30717e-06
4.91748e-06
-1.26905e-06
-1.18225e-05
-6.5398e-05
7.722e-05
1.69405e-07
6.60374e-07
3.82774e-07
-3.54286e-07
-6.66719e-07
-2.17673e-08
-9.76801e-07
-1.68095e-06
2.65769e-06
5.56687e-07
8.05906e-07
-2.08519e-06
3.04687e-06
-9.61598e-07
-1.17235e-06
1.22631e-07
1.04961e-06
1.36214e-06
-1.19418e-06
-1.66973e-07
-3.62849e-06
1.15155e-06
-2.99157e-06
2.01476e-06
0.000121283
-0.000133105
-5.5287e-06
2.87318e-06
2.65568e-06
-8.84522e-07
9.9372e-07
-5.90954e-07
3.97356e-07
1.93464e-07
8.30286e-06
-2.23945e-05
1.01421e-06
-4.25314e-06
3.23899e-06
1.30404e-07
-2.55997e-06
2.42937e-06
3.54164e-06
-3.42612e-06
-1.06718e-06
1.08118e-06
-1.42768e-08
-1.07674e-05
-1.02357e-05
1.81004e-06
-1.62246e-07
-8.05829e-07
-2.58874e-07
1.06457e-06
-2.56887e-06
7.28325e-08
2.49643e-06
4.25002e-06
-1.27518e-06
-2.97159e-06
-1.20554e-06
-5.00425e-05
5.12479e-05
-1.49204e-06
1.99547e-06
-5.03583e-07
1.04128e-05
-1.52237e-05
4.81072e-06
-2.04309e-07
3.41619e-07
-1.35615e-07
-1.08128e-06
1.39716e-08
-3.40673e-07
-2.50339e-07
-3.20779e-06
2.29186e-06
9.15707e-07
3.50308e-07
1.23424e-07
-4.74652e-07
9.62597e-08
9.4361e-07
-1.03989e-06
-7.42677e-08
4.06208e-06
-4.27293e-07
-2.00974e-06
2.41782e-06
-5.88729e-07
1.18026e-06
-1.19186e-06
9.8535e-07
2.06836e-07
-1.38074e-05
1.32867e-05
0.000138314
-6.50373e-05
-7.32773e-05
2.67326e-07
-1.08271e-06
-1.04471e-07
3.33767e-07
-2.29106e-07
1.71437e-06
-1.7043e-06
-9.94484e-09
2.55032e-06
-2.42005e-06
-2.86544e-06
5.11439e-06
1.60028e-06
-8.60642e-07
7.66428e-07
-2.86515e-06
2.09844e-06
-2.03056e-07
-5.30664e-08
2.56145e-07
0.000114787
-8.20362e-05
-3.27509e-05
2.94593e-07
-3.76683e-07
8.1869e-08
2.42915e-06
-3.21422e-07
5.12367e-05
8.70777e-05
-1.30285e-06
4.60672e-07
8.42108e-07
-2.45308e-06
1.30447e-05
-1.05916e-05
-5.77541e-07
3.47676e-07
2.29778e-07
7.51552e-05
4.6127e-05
-2.2485e-07
1.31388e-06
-1.09001e-06
-8.67672e-07
-3.24133e-07
7.40496e-08
-1.2465e-06
-2.59313e-07
5.62326e-08
-0.000385246
0.000101791
0.000283454
1.31051e-06
-1.47921e-06
1.68901e-07
-1.16357e-06
5.52803e-07
-6.82985e-07
-8.09536e-07
1.90103e-07
-4.95385e-07
3.05336e-07
2.62837e-07
-1.03375e-05
3.56581e-06
6.77189e-06
4.46644e-07
-3.54743e-07
6.48151e-07
1.8564e-06
-2.50483e-06
3.33771e-07
-5.37305e-07
7.14695e-07
-4.82455e-07
-2.3245e-07
7.9085e-06
-6.72774e-07
-7.2356e-06
7.13626e-07
-1.58779e-06
8.74296e-07
-1.45434e-07
8.92928e-07
-7.47545e-07
-1.51397e-05
7.89709e-06
7.2425e-06
-8.5254e-07
7.00815e-09
4.26963e-07
2.34865e-07
-6.61985e-07
1.79635e-06
-5.79702e-07
-1.21668e-06
-1.75421e-07
-5.34807e-07
7.10161e-07
-7.61467e-07
7.4345e-07
1.76474e-08
-1.23297e-06
8.10422e-07
4.22335e-07
9.16881e-07
2.57255e-06
-2.75054e-06
1.77627e-07
-6.37301e-07
-2.56064e-06
-1.47209e-06
2.28334e-06
-4.16617e-07
-1.86674e-06
1.06872e-07
-1.04583e-06
9.38791e-07
-8.78617e-05
9.52362e-05
-7.37446e-06
-1.38824e-06
2.37197e-07
2.40575e-06
2.4485e-07
-2.65074e-06
-3.7689e-07
-2.83091e-06
-9.58167e-07
1.05448e-07
1.87717e-07
2.09551e-06
6.18948e-05
-0.000150282
-9.40791e-07
1.04753e-06
6.20427e-05
-1.28367e-05
-4.9206e-05
-1.08194e-06
2.76016e-07
6.13788e-08
-9.19242e-07
8.57527e-07
-7.72663e-08
2.17341e-07
-1.40181e-07
1.06773e-05
-9.8539e-05
4.71387e-07
1.05538e-06
-1.52706e-06
-5.6335e-07
1.69589e-06
4.79725e-07
-3.25493e-07
-1.54237e-07
-1.34072e-06
2.2312e-06
-8.88835e-07
-9.6146e-07
8.81696e-07
8.81965e-07
-1.68627e-07
8.44799e-07
-9.7002e-07
1.25233e-07
-7.6581e-06
8.32086e-08
1.63128e-06
1.30568e-06
-7.1698e-07
-5.90934e-07
-1.79682e-06
-1.34077e-05
1.09549e-05
-2.17063e-07
1.398e-07
1.72203e-06
-1.8914e-06
1.69362e-07
5.08287e-07
-3.18549e-07
5.62676e-07
3.56469e-07
-9.19177e-07
3.33881e-07
3.80716e-07
-9.83206e-07
9.62432e-07
2.04678e-08
-2.18743e-07
-2.90644e-08
-7.79758e-07
8.08585e-07
1.10833e-07
2.88701e-07
-3.99974e-07
9.12971e-07
-1.01563e-06
1.02221e-07
-7.96133e-07
8.57322e-07
7.17012e-07
5.87346e-07
-6.97361e-05
0.00014489
-1.94637e-06
2.39248e-06
7.229e-07
2.97648e-07
8.58194e-07
2.49611e-07
2.3957e-06
-2.65016e-06
2.54766e-07
-3.36507e-07
4.24188e-07
-8.78344e-08
1.60226e-07
-9.37609e-07
7.77403e-07
-2.45146e-06
1.81373e-06
6.3771e-07
-8.42629e-06
7.14183e-06
1.28438e-06
3.58707e-07
-4.28584e-07
6.98194e-08
4.74295e-07
3.4582e-07
9.56658e-07
-3.63813e-07
-2.13718e-07
-1.21979e-05
-5.84351e-07
1.27821e-05
-0.000233877
-2.5133e-05
0.00025901
-1.02159e-07
3.47589e-07
-2.45148e-07
-1.49285e-07
-3.03928e-06
3.18764e-06
3.37847e-06
-3.71937e-06
3.408e-07
2.83088e-07
-1.34202e-06
1.05894e-06
3.77451e-07
-8.2917e-08
2.86239e-06
-2.78144e-06
-8.09601e-08
7.35478e-07
-8.57567e-08
1.39656e-06
6.48252e-08
-1.36136e-07
7.16379e-08
-1.38443e-06
2.76499e-06
-1.12116e-06
-1.6438e-06
-8.24914e-08
2.55202e-06
-3.75607e-07
-2.17634e-06
-1.3954e-06
-7.03103e-06
-8.09372e-07
5.92769e-07
2.15867e-07
-2.22716e-06
2.87497e-06
7.90154e-06
7.32155e-06
-1.52233e-05
1.59046e-07
1.29125e-06
-2.40661e-06
1.1154e-06
-6.84075e-07
-6.188e-07
3.00535e-06
-2.26085e-07
-2.23803e-06
2.82672e-06
-5.87752e-07
-1.01907e-06
8.85329e-07
1.33713e-07
-1.56321e-06
-2.89717e-06
4.4593e-06
7.27848e-07
-1.72241e-06
9.94587e-07
7.7982e-08
7.34442e-07
-7.63722e-07
1.93096e-06
7.01551e-07
-2.63442e-06
-1.09475e-06
1.11272e-07
1.04391e-06
-1.98783e-07
7.66264e-07
-7.87261e-07
2.07302e-08
-2.45269e-06
-1.07451e-07
-1.819e-07
9.79155e-07
-1.11584e-06
1.36435e-07
-5.0218e-07
1.09073e-06
-5.89156e-07
-3.16786e-06
2.39232e-06
7.75989e-07
-2.69969e-06
8.21101e-08
1.71848e-06
-4.58395e-06
-5.15464e-07
1.79691e-08
-2.76004e-06
3.33643e-07
2.42414e-06
2.38151e-06
1.86972e-06
-9.19249e-07
1.01545e-06
-9.93048e-07
2.20462e-07
7.72533e-07
8.69972e-07
-1.18229e-06
-3.22221e-06
4.79269e-07
2.74291e-06
-1.94805e-06
1.24429e-06
7.03723e-07
2.05499e-06
1.06046e-05
-1.26595e-05
-1.49876e-06
4.83878e-07
1.0147e-06
-7.17717e-06
5.78176e-06
2.61117e-06
2.32319e-06
-4.93437e-06
5.72235e-07
-1.45297e-07
-9.18222e-06
1.70833e-05
4.2651e-07
-4.06396e-07
-2.01229e-08
-4.52134e-06
1.0233e-06
3.49717e-06
2.42656e-06
-2.09568e-06
-3.30686e-07
-1.7046e-06
2.62581e-06
-9.21385e-07
-1.92394e-06
2.04476e-06
-1.212e-07
7.17272e-07
4.88372e-08
-1.44354e-07
5.03071e-07
1.98339e-08
4.06674e-07
4.35338e-07
-1.57486e-06
-2.03442e-06
1.10438e-07
-1.50855e-06
-3.01224e-06
-1.08934e-06
-6.08795e-06
1.3073e-06
-1.27093e-06
-3.63322e-08
-5.18616e-06
9.078e-07
4.2787e-06
-1.91794e-05
2.685e-05
-7.66974e-06
3.19437e-05
-3.76726e-05
-1.03162e-07
2.65338e-06
-5.36418e-07
5.77228e-07
-4.09395e-08
4.74745e-05
2.45509e-05
-1.04117e-08
-9.14415e-08
1.01887e-07
-7.37709e-07
-5.40914e-07
1.28103e-06
-1.07298e-06
1.35611e-06
9.71885e-05
2.01943e-06
-2.28777e-06
2.67383e-07
6.80329e-07
2.3648e-07
-4.05282e-07
-4.78083e-06
2.28296e-06
2.87571e-07
-2.57037e-06
-8.93293e-07
-1.05475e-06
-7.01076e-07
-7.97719e-07
8.59761e-07
-1.08476e-06
1.48234e-06
-1.83278e-07
1.6734e-06
4.86836e-08
4.74995e-07
1.64975e-06
-2.12562e-06
-9.46192e-07
9.84573e-08
8.47702e-07
5.77927e-07
1.97412e-06
2.31698e-07
8.0726e-07
-8.89465e-07
8.17374e-08
1.4396e-06
-1.43019e-06
-8.30854e-09
4.47139e-08
-9.1362e-07
8.68753e-07
-3.61302e-06
1.5281e-06
-1.40521e-07
8.26119e-07
-6.85506e-07
1.22959e-06
-8.46037e-07
-3.83627e-07
3.78705e-06
-4.40713e-06
6.19263e-07
-1.14425e-06
1.05671e-06
8.725e-08
-2.63121e-06
3.9397e-07
1.31082e-06
-7.078e-07
-6.00126e-07
-7.1276e-07
-5.2031e-07
9.14172e-07
-1.21092e-06
2.96838e-07
2.68434e-06
-2.10639e-06
2.63969e-06
-5.22856e-08
-2.58768e-06
2.28436e-06
-9.93121e-07
6.94655e-07
-9.89749e-07
2.95081e-07
9.07076e-07
-9.37618e-07
3.05273e-08
-1.46111e-08
2.35634e-08
3.12504e-05
-0.000265127
-9.3967e-07
1.66749e-06
-6.39883e-06
1.32529e-06
5.07349e-06
1.20843e-07
-4.41692e-07
3.20873e-07
2.17558e-07
-1.02924e-06
5.99647e-07
6.299e-07
-1.17625e-05
-2.70213e-07
1.71514e-06
-1.17543e-06
-5.40998e-07
2.86404e-06
-7.99072e-07
-2.06561e-06
2.53241e-06
-1.45919e-06
-1.07234e-06
3.18777e-07
-2.93824e-07
-2.4963e-08
-1.15621e-06
6.53748e-07
-2.68669e-07
1.08607e-06
-8.18326e-07
-9.23376e-07
9.64571e-07
-4.07582e-08
-7.11505e-07
9.99011e-07
-2.878e-07
1.56093e-07
-1.07533e-06
3.33203e-06
-3.39185e-06
5.97683e-08
-2.31688e-05
3.15003e-05
-8.33066e-06
-2.16432e-06
2.12581e-06
3.8094e-08
9.12245e-07
-3.59398e-07
-5.53006e-07
2.05884e-06
8.04036e-07
-1.55586e-06
8.70846e-07
6.82037e-07
-7.43849e-07
4.73504e-07
2.74138e-07
4.44386e-08
1.87393e-06
-2.00655e-06
1.31851e-07
-1.02192e-07
1.76291e-07
3.18349e-07
-4.94624e-07
1.28112e-06
-3.66858e-07
1.20332e-06
2.29336e-07
4.0501e-07
6.35183e-07
-1.04035e-06
-1.02993e-06
1.80615e-05
-1.38758e-05
-4.18565e-06
1.34598e-06
1.18694e-06
-1.79092e-07
5.29662e-07
5.61769e-06
-1.48001e-05
9.63364e-07
3.48608e-07
2.02603e-05
-1.32741e-05
-6.9863e-06
-1.7698e-06
1.88084e-06
-1.11053e-07
1.4363e-06
4.02817e-09
1.14128e-06
6.83853e-08
-1.20997e-06
-7.32239e-07
1.17228e-06
-4.40194e-07
1.83308e-05
-1.10094e-05
-8.90551e-07
1.87288e-06
-1.65977e-06
-1.29749e-06
1.21644e-06
8.1021e-08
1.05509e-06
-1.96682e-07
-9.02134e-08
1.33575e-06
-1.60106e-06
2.65693e-07
-1.11392e-05
4.7403e-06
4.71761e-07
-3.01093e-07
-1.7069e-07
-5.18665e-06
-6.16167e-06
1.00386e-06
-5.98717e-07
-1.86044e-06
2.33526e-06
1.30681e-06
-1.01786e-07
-1.2054e-06
-3.88011e-07
5.64179e-07
1.46277e-07
-1.58143e-06
9.2584e-07
1.00232e-06
3.10421e-08
-1.03364e-06
7.83018e-06
-1.65151e-06
-1.51615e-06
-6.29347e-08
5.99444e-08
1.45631e-06
-1.01713e-06
-6.10345e-06
5.01405e-06
-9.59887e-07
1.05165e-06
-9.17982e-08
-5.97963e-07
9.94651e-07
-3.9675e-07
1.76664e-06
2.36534e-06
-1.59903e-06
9.33241e-07
5.21941e-07
2.52133e-06
-2.45624e-06
-6.53241e-08
6.92343e-05
2.79541e-05
3.76578e-06
-5.12974e-07
-2.28589e-07
7.4142e-07
-2.0572e-06
1.8965e-07
1.86706e-06
-6.31192e-08
1.74143e-06
1.32376e-07
-1.01708e-06
9.34504e-07
8.217e-08
-7.72615e-07
1.49233e-06
-7.17139e-07
-2.32093e-05
4.02944e-06
-2.53231e-07
1.37613e-06
-1.12276e-06
-3.8005e-07
-4.20463e-07
8.00518e-07
-4.15657e-06
3.4189e-06
7.37705e-07
-6.14132e-05
0.000218009
-0.000156596
-3.78684e-06
-3.69721e-07
7.32204e-07
8.92315e-07
-8.47739e-07
-1.00468e-06
8.00904e-07
2.03808e-07
-5.19571e-06
-1.51018e-07
1.23855e-06
-7.19034e-07
1.52081e-06
2.4248e-06
-3.94715e-06
-1.41698e-06
6.46251e-07
4.47997e-07
8.88212e-07
-2.08319e-07
-3.18359e-06
-2.19941e-06
1.77309e-06
-8.39179e-07
1.59398e-06
-1.92071e-06
3.25952e-07
3.6811e-06
-7.84189e-07
1.20643e-07
1.29589e-05
7.30132e-06
-1.20406e-06
1.23294e-06
-2.91177e-08
1.05695e-07
-1.82272e-06
1.71696e-06
-2.67025e-07
2.22181e-07
4.48475e-08
2.4586e-06
-3.095e-06
6.36377e-07
-9.3144e-07
-1.50578e-07
6.78345e-07
-8.18876e-07
-1.83241e-06
-3.32154e-07
6.1455e-07
-2.31941e-06
1.01806e-06
3.3974e-08
-1.05208e-06
2.11763e-08
-1.22293e-06
1.20148e-06
-1.414e-07
1.18169e-06
-1.4394e-06
3.70236e-07
1.07079e-06
-1.87394e-08
-1.21528e-06
1.23388e-06
-4.13063e-07
6.5357e-07
-2.40408e-07
1.17611e-05
0.000116027
-0.000127788
5.80517e-07
-2.54867e-06
1.58053e-07
-2.83445e-07
1.06962e-05
-4.85578e-06
-1.83533e-05
1.05075e-06
-5.99256e-07
-4.51648e-07
0.000105441
-9.36794e-05
-1.00338e-06
8.55495e-07
1.47879e-07
2.28781e-07
-1.7076e-06
-8.11509e-07
1.28309e-06
6.09523e-07
3.02661e-07
4.23042e-06
1.48963e-05
-1.91266e-05
-2.76623e-07
-1.46007e-08
2.91203e-07
-3.98472e-06
2.47515e-06
-1.79704e-06
5.35928e-06
-3.56233e-06
-7.09053e-07
-3.32651e-07
1.04166e-06
2.35353e-07
4.64893e-07
-4.11196e-07
-5.29662e-08
1.51501e-06
-6.64283e-07
-8.50735e-07
-4.44963e-07
-6.49543e-07
7.19007e-07
2.44902e-06
-2.23568e-08
-1.73575e-07
-9.34882e-08
1.35486e-06
8.46419e-07
-2.20112e-06
-1.14124e-06
6.64956e-07
4.7628e-07
-6.91503e-07
3.11456e-07
-1.54232e-05
2.05585e-05
-9.63089e-06
-1.09279e-05
8.7404e-07
-2.73955e-07
-6.00211e-07
8.8667e-07
1.75248e-08
-9.04584e-07
4.46463e-07
6.04245e-07
7.32422e-07
-7.16486e-07
-1.63188e-08
8.06999e-08
-3.12354e-07
2.31534e-07
4.7833e-06
-3.45807e-06
-7.07571e-07
5.17763e-07
1.90205e-07
5.73321e-07
7.89063e-07
-3.38453e-06
4.3988e-06
2.1484e-06
-1.53663e-06
-6.1165e-07
-1.87242e-06
7.71811e-07
1.10049e-06
-9.36192e-07
1.09222e-06
1.18029e-08
-9.58048e-07
7.69162e-07
-1.03862e-06
2.69711e-07
-2.62984e-08
2.59866e-06
1.08004e-06
-3.6322e-08
-1.04386e-06
9.02534e-06
-9.8019e-06
1.2489e-06
-5.01184e-07
1.31896e-05
-1.24999e-08
-2.00531e-05
4.70924e-05
-2.70395e-05
2.2042e-06
7.87762e-08
-2.60461e-06
1.63035e-06
9.74046e-07
1.01974e-06
1.16644e-06
-2.18665e-06
1.05934e-07
7.39986e-06
-5.47222e-08
-1.34267e-08
-3.96185e-08
-4.75684e-08
8.70723e-08
3.61705e-08
1.46998e-07
-1.83314e-07
-7.10079e-07
2.31837e-06
-1.60846e-06
1.62486e-07
-1.45593e-07
-1.69696e-08
3.59954e-05
-5.60483e-05
1.03315e-06
-3.88674e-07
-6.4466e-07
0.000105244
-8.12646e-05
1.15872e-06
1.04449e-05
-1.16038e-05
-0.00010752
0.000154127
-1.13159e-06
1.11246e-06
7.30594e-07
-8.54693e-07
1.23821e-07
-7.20386e-07
7.95106e-07
-7.50716e-08
-7.00902e-07
-4.40726e-07
4.82637e-07
1.03237e-06
-9.28429e-08
-2.66731e-06
-2.42075e-06
2.51374e-06
-9.32547e-08
4.85274e-07
-5.75146e-08
-4.27008e-07
1.83399e-06
-3.39728e-06
3.37215e-08
-7.54329e-07
-3.69879e-07
2.51819e-06
-6.95749e-07
3.25622e-07
-8.38916e-07
1.05878e-05
-2.02458e-07
-2.33493e-06
-4.13016e-07
1.06059e-07
7.93735e-07
-8.99865e-07
1.5459e-07
1.12425e-06
-1.27929e-06
-1.98162e-06
2.11763e-07
6.04072e-06
-3.42952e-06
1.17363e-08
-9.35764e-07
0.000115723
9.15745e-07
-8.09737e-07
9.03316e-07
-1.15696e-06
-2.77954e-06
-4.4263e-07
-1.00722e-06
9.45117e-07
6.2241e-08
9.88944e-08
-8.07933e-07
-2.2126e-06
1.01941e-06
4.257e-07
9.23597e-07
-1.34888e-06
7.8985e-07
-7.21883e-07
-6.79518e-08
-2.13157e-07
1.16295e-06
3.64276e-05
-2.83489e-07
-6.52835e-07
9.36341e-07
-6.89538e-05
0.000122968
-5.40139e-05
1.33839e-06
-9.13712e-07
-4.24703e-07
2.26191e-06
-1.24217e-06
-1.93238e-06
1.63617e-06
2.96204e-07
-6.9869e-07
-8.8837e-08
-3.03643e-07
2.69538e-08
6.74119e-07
-9.6713e-07
-1.27693e-06
6.84284e-07
-7.39565e-07
1.79801e-05
-2.47598e-05
6.77982e-06
8.27191e-07
-1.05088e-06
2.22538e-07
2.52467e-07
7.74689e-07
3.5222e-05
0.000334606
-0.000104115
-0.00023049
-3.17923e-07
-2.68196e-07
5.86055e-07
1.13679e-06
-7.90984e-07
1.98479e-06
-6.29866e-07
2.11447e-07
-1.1477e-06
-6.17716e-07
9.71588e-07
-3.5395e-07
-4.09039e-07
1.39503e-06
-7.5487e-08
-1.41681e-07
1.05075e-06
-1.37565e-07
-9.12955e-07
7.29405e-06
-2.9361e-07
-1.06211e-07
3.99682e-07
2.39987e-07
5.31403e-06
-1.42716e-06
-3.88679e-06
1.0705e-07
-2.17906e-06
-8.75962e-05
-4.63843e-07
-1.19671e-06
-4.25847e-08
3.77659e-06
1.23478e-06
-5.01146e-06
-1.71958e-05
2.3598e-06
1.48361e-05
5.84149e-07
-1.86932e-07
2.08362e-06
-3.41578e-07
-1.74266e-06
-5.58039e-07
1.33679e-07
5.42729e-06
-1.65145e-06
-1.97044e-06
2.76566e-07
1.69391e-06
1.78842e-06
-1.811e-06
2.40903e-08
5.07955e-07
-2.64006e-06
2.13227e-06
2.41388e-07
6.18014e-05
-2.0439e-06
2.91678e-07
1.75221e-06
5.1279e-07
2.25855e-06
-2.77265e-06
8.12097e-07
-2.49443e-07
-2.15961e-07
-4.90942e-07
5.66047e-06
-7.46141e-05
6.15735e-07
-7.91177e-07
6.73711e-07
3.9682e-05
-4.48147e-05
5.13394e-06
2.72216e-06
8.18234e-06
1.64369e-05
1.91589e-06
-1.8353e-05
-2.89672e-09
-1.96692e-07
-1.84722e-06
-1.96732e-06
5.80172e-07
1.3871e-06
-4.4277e-07
-2.43901e-06
-1.32708e-07
7.08836e-07
-2.93291e-06
2.22683e-06
7.44506e-07
-7.74619e-07
2.9812e-08
1.26889e-06
-1.92199e-06
6.52506e-07
-4.61719e-06
4.21205e-06
5.88648e-07
1.4808e-06
-5.67927e-07
-9.12962e-07
-2.17287e-06
2.44916e-06
-2.76166e-07
-2.52411e-06
3.03658e-06
1.13193e-06
-5.20645e-08
-1.01412e-06
3.04985e-07
-8.19048e-07
-9.46478e-08
8.51112e-07
-1.0681e-07
2.49311e-06
-2.30542e-06
0.000313899
-0.000282648
-1.96369e-07
1.02226e-06
2.31479e-07
3.85925e-07
-3.2511e-06
-1.36615e-06
4.42366e-06
-2.93018e-06
7.57404e-07
1.49851e-06
3.11554e-07
-5.2449e-08
-1.89621e-06
1.94842e-06
7.25157e-07
3.45281e-10
-7.25841e-07
-5.15639e-08
7.81972e-07
2.91711e-06
-1.06106e-06
-8.96066e-07
2.78318e-07
-8.93639e-08
1.6823e-07
2.23664e-07
-3.91907e-07
-4.93459e-07
-1.47386e-06
-1.01636e-06
6.32776e-09
1.00994e-06
-9.78568e-08
-2.32026e-06
-1.303e-06
-5.91384e-07
1.36039e-06
-1.3849e-06
6.91881e-07
6.92893e-07
-2.09216e-07
2.73711e-07
4.24992e-07
-1.3872e-06
-1.48031e-05
1.90332e-05
1.95159e-05
-0.000127036
1.13894e-07
7.33032e-07
-8.47036e-07
7.1795e-07
4.86881e-07
-1.20495e-06
1.08829e-06
-3.79982e-08
-2.23739e-06
2.67233e-06
-4.34631e-07
1.49378e-05
3.39279e-06
1.34591e-07
-8.46351e-07
-4.5079e-07
2.38073e-06
2.06131e-06
6.23016e-07
1.561e-05
2.40719e-05
-1.40565e-08
0.000205725
-0.000267139
-0.000162206
0.000137073
3.77207e-05
-0.000103119
-6.36419e-07
2.61217e-06
-7.18169e-09
-2.17251e-07
2.24309e-07
-7.78578e-07
8.52002e-08
6.92498e-07
-1.11578e-07
7.18735e-08
1.0637e-06
1.17854e-06
-2.24288e-06
4.61995e-07
-1.1995e-06
2.22868e-06
0.000155044
4.41512e-07
4.38843e-08
8.20964e-07
-7.0703e-07
9.63336e-08
2.27574e-07
1.42264e-06
-1.65043e-06
-1.0136e-05
-9.01056e-07
1.5375e-06
-2.24765e-06
1.76201e-07
-1.20552e-06
1.0293e-06
1.76477e-06
-1.53755e-06
-1.24308e-06
1.42129e-07
1.10071e-06
-2.37202e-06
7.15524e-06
8.47574e-07
4.52969e-08
-1.35128e-06
1.31493e-06
7.73378e-07
-1.10102e-06
3.27068e-07
1.17634e-05
5.8288e-07
9.472e-09
-2.43051e-06
-1.05326e-06
1.21769e-07
-5.86419e-07
3.01076e-06
-2.66881e-09
4.26537e-07
-4.23985e-07
1.2548e-06
-1.89324e-06
4.88658e-07
-1.86536e-08
8.47278e-07
-8.2867e-07
1.5327e-07
2.21522e-06
-2.36895e-06
-1.07738e-06
9.14851e-07
1.62281e-07
2.39155e-06
-3.30168e-07
-1.25732e-06
-1.31172e-07
-0.000324545
-6.07009e-05
5.35239e-07
2.08691e-07
-7.44101e-07
-3.86311e-07
1.63921e-06
-3.14805e-08
-7.47241e-07
-1.03044e-07
4.00501e-07
-2.97477e-07
1.36134e-06
-4.71553e-06
3.35547e-06
-2.3274e-06
1.6192e-06
7.08121e-07
8.31447e-07
4.17303e-07
3.04087e-07
3.64504e-07
2.19544e-07
4.11687e-07
-6.31887e-07
-1.35283e-05
0.000108765
4.36935e-07
-2.77626e-06
2.33892e-06
-4.37663e-06
9.1247e-07
3.46452e-06
1.2158e-07
1.62777e-07
-1.23211e-06
-2.54229e-08
-3.7586e-07
-3.73798e-07
7.4952e-07
-2.08056e-06
3.05598e-06
3.06166e-06
-2.78377e-06
-2.78036e-07
-2.06354e-05
6.17155e-06
-3.79621e-07
3.7699e-07
-1.99965e-06
-6.05126e-07
1.30473e-06
2.70253e-06
-4.00705e-06
-1.26079e-06
-8.85257e-07
1.52972e-07
-9.17263e-08
2.58474e-06
1.46678e-07
-7.98041e-07
-4.12792e-07
2.33243e-06
9.94941e-05
-7.99782e-05
-4.27281e-07
3.68146e-07
5.9092e-08
-3.14439e-07
4.35306e-07
-7.0382e-07
7.36773e-06
-6.66384e-06
7.52793e-07
4.19445e-07
-8.4748e-08
-3.05861e-07
3.90791e-07
4.46056e-07
-2.13206e-06
1.68569e-06
1.51674e-06
2.06169e-07
-8.24814e-07
5.41086e-07
-2.83199e-07
-7.95271e-08
3.62586e-07
-9.16757e-07
1.01383e-06
-2.52341e-07
6.50279e-07
-3.97995e-07
7.58756e-06
-1.24534e-05
4.86534e-06
-1.62959e-06
-3.52253e-07
4.78473e-07
-1.66751e-06
1.18898e-06
-1.12507e-06
4.33283e-07
2.97517e-08
-7.88702e-07
-2.91874e-06
2.10065e-06
8.17791e-07
1.09807e-07
-1.20214e-07
2.81427e-07
4.77608e-07
6.03236e-08
-1.00364e-06
9.43062e-07
3.66645e-05
-8.6707e-05
-1.8149e-06
1.85157e-07
5.75947e-06
-3.0383e-06
7.28434e-06
-1.91727e-07
5.92403e-06
4.26453e-07
1.57689e-07
3.80844e-07
2.48147e-06
-5.79368e-07
-1.00206e-06
3.29227e-07
-3.8499e-07
5.56955e-08
1.78532e-07
-1.42497e-07
-4.74751e-08
1.39313e-07
1.63967e-06
-1.77911e-06
6.47601e-07
-6.88788e-07
4.11551e-08
2.80631e-07
-9.21829e-07
6.40305e-07
-1.58849e-06
5.17316e-08
-2.75966e-06
2.15754e-06
-1.73282e-06
1.68018e-06
1.65629e-06
-1.17362e-06
4.41453e-06
-4.25588e-06
-1.57847e-06
9.99399e-07
2.53016e-06
-4.47243e-07
-1.42519e-06
-2.2981e-06
2.34589e-06
-4.79523e-08
0.000220891
0.000122878
-0.000343769
-4.73195e-07
1.55344e-07
2.68466e-06
-9.79688e-07
5.87924e-07
1.38467e-06
-2.07643e-06
6.91713e-07
-3.70889e-07
1.08453e-06
-7.14747e-07
2.4076e-06
2.32301e-07
2.00943e-07
-6.66454e-07
4.65384e-07
-3.80618e-06
4.04749e-07
3.40154e-06
-3.49241e-06
-3.13762e-07
4.0738e-07
-1.36394e-06
1.20986e-06
-3.02265e-06
1.73001e-06
1.2921e-06
6.44513e-07
-4.43655e-07
-8.43131e-08
1.0037e-06
-9.19497e-07
3.80607e-07
2.76626e-07
-6.57544e-07
-2.8055e-06
1.03929e-05
1.07734e-06
1.8256e-06
-2.90678e-06
9.29704e-08
-5.28889e-07
8.902e-07
-2.10012e-07
-4.43128e-07
6.86088e-08
1.68409e-06
-1.20557e-06
-1.10889e-06
7.38387e-07
-2.00469e-06
-9.14113e-07
-9.87371e-07
-1.3402e-06
-6.49762e-07
2.53742e-06
1.06709e-06
1.44665e-06
-2.51361e-06
6.39294e-07
-7.62613e-07
-1.56612e-06
0.000262198
-1.86972e-06
-5.81716e-07
-3.59515e-07
1.09787e-06
-2.27879e-07
1.72108e-08
1.17556e-06
-1.19281e-06
2.47321e-06
-5.95161e-07
3.42859e-07
1.20612e-06
5.90196e-07
1.31411e-06
-2.20462e-06
1.40322e-07
-1.13307e-06
9.92187e-07
-4.45083e-06
-1.6945e-07
2.96042e-07
-2.19881e-06
1.88293e-06
3.15464e-07
1.10164e-06
8.93167e-07
-1.7431e-06
-4.52529e-06
6.26863e-06
-4.81328e-05
0.000362031
2.50754e-07
-1.68964e-06
-1.60856e-07
3.2938e-07
-6.68829e-07
1.15049e-06
-4.819e-07
-4.41376e-08
1.18526e-06
-9.70304e-07
3.72242e-07
5.10639e-07
2.78544e-06
-1.60711e-06
2.95565e-08
1.44027e-07
9.14167e-07
-1.06046e-06
-1.98206e-06
-1.0409e-06
-8.44869e-07
-8.9938e-08
9.34443e-07
-2.17769e-06
1.05037e-06
1.12728e-06
1.98356e-07
-2.05624e-07
1.67008e-05
-6.02545e-06
-1.06754e-05
-6.13564e-07
-2.82503e-07
1.25161e-06
1.6763e-05
5.71609e-07
2.18126e-07
3.64555e-05
-4.93244e-05
2.61974e-06
7.45366e-05
-7.71564e-05
4.67083e-07
-1.75547e-07
-2.91592e-07
9.05582e-07
-7.6618e-07
5.30821e-07
1.15336e-06
2.5767e-07
6.0535e-05
-7.40632e-05
3.29871e-07
1.15097e-06
4.25989e-08
-8.85655e-07
8.42725e-07
1.51344e-06
1.56703e-06
-3.08101e-06
3.04363e-07
8.42145e-07
5.44778e-08
-8.96506e-07
3.08044e-09
-7.3669e-07
7.33391e-07
5.50943e-06
-8.62135e-07
-4.64732e-06
-1.00221e-06
8.01823e-07
-1.04575e-07
-2.07724e-07
-5.34427e-07
7.42121e-07
-2.32531e-06
2.69637e-08
-2.35427e-07
8.05519e-07
3.22214e-07
-1.12821e-06
-2.30005e-05
2.36497e-06
4.57193e-06
-3.65953e-06
-6.49302e-07
2.13035e-07
4.3619e-07
-8.00156e-07
1.90013e-06
-5.01019e-08
-9.33519e-07
4.40207e-07
-1.27027e-07
5.98912e-06
1.91946e-06
2.17742e-06
-1.75167e-06
2.45581e-06
1.66219e-07
-2.62264e-06
3.19161e-06
-1.50884e-06
-1.67908e-06
6.8491e-06
-7.52167e-06
-2.69634e-06
2.54706e-06
2.94058e-07
5.86423e-07
-8.80589e-07
3.28597e-06
-3.47766e-06
2.9794e-06
-1.46685e-06
-1.88189e-06
3.79974e-06
3.33043e-05
-3.41504e-05
8.46579e-07
-8.88769e-07
2.25863e-07
6.62675e-07
-1.10324e-06
1.18342e-06
-8.01671e-08
-2.35652e-06
1.8749e-06
8.88543e-07
1.66204e-07
-6.75661e-08
-8.66473e-07
2.52911e-07
1.20729e-06
1.00989e-07
-1.3081e-06
4.84051e-07
-2.49464e-06
2.773e-07
8.20087e-07
8.36171e-07
-1.59001e-06
2.65717e-06
2.62187e-08
-5.02643e-06
4.9971e-06
-2.39208e-06
-9.75759e-09
2.40191e-06
-1.05055e-07
4.52627e-07
-9.22546e-07
8.33464e-07
8.90818e-08
2.44835e-06
-2.29525e-06
-9.40012e-08
-3.3336e-07
8.11371e-08
-9.27931e-07
8.46686e-07
4.56549e-08
1.71877e-06
4.24335e-06
-1.78795e-06
5.90903e-07
-8.12524e-07
2.21678e-07
5.2054e-07
5.17144e-08
-9.16797e-06
2.31244e-07
2.56092e-06
-1.13292e-06
-2.18538e-07
-8.36863e-07
-9.99954e-07
8.56957e-07
-8.57097e-07
0.000306789
-0.0002925
-1.42896e-05
2.17508e-06
-8.73861e-07
-1.30114e-06
7.62815e-07
-1.01457e-06
2.51721e-07
6.99671e-08
7.80144e-07
2.75183e-06
4.42405e-07
-3.61182e-08
4.05153e-07
-3.69104e-07
-6.41141e-08
-2.247e-06
2.31101e-06
-1.91541e-06
-2.83607e-07
-1.04149e-05
7.00607e-06
4.18466e-07
-3.01742e-07
-1.16764e-07
-2.9143e-07
6.24916e-07
9.29031e-06
7.18613e-06
-5.82358e-08
-1.04506e-06
-8.53668e-07
4.59853e-07
3.93783e-07
-8.92553e-07
-1.15571e-07
1.00788e-06
3.73473e-06
-1.92928e-05
-9.50889e-06
2.8802e-05
2.63842e-06
3.40238e-06
3.57474e-07
-2.69426e-06
2.33483e-06
-4.94396e-07
-9.46501e-07
-9.05815e-05
8.94906e-06
8.16325e-05
7.08334e-06
-2.44035e-06
-4.64263e-06
2.81131e-07
-7.86191e-07
5.05056e-07
-4.12274e-06
1.08276e-06
8.94133e-05
-1.8166e-05
-7.1247e-05
1.58102e-06
-1.27826e-06
-3.02639e-07
-1.105e-06
1.73672e-06
-1.50773e-06
4.91674e-07
-2.08412e-09
-4.89645e-07
7.64254e-05
0.000230364
-1.27713e-06
2.97654e-07
-2.33826e-06
2.63158e-06
-2.92158e-07
5.34172e-07
-3.58634e-07
-1.75629e-07
-1.59315e-07
1.37576e-06
-4.99386e-06
-1.09686e-07
8.76642e-08
-3.81386e-07
4.11023e-07
1.98057e-06