/*--------------------------------*- C++ -*----------------------------------*\
| =========                 |                                                 |
| \\      /  F ield         | OpenFOAM: The Open Source CFD Toolbox           |
|  \\    /   O peration     | Version:  v2012                                 |
|   \\  /    A nd           | Website:  www.openfoam.com                      |
|    \\/     M anipulation  |                                                 |
\*---------------------------------------------------------------------------*/
FoamFile
{
    version     2.0;
    format      ascii;
    class       volScalarField;
    location    "200";
    object      k;
}
// * * * * * * * * * * * * * * * * * * * * * * * * * * * * * * * * * * * * * //

dimensions      [0 2 -2 0 0 0 0];


internalField   nonuniform List<scalar> 
14804
(
0.000132299
0.000142288
0.0375978
0.000138184
0.000170986
0.000163321
0.0238992
0.000177554
0.000151161
0.000140113
0.000191322
0.0127881
0.00288413
0.0165225
0.0504467
0.000158854
0.0190278
0.0132543
0.000158907
0.000131975
0.000144182
0.000170996
0.000173865
0.00016051
0.0130104
0.0233753
0.0194139
0.000148204
0.0508365
0.0383405
0.0405243
0.019155
0.000165855
0.000177764
0.0498114
0.000138878
0.000141456
0.000160129
0.000228116
0.0001312
8.30101e-05
0.000244896
0.000218458
0.00015702
0.0286396
0.0383628
0.000112694
0.00013815
0.000203991
0.000143984
0.000150126
0.000158222
0.000146312
0.000175235
0.000166269
0.000147933
0.0189316
0.0226413
0.0240311
0.00355564
0.0227974
0.0467526
0.00013173
0.000141864
0.000159497
0.0120289
0.00945878
0.000157597
0.000140681
0.000162619
0.000164229
0.000156736
0.000159081
0.00018924
0.036215
0.000150055
0.000153222
0.000199556
0.000130173
0.000196538
0.00019474
0.000170313
0.000188486
0.0349262
0.000167393
0.000153753
0.00015425
0.000140537
0.000171923
0.000171628
0.03047
0.0001402
0.00013119
0.000145599
0.000141862
0.0313688
0.000154291
0.0267666
0.000165142
0.000170302
0.0373197
0.034616
0.000242305
0.000159746
0.000211155
0.0140679
0.000162239
0.000157093
0.000165361
0.00345133
0.000155142
0.000162368
0.0226153
0.000184775
0.000168473
0.0405115
7.9784e-05
0.000224737
0.000159649
0.000138165
0.0397558
0.000210146
0.000145499
0.000190075
0.000159684
0.000186122
0.000148209
0.000149817
0.000176601
0.0375428
0.000133851
0.0305332
0.000150378
0.0386513
0.000146129
0.0303584
0.000133695
0.00016288
0.0391182
0.0285568
0.000141591
0.000149363
0.000162209
0.000157274
0.000122327
0.000156202
0.000193251
0.000194108
0.0347377
0.000162408
0.0094878
0.000133993
0.000249061
8.55965e-05
0.000132722
0.000133887
0.0161916
0.000160703
0.000154208
0.0363579
0.000148225
0.000142418
0.000150788
0.00015007
0.000168338
0.0294001
0.000152262
0.000141875
0.00023367
0.000160562
0.000148224
0.000158763
0.0442887
0.000156394
0.000358346
0.0389367
0.00126175
0.0116757
0.0419382
0.0004874
0.000146134
0.000202981
0.000150087
0.0237757
0.000143531
0.0402246
0.0285027
0.0407594
0.0380909
0.000156433
0.00015277
0.0497719
0.0214154
0.0162702
0.0402073
0.0331315
0.0391761
0.0390422
0.000149806
0.042777
0.000150055
0.00015115
0.000142567
0.0359114
0.000164123
0.00021006
0.0399803
0.0102499
0.000190141
0.000145503
0.000158087
0.0447647
0.000148903
0.000138439
0.0439973
0.000144909
0.00477574
0.000145089
0.000101367
0.0114145
0.000189993
0.0345854
0.000156449
0.000375549
0.0620475
0.000209618
0.0373465
0.000144299
0.00954009
0.0011786
0.000200156
0.0399509
0.000150759
0.000145831
0.0312525
0.000153601
0.0371005
0.0378829
0.000153182
0.0274154
0.00847073
0.000199842
0.0285902
0.0455203
0.000160091
0.000141948
0.000193637
0.0233225
0.000173735
0.000160668
0.0438148
0.0321796
0.000145949
0.000161492
0.000157633
0.00115141
0.033253
0.0476112
0.0430914
0.0435194
0.000161897
0.0129594
0.000151045
0.000173734
0.000152599
0.0221107
0.000143024
0.00211258
0.0267667
0.00013145
0.00014537
9.92684e-05
0.000217001
0.0085863
0.000198723
0.0316924
0.000153661
0.000201211
0.000131311
0.0338788
0.000143176
0.0566219
0.0001505
0.000188634
0.00015327
0.0432479
0.000160467
0.0253894
0.000149148
0.0427668
0.0177324
0.000201549
0.000650696
0.0403566
0.000160193
0.000168949
0.0484592
0.000147522
0.000169302
0.000141071
0.000148715
0.000194019
0.000149184
0.000200538
0.000155873
0.0291892
0.00905122
0.000145616
0.0275143
0.000190854
0.000156008
0.000145161
0.0517341
0.000138654
0.00237456
0.000157716
0.000192846
0.000148566
0.00018926
0.000152651
0.000148643
0.000157561
0.0306738
0.0355924
0.000145578
0.000142591
0.000190096
0.0433176
0.0524231
0.000188791
0.000202983
0.000147931
0.000147337
0.0208476
0.000155396
0.0413208
0.0001991
0.0191353
0.0375743
0.0410293
0.0402874
0.000216604
0.0122737
0.0428544
0.00014847
0.000152884
0.0306507
0.0208547
0.000151358
0.000161159
0.000187475
0.000136469
0.000139968
0.038072
0.000147264
0.00014777
0.00765374
0.00016679
0.0373388
0.000147989
0.000195643
0.000144834
0.0214364
0.0501893
0.0221238
0.000195127
0.000147731
0.0307185
0.0499133
0.000195409
0.000147723
0.0360622
0.00014603
0.0223645
0.000168542
0.0468396
0.00429854
0.000235703
0.000142102
0.000207918
0.000151438
0.000199453
0.0256254
0.00016052
0.000145906
0.000137819
0.00013979
0.000147162
0.0599867
0.000157541
0.0569273
0.000188949
0.00017303
0.00015278
0.000145884
0.0450583
8.66312e-05
0.000180321
0.000300476
0.000209653
0.000168704
0.000189643
0.0411133
0.0492277
0.000177548
0.000173716
0.000214378
0.000143137
0.000185505
0.000143325
0.000146895
0.000198602
0.0200912
0.0347604
0.00887447
0.000147713
0.00738929
0.00014706
0.000164482
0.000168932
0.0290634
0.000161027
0.000218814
0.0362062
0.000157272
0.000144012
0.000231165
0.00605954
0.000198727
0.000158765
0.000151191
0.000138401
0.0198578
0.0420482
0.000158026
0.0365434
0.000203774
0.00558805
0.000143898
0.0659991
0.0387287
0.000153991
0.000214715
0.000156698
0.000184892
0.000200698
0.0341218
0.000157958
0.000150762
0.039332
0.000177694
0.0146867
0.0616338
0.000122616
0.0379964
0.000145304
0.0325401
0.00013832
0.000226605
0.000186697
0.000168994
0.000189044
0.000160246
0.0169618
0.000145278
0.0142378
0.000186297
0.00018756
0.0341142
0.000154311
0.000145513
0.000138076
0.0423994
0.0224771
0.0137467
0.000198941
0.000138645
0.000168186
0.000146862
0.000210082
0.000160953
0.02701
0.0425651
0.000166508
0.0372105
0.000265701
0.0309176
0.000155498
0.0507966
0.0394566
0.0663698
0.0435212
0.000231191
0.0240304
0.0579342
0.000143279
0.00014378
0.0125447
0.000143652
0.000170432
0.000178963
0.000160809
0.000146784
0.0432549
0.000163078
0.000185154
0.00023232
0.000159783
0.000138837
0.0415789
0.000203714
0.0654497
0.0207237
0.000160681
0.000199388
0.0181295
0.0367281
0.0670479
0.000143188
0.000187034
0.000152001
0.000212455
0.0429997
0.0246946
0.04013
0.0370709
0.000201219
0.0191711
0.0559882
0.000211309
0.00207403
0.000133855
0.035053
0.030807
0.0249601
0.000156563
0.00195727
0.000161743
0.000156494
0.0235295
0.000158444
0.0297444
0.000155042
0.000191985
0.000143496
0.000163113
0.000115314
0.000142564
0.000159594
0.000168742
0.000167594
0.000145957
0.000143137
0.000139517
0.000210752
0.000138356
0.0312204
0.0117201
0.000157353
0.0447279
0.000156536
0.0229027
0.000142139
0.00474664
0.000154893
0.00199463
0.000144248
0.000333969
0.0474166
0.00015141
0.000173542
1.59414e-05
0.046707
0.0239095
0.000174385
0.000187367
0.039259
0.0504732
0.000180106
0.000136884
0.0462402
0.00013397
0.000210882
0.0196764
0.041826
0.0409705
0.000146057
0.000152315
0.000135714
0.000156763
0.00019595
0.000157919
0.00933911
0.0324432
0.0140764
0.0542256
0.0159222
0.0176706
0.000210824
0.000159967
0.0319162
0.0471634
0.00014255
0.000201714
0.0208936
0.00219344
0.000162609
0.0263806
0.000161559
0.000191933
0.0655883
0.000148647
0.0375045
0.0613277
0.016646
0.0199858
0.00470089
0.000148986
0.0560461
0.000136945
0.000198871
0.000176258
9.70837e-05
0.00839159
0.00016389
0.000163274
0.0149512
0.000165073
0.000332627
0.000159322
0.000134123
0.000131114
0.0216394
0.000152325
0.000159791
0.000130267
0.000227571
0.0228631
0.00019967
0.000168808
0.0154785
0.0108682
0.000152495
0.000199611
0.000141065
0.000151199
0.000157799
0.000131194
0.000143051
0.000199269
0.0355205
0.00497222
0.000155696
0.000145303
9.47922e-05
0.0350556
0.0161348
0.000218055
0.000199313
0.000205691
0.0217368
0.000150128
0.0514798
0.000154261
0.000205874
0.0622339
0.0648573
0.0500526
0.000183762
0.000131116
0.0265079
0.000190838
0.000154654
0.000227918
0.00019471
0.000158282
0.00700273
0.000161122
0.0296544
0.0432378
0.000131369
0.000217532
0.0249712
0.0650249
0.000181885
0.000155345
0.0408036
0.000145138
0.000149413
0.000177386
0.000138196
0.0239042
0.0216712
0.000162272
0.000180961
0.000155806
0.000161716
0.00888403
0.000199201
0.00407117
0.000145048
0.0325845
0.000136754
0.000154463
0.0578621
0.0228067
0.0190924
0.0415761
0.000157245
0.0618977
0.000142135
0.000211354
0.0350497
0.0387675
0.0120495
7.11302e-05
0.000147254
0.000155489
0.000218738
0.0299488
0.00944036
0.000163511
0.000147653
0.000199717
0.0395869
0.0315275
0.000158311
0.000155595
0.000143381
0.0065605
0.0199158
0.0125333
0.00911566
0.000272549
0.00677899
0.000143023
0.000155906
0.000145482
0.0398543
0.000206236
0.000182795
0.0162191
0.000142771
0.00016297
0.0182884
0.000180545
0.0151719
0.000146937
0.000135816
0.000131847
0.000182139
0.000207322
0.00160339
0.000200868
0.0274564
0.000190905
0.0364502
0.000158186
0.0493229
0.000151897
0.000185868
0.000147934
0.00653444
0.038688
0.018076
0.0210458
0.000151064
0.000145375
0.032887
0.00980026
0.00595413
0.00668308
0.000155463
0.000145132
0.0249442
0.00018229
0.000187659
0.000153317
0.0037947
0.00157304
0.0260128
0.00014354
0.000175182
0.0343648
0.000187701
0.0390254
0.0442698
0.000163783
0.000147562
0.0465255
0.0002642
0.000189015
0.000150666
0.000162039
0.00014323
0.000211085
0.0408675
0.00896564
0.000145716
0.000146807
0.0151148
0.000145839
0.000145721
0.0372381
0.000130115
0.000164626
0.000146
0.000232084
0.000149527
0.00018969
0.0608762
0.000143952
0.0612238
0.00015729
0.0355953
0.000142287
0.000154368
0.0418039
0.0163165
0.0607198
0.000160086
0.0153725
0.000151522
0.000150287
0.0503151
0.000137916
0.000145088
0.000145359
0.00014515
0.0600791
0.000154534
0.00015772
0.000255607
0.000134501
0.0582131
0.000159777
0.0290117
0.000138066
0.00020573
0.0475824
0.0186122
0.0093603
0.000152186
0.0443549
0.00633354
0.0492453
0.000140575
0.000184839
0.000166448
0.00014814
0.000147935
0.000142765
0.0374189
0.0380344
0.000165844
0.000199146
0.000153729
0.000187268
0.0107854
0.000159116
0.000157429
0.000161083
0.0224996
0.0399025
0.000139439
0.000140829
0.035853
0.000181599
0.0495634
0.032165
0.000182756
0.000163764
0.000156005
0.00955003
0.000141089
0.000151004
0.000186855
0.0358767
0.000143144
0.000149264
0.000142108
0.00013762
0.000195567
0.000143399
0.000144114
0.044337
0.0402364
0.000979654
0.00885956
0.0178134
0.000142231
0.000173731
0.03661
0.000161207
0.000155055
0.0392056
0.000148594
0.000223303
0.038442
0.000178723
0.000140557
0.000142841
0.000174411
0.000156923
0.000219177
0.000175654
0.000164524
0.0088689
0.0146732
0.000193979
0.000196845
0.000139543
0.0518405
0.000666168
0.000177999
0.0441613
0.0385896
0.000142216
0.000198416
0.0220457
0.000146183
0.000164365
0.000162542
0.000155864
0.0217355
0.0513011
0.000192952
0.000164428
0.000144193
0.000152955
0.000142284
0.000158713
0.000156542
0.000154997
0.025595
0.00870113
0.00015657
0.0148601
0.0298515
0.0258273
0.000179028
0.000151041
0.0392603
0.0414781
0.0114455
0.0017439
0.000159238
0.000208802
0.0407251
0.000169344
0.000158614
0.000156381
0.000157638
0.032012
0.000191499
0.000160144
0.000182011
0.0136046
0.0384664
0.000163228
0.000188863
0.0272227
0.000145501
0.000147829
0.000183802
0.000157282
0.000155612
0.000164693
0.0166701
0.000162862
0.031027
0.0290189
0.000187065
0.000232243
0.000232524
0.0120758
0.000136913
0.000161118
0.000168324
0.0137355
0.000147478
0.026708
0.0448306
0.0281906
0.000145206
0.000243608
0.0350546
0.000207183
0.000188355
0.000171539
0.000188192
0.00015331
0.0216713
0.0287562
0.000157024
0.000634081
0.000147943
0.000159914
0.0288507
0.000465545
0.000147692
0.0136401
0.000160526
0.00014315
0.0124134
0.00565561
0.0403198
0.000149323
0.00018727
0.000188456
0.000151251
0.00524946
0.000144839
0.000208588
0.000165502
0.0539054
0.000140418
0.000178503
0.000209963
0.000145411
0.0695484
0.00751179
0.0520799
0.000211191
0.000187552
0.0523489
0.0330503
0.000137877
0.000157888
0.000154822
0.000147497
0.000498359
0.000166011
0.000154355
0.0422149
0.00020987
0.000142885
0.000144131
0.000162058
0.000231702
0.000139782
0.000143998
0.000157504
0.000146682
0.000932862
0.00023799
0.000491761
0.000211197
0.0457392
0.0238643
0.0400433
0.0108622
0.000155644
0.000510126
0.0231901
0.00109002
0.000131376
0.00013953
0.000145999
0.000996552
0.0530344
0.000158526
0.0071705
0.000148878
0.000157214
0.000169103
0.0035683
0.00022716
0.000143408
0.000162243
0.00014652
0.000143423
0.000199143
0.000140591
0.000168852
0.000131063
0.0526878
0.000157733
0.000169006
0.000165419
0.014521
0.0505006
0.000147211
0.000151498
0.00019894
0.000131271
0.00206886
0.000228973
0.000178415
0.000142275
0.000195121
0.00014997
0.000431271
0.000152395
0.0572903
0.0246454
0.000183762
0.0597993
0.0345591
0.000140386
0.000227162
0.0415135
0.0230611
0.000256968
0.000160922
0.0385389
0.0329018
0.033315
0.000147584
0.000151519
0.000171814
0.000478226
0.00022072
0.00016303
0.0199123
0.000165316
0.000155937
0.000163897
0.0286258
0.000266568
0.0333916
0.0398756
0.0610004
0.000242479
0.000161279
0.000144274
0.0542336
0.0219548
0.0353269
0.000209684
0.000134842
0.0321937
0.000131185
0.000159591
0.0077324
0.000151463
0.0444128
0.000147523
0.000145376
0.000140504
0.000157635
0.000156028
0.00642551
0.000152725
0.0689155
0.00881636
0.000133897
0.000182206
0.0517337
0.0396285
0.000148791
0.000162507
0.000139067
0.0667101
0.000143529
0.00453046
0.000165962
0.000143729
0.0570452
0.0303983
0.035686
0.000690205
0.000189932
0.000147512
0.022386
0.00795422
0.0400446
0.000154249
0.0516411
0.00016081
0.000152621
0.000156217
0.000161353
0.0248871
0.000199597
0.000242568
0.00018698
0.0116548
0.0393861
0.0394025
0.000173048
0.00016092
0.0003378
0.000149741
0.00024004
0.000155281
0.000188758
0.0404204
0.000131413
0.000176245
0.00940189
0.0233554
0.000169366
0.000157693
0.000132267
0.000154491
0.0161934
0.00019726
0.0560333
0.000197229
0.0402185
0.0394821
0.0666154
0.0395663
0.00958483
0.000198039
0.0397283
0.0115692
0.0405711
0.000194173
0.000161354
0.0063299
0.00018548
0.00685405
0.0347081
0.00930718
0.000144836
0.040103
0.0158713
0.031827
0.037063
0.000155219
0.000142307
0.000140019
0.0344621
0.000147329
0.000143246
0.000143262
0.000157555
0.0001447
0.0128736
0.000229686
0.0411343
0.000147388
0.022309
0.000157066
0.025385
0.000139309
0.0535481
0.0340176
0.000147056
0.00109535
0.000135118
0.0354783
0.0576083
0.00018475
0.000156124
0.000141717
0.000157613
0.000206803
0.000200526
0.000154602
0.0199018
0.000192205
0.0010413
0.000194369
0.00020531
0.0154637
0.00017493
0.000205061
0.0263681
0.000188973
0.000177043
0.000150276
0.021615
0.000152884
0.00928732
0.000189261
0.000144118
0.000146474
0.000140739
0.0347387
0.000194944
0.0353362
0.0296595
0.000131986
0.0555012
0.0417503
0.000163508
0.0110107
0.000142553
0.000149295
0.000149373
0.000175429
0.000220137
0.00699262
0.0147408
0.00015578
0.000226159
0.0137609
0.000142268
0.0179199
0.000458775
0.0341169
0.000178474
0.00651286
0.000210806
0.000338186
0.00013948
0.000149725
0.0379196
0.000222171
0.000166608
0.00190589
0.0448146
0.000135429
0.0419664
0.000151521
0.000156477
0.000143733
0.000145479
0.000144039
0.000156832
0.0635648
0.0374307
0.0493759
0.00017255
0.00020895
0.036663
0.000157242
0.0491236
0.0528827
0.00223159
0.000145178
0.0002242
0.000142013
0.0554998
0.0307718
0.000190434
0.0220956
0.0427285
0.000210988
0.0213979
0.000135121
0.000149586
0.0265848
0.00646648
0.0001542
0.0227775
0.0420849
0.0358761
0.000140854
0.000231318
0.0512415
0.0461137
0.000132812
0.0226814
0.000147351
0.000149109
0.00686976
0.0187726
0.00014517
0.000159297
0.000231353
0.0593424
0.000149272
0.000164885
0.000132579
0.0299814
0.000161255
0.000229475
0.000142495
0.000161839
0.0208514
0.000147676
0.0302713
0.000196962
0.000160233
0.0377264
0.00449074
0.0339678
0.00013321
0.000158672
0.0379907
0.00213492
0.0088534
0.000210608
0.000147866
0.000156126
0.000199894
0.000142875
0.0233251
0.031415
0.000136415
0.0375686
0.00014886
0.0215807
0.053821
0.000221528
0.00492485
0.000402949
0.0407416
0.0572439
0.000161599
0.000192657
0.000152856
0.0155243
0.00260162
0.000159498
0.000142412
0.000149964
0.000206023
0.031377
0.0632452
0.0513636
0.000138856
0.000131258
0.0496733
0.000190922
0.00015128
0.000159819
0.0363812
0.0355261
0.000154869
0.000157419
0.000143608
0.000199264
0.000156898
0.000145003
0.000150586
0.000145412
0.0356592
0.0584127
0.0446013
0.0320136
0.000277503
0.000148089
0.000144626
0.000198182
0.000221926
0.0148625
0.000194998
0.007712
0.0159724
0.00015798
0.000146718
0.000146097
0.000147332
0.000222361
0.0133491
0.0401656
0.000208386
0.000197977
0.000197035
0.00540273
0.00516824
0.0156773
0.000167668
0.000133407
0.000152676
0.000152513
0.00019007
0.0442436
0.000180022
0.000175468
0.000147666
0.000170375
0.000230848
0.000160007
0.000189097
0.000147852
0.000183159
0.0560725
0.0259888
0.000190397
0.0226172
0.0470542
0.000143867
0.0172767
0.0224116
0.0315894
0.000144608
0.000202747
0.00014325
0.0279081
0.000161788
0.0522414
0.00015617
0.0354062
0.035117
0.000137143
0.000187028
0.000104831
0.0405705
0.00430839
0.000184386
0.0384147
0.000140577
0.0410769
0.000243672
0.000159316
0.000170381
0.000178559
0.0394934
0.00818728
0.000189082
0.0403974
0.000148507
0.000152387
0.000138285
0.000162007
0.000172957
7.79174e-05
0.0001503
0.0157168
0.0281874
0.0338549
0.0505156
0.00020739
0.024904
0.000210394
0.0001789
0.000153999
0.000148585
0.000203741
0.000227882
0.0490178
0.000146485
0.000152658
0.000132399
0.000155415
0.000142981
0.000240728
0.0087799
0.00014244
0.000143028
0.000142574
0.000209407
0.0557354
0.000136487
0.0473825
0.000139597
0.0320128
0.00256198
0.00120438
0.00583299
0.0187122
0.01511
0.000951766
0.0394961
0.000161122
0.000150764
0.0143938
0.000186991
0.00014566
0.00202582
0.0162131
0.000209499
0.000154917
0.000133888
0.000154816
0.0343456
0.0253093
0.00022568
0.0443907
0.0222865
0.000238445
0.0407786
0.0274434
0.0254
0.000185933
0.000145051
0.000142903
0.000168047
0.000159207
0.00178775
0.0398494
0.000148493
0.000224892
0.0229193
0.000159171
0.000177558
0.000160322
0.000166424
0.00816206
0.047758
0.000189378
0.000197839
0.000164888
0.000157316
0.000207256
0.0215028
0.000177371
0.000211994
0.000152568
0.000186691
0.000163506
0.000162149
0.000137057
0.000185585
0.000148673
0.000177073
0.00022551
0.0227161
0.000165088
0.0183404
0.000148333
0.0187504
0.00867736
0.000210593
0.000149797
0.000239268
0.000142758
0.000198326
0.00908484
0.0160669
0.000207559
0.0402871
0.000138899
0.0462467
0.019574
0.000162486
0.000177149
0.0364386
0.000139963
0.000145757
0.000155157
0.000154201
4.27926e-05
0.0374584
0.000147452
0.0211043
0.00018989
0.000153926
0.000146923
0.0686576
0.00362122
0.000142923
0.011972
0.0164721
0.01286
0.000155393
0.000138487
0.0144506
0.0333201
0.000226324
0.000177136
0.000184128
0.0390282
0.000239358
0.000198966
0.00016083
0.00021156
0.000177103
0.00735336
0.000137059
0.000150923
0.0307403
0.000143194
0.0435321
0.000179091
0.000148851
0.000147999
0.0240819
0.000168561
0.000148954
0.0001635
0.000162073
0.0097325
0.0292917
0.0224224
0.000184473
0.0255894
0.00018764
0.000145197
0.00835461
0.000183038
0.000162504
0.040378
0.000147424
0.000131155
0.000169157
0.000153204
0.0246548
0.0394483
0.000160934
0.00736286
0.000159051
0.000161377
0.0158454
0.000176841
0.00568366
0.000185216
0.000143109
0.000157089
0.000224662
0.000167603
0.000184223
0.000209145
0.00018929
0.000172849
0.0111116
0.000406433
0.000157586
0.000179098
0.000216834
0.000210078
0.000156252
0.0105267
0.000291128
0.000177668
0.0111546
0.0352018
0.0279885
0.0144192
0.000170564
0.00414504
0.000222889
0.000209536
0.0571088
0.000148868
0.000168502
0.0429661
0.000196469
0.00872763
0.000214792
0.000169721
0.0298316
0.0301042
0.00919577
0.000178894
0.000232572
0.000157009
0.0132104
0.0541896
0.0277947
0.000154188
0.000184474
0.000228572
0.000171214
0.000198364
0.00020417
0.000177833
0.000182717
0.000178645
0.028923
0.0291401
0.000171844
0.000189419
0.036539
0.0267375
0.000163112
0.000161767
0.000204163
0.0283946
0.000152935
0.043635
0.000156394
0.000143811
0.000140009
0.000155183
0.000214259
0.000147811
0.000131759
0.000163752
0.000139924
0.000148269
0.010854
0.000156146
0.0282401
0.0309006
0.000172373
0.000190044
0.000198541
0.000146922
0.000148778
0.000143153
0.0118866
0.000184711
0.000140271
0.000148116
0.00015863
0.00017841
0.000174057
0.00627893
0.000179143
0.000142265
0.000171707
0.0107511
0.000159017
0.000152893
0.000163926
0.0347139
0.0316833
0.000172424
0.00746431
0.000294783
0.0254999
0.000221388
0.0325785
0.000145667
0.0185713
0.000156512
0.0001417
0.000148938
0.000191074
0.000180083
0.00014733
0.000171562
0.000144708
0.000233132
0.000343326
0.000148097
0.000157894
0.000182411
0.0325495
0.000144629
0.0401882
0.000159695
0.00572754
0.000140173
0.000143029
0.000117696
0.00015539
0.000165606
0.000144452
0.000145899
0.00354246
0.000191319
0.000163514
0.000136737
0.0380333
0.0192638
0.000157651
0.0306055
0.0412293
0.000167327
0.0298467
0.0325984
0.0354868
0.000146578
0.000206717
0.000161304
0.000207211
0.0345633
0.000148954
0.000226191
0.000149954
0.000206941
0.00016183
0.00617648
0.000164822
0.000163992
0.0287769
0.00406607
0.00022639
0.000203273
0.000149889
0.000199147
0.0359961
0.00015564
0.000208749
0.0143725
0.000502692
0.000143528
0.000148748
0.000206454
0.0228046
0.0291188
0.0319939
0.000146201
0.000207413
0.000144815
0.0430664
0.0305986
0.0225998
0.0282787
0.0108705
0.000142308
0.00312151
0.000165636
0.000148469
0.0047979
0.000162543
0.000316745
0.000136858
0.0359993
0.0361611
0.000168907
0.0071348
0.0049693
0.0391014
0.000159374
0.000144778
0.0337251
0.000154453
0.0207269
0.000147843
0.00014499
0.000158462
0.0261137
0.000134217
0.0328665
0.0129659
0.000364404
0.000177785
0.0189166
0.00720358
0.0306163
0.0284383
0.0683043
0.064205
0.000219327
0.00014198
0.000198166
0.0198292
0.0330837
0.000178886
0.000144357
0.000140801
0.0193392
0.00023198
0.000168324
0.000210681
0.000141101
0.000140855
0.000246059
0.00015914
0.0150283
0.000143117
0.0521056
0.000186605
0.000146948
0.0223582
0.000189577
0.000209953
0.000142998
0.029119
0.00021263
0.000162553
0.000194757
0.0184092
0.026861
0.000151395
0.000179809
0.000158516
0.000172533
0.00964915
0.00837888
0.0105883
0.000137312
0.000211798
0.00802632
0.0535651
0.0301106
0.0137126
0.0135179
0.000141464
0.000180946
0.000526886
0.0470922
0.00024
0.00741342
0.000143608
0.0565986
0.0117037
0.000146803
0.000162502
0.000189996
0.0346241
0.000147509
0.000162281
0.00847119
0.000136087
0.0178463
0.000178839
0.0195987
0.00673226
0.00437596
0.000142627
0.0100725
0.00788971
0.0110873
0.000161446
0.0353727
0.0456176
0.000141832
0.00022747
0.000173537
0.000154264
0.0356564
0.000230001
0.00016825
0.000156589
0.0396741
0.000154169
0.000203905
0.00016855
0.000142719
0.000214822
0.00022112
0.0398264
0.0374922
0.000137174
0.00017022
0.000187513
0.00017644
0.0271662
0.000152418
0.000173919
0.0405617
0.0317274
0.0260287
0.0304193
0.000209899
0.0261859
0.00015716
0.0347972
0.000199911
0.000207242
0.000213661
0.000143676
0.0321898
0.0312252
0.00564307
0.0378258
0.0362782
0.000188919
0.00776841
0.0358511
0.0341501
0.041262
0.0122844
0.0415071
0.000243462
0.000192724
0.000175886
0.000145994
0.0130276
0.000151648
0.000149332
0.0361859
0.000171659
0.000203134
0.000148032
0.00913012
0.0676727
0.00567705
0.000166404
0.0227099
0.000155639
0.027328
0.0432135
0.0150176
0.00015585
0.00663353
0.000171094
0.000253512
0.000162145
0.00884939
0.000179148
0.000197349
0.0145858
0.000157386
0.000153458
0.0333556
0.000142745
0.000140562
0.0171353
0.000221249
0.000171782
0.0383928
0.000147924
0.0532122
0.000154826
0.000171614
0.000154057
0.000175714
0.000149231
0.000199754
0.0387405
0.000152061
0.000143154
0.0135467
0.00020385
0.000145562
0.000186665
0.000159901
0.000197475
0.0398921
0.000198753
0.0255695
0.0438784
0.000221745
0.0362929
0.000149013
0.000156639
0.000209066
0.0292336
0.0449752
0.0113014
0.000183681
0.00200753
0.00015643
0.0256675
0.00579052
0.0136781
0.000184761
0.0287034
0.0337342
0.000142562
0.0272554
9.99197e-05
0.00014398
0.000150273
0.0192761
0.000150767
0.00019889
0.000150912
0.000172798
0.000186139
0.000151278
0.000151757
0.000221578
0.0259105
0.000150025
0.0629187
0.00573513
0.000223756
0.0396928
0.0275932
0.000147215
0.0152725
0.00018659
0.000147698
0.0277632
0.000171109
0.000180413
0.00479525
0.000146461
0.000143166
0.00578004
0.00015798
0.0325521
0.000154853
0.000161378
0.000145326
0.000222856
0.0339114
0.0259343
0.000145444
0.00109556
0.0537517
0.000176875
0.000161217
0.0260202
0.000218871
0.00014052
0.00721592
0.0421608
0.000191953
0.000146292
0.000144574
0.000152749
0.00018189
0.000144764
0.000196223
0.0171022
0.000143204
0.0109224
0.0166285
0.0323986
0.0348905
0.000169292
0.000241842
0.0672544
0.00578928
0.000219927
0.0374963
0.0193293
0.000148315
0.00478493
0.000148295
0.0414546
0.000142737
0.000185273
0.000146735
0.00116113
0.000391766
0.000155004
0.021438
0.0355271
0.000161439
0.000201014
0.000185372
0.000154629
0.000186239
0.000207238
0.0249982
0.000157448
3.46684e-05
0.0365271
0.0298139
0.00446975
0.040196
0.000140628
0.000143503
0.00521538
0.0228483
0.0002224
0.0376618
0.000220672
0.000156879
0.0080832
0.00221528
0.000184218
0.0134577
0.000182561
0.0141442
0.000150613
0.0206402
0.000151486
0.000187527
0.000185116
0.0400433
0.000185359
0.0392405
0.000152256
0.000144801
0.00762413
0.0401582
0.0323289
0.0370797
0.00026109
0.0344835
0.000223
0.00014052
0.0253206
0.000143789
0.0202352
0.00920336
0.0235465
0.000214653
0.000206293
0.000230194
0.000221943
0.0405141
0.000154097
0.0405732
0.0399297
0.000151836
0.00712561
0.00021272
0.000164486
0.000157557
0.000157313
0.00723345
0.000167143
0.000240641
0.0277588
0.000144318
0.000207415
0.000180784
0.0413637
0.0384381
0.000186239
0.0444998
0.0144744
0.000220505
0.000149795
0.0337619
0.0384003
0.000152081
0.000499696
0.0228788
0.0163632
0.000137279
0.0381097
0.000143063
0.000148872
0.000148032
0.0491181
0.0316548
0.000195805
0.0472642
0.000146384
0.000154813
0.000207409
0.000221667
0.0180321
0.000158439
0.000165876
0.0269529
0.000220535
0.000145617
0.000144246
0.00020201
0.000145226
0.000186171
0.00106165
0.00866386
0.000223283
0.000153235
0.00018256
0.0276071
0.0241154
0.0372902
0.0486097
0.00015203
0.000171674
0.00456255
0.0311329
0.00642917
0.0351651
0.000159513
0.0274593
0.000163908
0.000186945
0.00805308
0.000199656
0.0391169
0.000161497
0.0010551
0.000155644
0.0396807
0.000141775
0.000203139
0.00014318
0.0380503
0.0271986
0.000152888
0.000145245
0.00501021
0.00014271
0.03825
0.00617839
0.0211626
0.032134
0.0258521
0.000145314
0.00017996
0.000157968
0.000187534
0.037423
0.021639
0.0188138
0.0421322
0.000176389
0.000258005
0.000155656
0.0167916
0.000200919
0.00013821
0.000147371
0.00718449
0.000140741
0.00593022
0.000140737
0.00014062
0.000139509
0.000194955
0.0273051
0.000224913
0.000200595
0.000145126
0.000183563
0.000214506
0.0220075
0.000186281
0.000204488
0.000167255
0.00307507
0.000149998
0.000196855
0.00278794
0.0372045
0.0397937
0.000372103
0.000194315
0.000153666
0.000192061
0.000215796
0.0374549
0.000222418
0.0400453
0.000140778
0.000188431
0.000184299
0.00014436
0.0275597
0.000200114
0.000144477
0.000157737
0.0141883
0.0150894
0.000155248
0.000145342
0.0365392
0.0300385
0.00016074
0.000210492
0.0393648
0.00020718
0.0320508
0.0384623
0.0525232
0.0334028
0.0126579
0.000222644
0.0255977
0.000168617
0.0140403
0.0180504
0.0532325
0.0544405
0.00017099
0.0611698
0.0236827
0.000156917
0.000217836
0.0376893
0.000177498
0.0369824
0.0144755
0.000179789
0.0504746
0.000186679
0.0425156
0.00785221
0.000147543
0.000194803
0.0394707
0.000147289
0.000159217
0.000186881
0.00439251
0.0404156
0.000181607
0.013592
0.000161788
0.000131616
0.000159495
0.000155304
0.000189439
0.0001869
0.000146325
0.000186941
0.000203765
0.00532994
0.0571223
0.0408134
0.0414676
0.000141265
0.000224495
0.000172358
0.00508208
0.000192808
0.00226207
0.0171673
0.0602712
0.000216205
0.000190241
0.00351768
0.00626138
0.000195172
0.000159583
0.000167841
0.0340615
0.000147179
0.000160918
0.000181138
0.0247144
0.00813745
0.0557759
0.000159962
0.0233259
0.000138073
0.000148011
0.000155389
0.000142936
0.000156758
0.000175865
0.0277723
0.000209024
0.000198174
0.0577188
0.0421713
0.00572043
0.0253741
0.000190599
0.000368931
0.000214896
0.000160451
0.00203387
0.000240056
7.64193e-05
0.000255691
0.0002233
0.0342512
0.000156756
0.0239928
0.000142731
0.000157076
0.00016138
0.000146388
0.000151922
0.0095156
0.0564925
0.000185479
0.000147908
0.0422993
0.0234961
0.0428155
0.000175472
0.0119331
0.000185634
0.0324753
0.000224292
0.000150501
0.039779
0.000183303
0.000184993
0.000193224
0.0291333
0.00887416
0.0428585
0.000143208
0.00254832
0.000226432
0.0160149
0.000158897
0.000168942
0.000225231
0.000196802
0.0255646
0.0603842
0.000180231
0.0252753
0.0439743
0.000197307
0.000187808
0.000217817
0.000196617
0.0301981
0.000167621
0.000226913
0.0690519
0.000157865
0.042891
0.000140745
0.059693
0.0383032
0.000157981
0.0178093
0.000216558
0.000182637
0.000222866
0.0353331
0.0548584
0.000204481
0.0374893
0.000159434
0.000173536
0.0584108
0.0258248
0.000153028
0.0196828
0.0486591
0.000196513
0.00676277
0.000226049
0.044655
0.000243526
0.000165336
0.041318
0.0313241
0.028795
0.000143317
0.000164977
0.000225462
0.0402719
0.000185354
0.0558138
0.0283507
0.000225937
0.000147562
0.000142884
0.0306332
0.000145335
0.000182428
0.000169966
0.000195603
0.03195
0.0149071
0.0293974
0.000156299
0.000226072
0.000196251
0.000189835
0.0387615
0.00154225
0.0184398
0.000159583
0.0160162
0.00855324
0.000162969
0.0454235
0.000154529
0.0407859
0.000182823
0.0335745
0.000146136
0.000212525
0.000191445
0.000210449
0.0464999
0.0281504