/*--------------------------------*- C++ -*----------------------------------*\
| =========                 |                                                 |
| \\      /  F ield         | OpenFOAM: The Open Source CFD Toolbox           |
|  \\    /   O peration     | Version:  v2012                                 |
|   \\  /    A nd           | Website:  www.openfoam.com                      |
|    \\/     M anipulation  |                                                 |
\*---------------------------------------------------------------------------*/
FoamFile
{
    version     2.0;
    format      ascii;
    class       volScalarField;
    location    "200";
    object      nut;
}
// * * * * * * * * * * * * * * * * * * * * * * * * * * * * * * * * * * * * * //

dimensions      [0 2 -1 0 0 0 0];


internalField   nonuniform List<scalar> 
14804
(
0.00587278
0.00592079
0.0136399
0.0058613
0.00157114
0.00555969
0.00636944
0.00204952
0.00555577
0.00603922
0.00431532
0.0088052
0.0125128
0.0124109
0.0220336
0.00473451
0.00321779
0.00991305
0.00425911
0.00586276
0.00602141
0.00184868
0.00412448
0.0048654
0.017471
0.00624757
0.00382579
0.00602569
0.022073
0.0189349
0.0259807
0.00325133
0.00242656
0.00173393
0.0133044
0.00587613
0.00586084
0.00507416
0.00116031
0.00584926
0.000343273
0.00119868
0.00147725
0.00334712
0.0214156
0.0241821
0.000458615
0.0058602
0.00222848
0.00602015
0.00604274
0.00601005
0.00594875
0.00398512
0.00241455
0.00602329
0.00367537
0.00501593
0.024817
0.0146157
0.00506853
0.0147898
0.00586168
0.00592274
0.0025264
0.00847768
0.020564
0.00547172
0.00603474
0.0056058
0.00365078
0.0055497
0.00254878
0.00181957
0.0129044
0.00604363
0.00604525
0.00210321
0.00584674
0.0026045
0.00273747
0.00449222
0.00162296
0.0158799
0.00620478
0.00605171
0.0060052
0.00589332
0.00225645
0.00207012
0.0158068
0.0058864
0.00584862
0.00591867
0.00601103
0.014762
0.00599708
0.0196174
0.00495125
0.00448586
0.0237476
0.0152035
0.00126834
0.00243151
0.00167531
0.0191545
0.00561878
0.006018
0.00468473
0.00131758
0.0059984
0.00560299
0.00752244
0.00173826
0.00298244
0.0134764
0.00022877
0.00139206
0.00500697
0.00599157
0.0145243
0.00179959
0.005916
0.00180239
0.00465766
0.00186672
0.00597207
0.00601819
0.00184083
0.0184707
0.00585659
0.0143715
0.00562675
0.0267595
0.00596417
0.0162367
0.000235284
0.004756
0.0142656
0.0266324
0.00586311
0.0057224
0.00484561
0.00312471
0.000423305
0.00576916
0.00079741
0.00103663
0.0152366
0.00559373
0.0206827
0.00585698
0.00134342
0.00023207
0.00588219
0.00585237
0.0215994
0.00285984
0.00605447
0.0163658
0.00600958
0.00604346
0.00603072
0.00566811
0.00256806
0.0184528
0.00602846
0.00600449
0.00334802
0.00271733
0.00601108
0.00283964
0.0165819
0.00574106
0.000675237
0.0173232
0.00122009
0.00799503
0.0160554
0.00395767
0.00597118
0.00229514
0.00601728
0.0243099
0.00603697
0.0139796
0.0150195
0.0178766
0.0271269
0.00607272
0.00601093
0.0141059
0.0125487
0.0235516
0.0224181
0.0233648
0.0197058
0.016885
0.00601002
0.0204663
0.00602633
0.00605746
0.00603063
0.0120443
0.00550427
0.00182703
0.0265608
0.0135868
0.00180883
0.00591964
0.00604374
0.0151247
0.00578162
0.0058677
0.0206099
0.00587028
0.0201799
0.00587374
0.000442989
0.0152065
0.00328052
0.0266777
0.00601358
0.00373548
0.0237269
0.00184069
0.0163532
0.00586182
0.0202097
0.00116069
0.00213628
0.0223789
0.00603571
0.00592594
0.0259454
0.00605273
0.011298
0.0189679
0.00602818
0.0257188
0.00268056
0.00246004
0.018554
0.0192807
0.00601846
0.00591999
0.00264119
0.00526324
0.00207567
0.00208927
0.015011
0.0142904
0.00598592
0.00553108
0.00601223
0.00515934
0.0147388
0.0142107
0.0204537
0.0182838
0.00548246
0.0173184
0.0059926
0.00391023
0.00601748
0.00564037
0.00586357
0.0077913
0.010284
0.00585307
0.00591017
0.000500206
0.00115108
0.00246313
0.00166751
0.0249604
0.00600072
0.00191091
0.00585285
0.0269105
0.00586601
0.0214905
0.00603426
0.00280173
0.00603255
0.0187143
0.00477554
0.00706631
0.00602795
0.0185331
0.00327489
0.00189866
0.00432244
0.0129281
0.00524323
0.003179
0.0140663
0.00592342
0.00175466
0.00592424
0.00571664
0.00297129
0.00603025
0.0022992
0.00602756
0.0197997
0.0211567
0.00592509
0.0141999
0.00310437
0.00600417
0.00587679
0.017856
0.00587153
0.00161244
0.00615536
0.00296085
0.00596819
0.000845531
0.00600853
0.00572782
0.00455666
0.010994
0.0262478
0.0059153
0.00599388
0.00324526
0.0146989
0.0159803
0.00132714
0.00223979
0.00605649
0.00591873
0.00437149
0.00577327
0.0176858
0.00136492
0.00337671
0.0137346
0.0175436
0.0176813
0.00123905
0.00547125
0.014584
0.00581448
0.00604615
0.0156018
0.0119961
0.00603984
0.00534397
0.00188759
0.00596356
0.00592122
0.024366
0.00604864
0.00579578
0.00471502
0.00607378
0.026671
0.00594096
0.00275136
0.00594752
0.00983877
0.0204961
0.00492036
0.00288108
0.00593597
0.0170098
0.0206745
0.00282434
0.00580452
0.0162466
0.00591931
0.0250694
0.00452352
0.017249
0.00164382
0.00419987
0.00585248
0.00195108
0.00598285
0.00427611
0.01072
0.00214526
0.00593286
0.00590404
0.00591827
0.00604797
0.0236104
0.00601116
0.0204832
0.00334291
0.00166973
0.00602196
0.00592996
0.0191535
0.000290482
0.00152518
0.000884862
0.00142502
0.00223886
0.0029518
0.0179928
0.0140158
0.000858553
0.00193118
0.00164797
0.00594217
0.00335273
0.00601136
0.00594572
0.00150357
0.00358024
0.0153328
0.0199995
0.00606453
0.0062114
0.0059633
0.00328996
0.0026247
0.0197145
0.0051475
0.00152079
0.01972
0.00566556
0.00585014
0.0012887
0.00514579
0.00146704
0.00440397
0.00605177
0.00599924
0.0228061
0.0202309
0.00590568
0.0196898
0.001894
0.00472836
0.00585022
0.0223485
0.0167137
0.00604068
0.00161922
0.00600952
0.00212795
0.00240114
0.0264793
0.00559247
0.00604214
0.0267813
0.000779373
0.0123598
0.0196068
0.000460006
0.0169206
0.0059387
0.024805
0.00587797
0.00138552
0.00352323
0.00342593
0.00132689
0.00545048
0.0109959
0.00590509
0.00539417
0.00256702
0.00344058
0.0155638
0.00603448
0.00591103
0.00585841
0.0183993
0.00696867
0.00542709
0.00139713
0.00600039
0.000861115
0.0058636
0.0017997
0.0057304
0.0115654
0.020517
0.000939884
0.0133524
0.00430885
0.0168631
0.00322496
0.0205758
0.0170602
0.020049
0.0187813
0.00136713
0.0256562
0.0231774
0.00598844
0.00602978
0.0207823
0.00603949
0.0018427
0.00163067
0.00572744
0.00587591
0.0181829
0.00558182
0.00338325
0.00135853
0.00548796
0.0060066
0.0129499
0.00187733
0.0193689
0.0238731
0.00550778
0.0013488
0.0152978
0.0164901
0.0196837
0.00586212
0.00342831
0.00603016
0.0014652
0.0205594
0.0112966
0.0176561
0.0166028
0.00113222
0.00472648
0.0228785
0.00023272
0.00793958
0.00585275
0.0154099
0.0206816
0.0254381
0.00603258
0.00730918
0.00566492
0.000530681
0.00764104
0.00587634
0.0182255
0.00596391
0.00305996
0.00593577
0.00557617
0.000199615
0.0058964
0.00572443
0.00622105
0.00620227
0.00595798
0.00585947
0.00589695
0.00159163
0.00593539
0.020984
0.00994833
0.00593405
0.0190731
0.00601156
0.0052477
0.00587536
0.0039499
0.00604078
0.00136684
0.00603646
0.000742512
0.0214485
0.00603354
0.00164854
3.65737e-05
0.0147952
0.00774034
0.00410066
0.00170662
0.0258297
0.0207714
0.00388699
0.00589457
0.0211547
0.00590877
0.00177626
0.0215808
0.0179052
0.0175743
0.00589551
0.00594449
0.00585543
0.00598365
0.00384364
0.00591445
0.0210695
0.0194988
0.0193134
0.0227268
0.00237632
0.00290978
0.00139263
0.00569208
0.0165347
0.0144192
0.00589319
0.0023578
0.00435887
0.00167058
0.00557363
0.0256265
0.00567017
0.00310837
0.0215096
0.00606327
0.0191131
0.0219201
0.00917162
0.00366664
0.0201117
0.00606199
0.023029
0.00597539
0.00148359
0.00101931
0.000359434
0.00713598
0.00547603
0.00556239
0.0214673
0.00393061
0.00388663
0.00575558
0.00591122
0.00585824
0.00474378
0.00594393
0.00571581
0.00584755
0.00122185
0.0247471
0.00187571
0.00274755
0.0227089
0.021202
0.006026
0.00222822
0.00591591
0.00604603
0.00592238
0.00584839
0.00586104
0.00192338
0.0268487
0.00189714
0.00310249
0.00600036
0.000371253
0.0256748
0.0210497
0.0015376
0.00164807
0.00183217
0.0211399
0.00602011
0.0206673
0.00605003
0.00199546
0.0197027
0.019177
0.0143091
0.00382281
0.00586238
0.0128408
0.00284818
0.00605161
0.00349565
0.0027408
0.00588853
0.00944857
0.00496969
0.023996
0.0182645
0.00587139
0.00153904
0.0128948
0.0222376
0.00368081
0.00601361
0.0202292
0.0059656
0.00598649
0.00421351
0.00590319
0.0109661
0.00607777
0.00563533
0.00135599
0.00599804
0.00549587
0.0200892
0.00178101
0.00192492
0.00597582
0.0171482
0.00588871
0.00605266
0.0199789
0.00523002
0.00372983
0.0140674
0.00594613
0.0219309
0.00587812
0.00156172
0.0146216
0.0168149
0.00775183
0.000208089
0.0060459
0.00612464
0.0011555
0.0171231
0.0138577
0.002279
0.00595818
0.0016782
0.0203274
0.0238311
0.00442052
0.00575378
0.00594359
0.00953829
0.00343506
0.0206919
0.0212616
0.00347527
0.0046446
0.00584947
0.00598701
0.0058864
0.0206017
0.0019512
0.00357699
0.0216563
0.00589704
0.00232524
0.00313363
0.0040389
0.0056626
0.00604217
0.00585676
0.00586801
0.0039038
0.00201578
0.00260807
0.00243608
0.0107169
0.00204572
0.0224029
0.00589697
0.0154929
0.00603909
0.0032859
0.00594338
0.00419209
0.0197687
0.003529
0.00884169
0.00597852
0.00595872
0.0145306
0.0211591
0.00437778
0.00432388
0.00600208
0.00589576
0.0105527
0.00375649
0.00172085
0.00604473
0.000524473
0.00658057
0.0100434
0.00601507
0.00602018
0.015624
0.00287015
0.0164105
0.0200172
0.00465378
0.00593497
0.0211718
0.000789332
0.00327693
0.00597567
0.00545153
0.00586406
0.00183357
0.0204055
0.013071
0.00590013
0.00595892
0.00693671
0.00593986
0.00593034
0.0193531
0.00584612
0.0035646
0.00591522
0.00124653
0.00605313
0.00284417
0.0219681
0.00593293
0.0237614
0.00339629
0.0131099
0.00585345
0.00605022
0.0182229
0.0232807
0.0196149
0.00509684
0.0129812
0.00549962
0.00602364
0.0152262
0.00585813
0.00587086
0.00588018
0.00587329
0.0197171
0.00604237
0.00432399
0.000832014
0.00586284
0.0201152
0.00569734
0.0180686
0.0058609
0.0021093
0.021471
0.00781059
0.0214948
0.00602531
0.0202228
0.00359127
0.0207113
0.00589738
0.00347754
0.00522612
0.00597786
0.00598436
0.00589994
0.0174858
0.01376
0.00528783
0.00175304
0.00605894
0.00295875
0.00810417
0.000429907
0.00466068
0.00213095
0.014824
0.0140687
0.00588584
0.00590486
0.0135309
0.00379843
0.0205048
0.0108705
0.0038068
0.00356242
0.00606846
0.0203151
0.00592329
0.0059893
0.00184987
0.0162249
0.0059359
0.00605167
0.00591832
0.00586616
0.00181657
0.00602916
0.0058495
0.0208493
0.0230708
0.00141461
0.0205724
0.00425649
0.00588238
0.00345513
0.0159974
0.00571201
0.00331742
0.0204813
0.00597246
0.00139109
0.013962
0.00265532
0.00593346
0.00584671
0.00401901
0.00596454
0.00145998
0.00389352
0.00540365
0.0212096
0.0223738
0.00296593
0.00199851
0.00588559
0.0154764
0.00417549
0.0042485
0.0189545
0.0204827
0.00587856
0.00139703
0.00485729
0.0059487
0.00516021
0.00560942
0.005519
0.00901225
0.0159137
0.00191294
0.00456214
0.00600701
0.00604332
0.00593787
0.00602514
0.00369623
0.00603174
0.024409
0.00733911
0.00566624
0.0088229
0.0266219
0.0111851
0.00218213
0.0055928
0.023281
0.0152682
0.00835014
0.00400049
0.00241975
0.00196137
0.0199138
0.00302569
0.00609668
0.00598582
0.0061201
0.0108838
0.00273633
0.00566682
0.00389203
0.00886292
0.0167734
0.00606892
0.0013784
0.0111538
0.00589405
0.00605378
0.00375034
0.00558693
0.00601643
0.00604104
0.00661247
0.00554536
0.0248533
0.0120381
0.00348531
0.00126554
0.00126598
0.0222503
0.00585677
0.00621555
0.00164142
0.00863756
0.00599911
0.0101208
0.0208962
0.0262594
0.00590041
0.00120163
0.011525
0.00204408
0.00271093
0.00190968
0.00314935
0.00489585
0.0117193
0.0106212
0.00601067
0.00461643
0.00583572
0.00280513
0.0152805
0.00420482
0.0060638
0.00900196
0.000729542
0.00591448
0.0222827
0.00240937
0.0202792
0.00599398
0.00347264
0.00307171
0.00604674
0.00243118
0.00595403
0.00166248
0.00252884
0.0203893
0.00593111
0.00207518
0.00181581
0.0059876
0.0195422
0.00586008
0.0201162
0.0017487
0.00273343
0.0209278
0.0118835
0.00585988
0.005896
0.00535367
0.00599915
0.00417439
0.005257
0.00613477
0.0169564
0.0018267
0.00584533
0.00584786
0.0050878
0.00136758
0.00589621
0.00584977
0.00592181
0.00595321
0.00345127
0.00125215
0.00424129
0.00182351
0.0141014
0.0202423
0.0263477
0.0220689
0.00500501
0.00429286
0.00821538
0.000722389
0.00586824
0.00592033
0.00593543
0.000818468
0.0224984
0.00493374
0.00516463
0.00603426
0.00416058
0.00425376
0.00166757
0.00131932
0.00604715
0.00563344
0.00595391
0.00591974
0.00175331
0.00603808
0.00297147
0.00584759
0.01954
0.00402558
0.00337195
0.006045
0.00718738
0.0157111
0.00605118
0.00600696
0.00156422
0.00585059
0.00244637
0.00137221
0.00166691
0.00586006
0.00270231
0.00583885
0.0015192
0.00594974
0.0232162
0.0110181
0.00170949
0.0195886
0.016452
0.00604403
0.00144025
0.0138422
0.0249919
0.00158701
0.00219864
0.0200785
0.0146442
0.0115468
0.00592991
0.00552969
0.00155566
0.00401444
0.00142474
0.00557034
0.00690123
0.00434955
0.00364941
0.0035039
0.0118159
0.0036811
0.0134862
0.0217977
0.0237196
0.00121254
0.00535454
0.0059978
0.020612
0.00577063
0.0114754
0.00184111
0.00596909
0.012269
0.00585098
0.00331572
0.00589485
0.00602671
0.0133151
0.00605585
0.00592593
0.00602837
0.00440061
0.00600547
0.00848556
0.00604683
0.0195943
0.0204259
0.005944
0.00180015
0.0208922
0.0223193
0.00603473
0.00604753
0.00587934
0.0193748
0.00601507
0.00307148
0.00236324
0.00599811
0.023165
0.0105651
0.0172213
0.00467359
0.00183874
0.00592539
0.0130316
0.00587852
0.020434
0.00607122
0.022273
0.00572105
0.00594643
0.005976
0.00321926
0.00973787
0.0024346
0.00121219
0.00397721
0.0216226
0.0179305
0.0127908
0.00425669
0.00548044
0.00065255
0.00600398
0.00122945
0.00527009
0.00286782
0.0230373
0.0058756
0.00379104
0.0216834
0.0128703
0.00463063
0.00591087
0.00586406
0.00605039
0.0161283
0.00272333
0.0230819
0.00167588
0.0221295
0.0145859
0.0224098
0.0096662
0.0216683
0.00264228
0.0181965
0.0214071
0.0205914
0.00296564
0.0054374
0.00316301
0.0036136
0.00456261
0.0180827
0.0210614
0.0058899
0.0169533
0.00483911
0.0127745
0.0206265
0.00509226
0.00597563
0.00587829
0.0181853
0.00589499
0.00592296
0.00600405
0.00265397
0.00600058
0.00876966
0.00122
0.0194641
0.00593504
0.0225565
0.00593442
0.00788994
0.00589198
0.0162838
0.0191076
0.00591283
0.00329006
0.00597353
0.0155894
0.02016
0.00365944
0.00536398
0.00596986
0.00592642
0.0020404
0.00230272
0.00517609
0.00367449
0.00189071
0.00524374
0.00183187
0.000358722
0.00977182
0.0039209
0.000818078
0.00962033
0.00176967
0.00435703
0.00602695
0.00970419
0.00603518
0.0208225
0.00136791
0.00584962
0.00595368
0.00585918
0.0104763
0.00288856
0.0160547
0.0114215
0.005868
0.0197426
0.0188075
0.00402488
0.0111362
0.00600249
0.00596986
0.00604836
0.00382847
0.00148569
0.00605829
0.00236112
0.00599523
0.00147983
0.00641596
0.00598953
0.00762137
0.00429172
0.0173717
0.00219673
0.00530136
0.00178335
0.00413354
0.00588133
0.00587158
0.0165414
0.00140414
0.00519751
0.00589969
0.0135484
0.00595482
0.0153162
0.00575864
0.00344857
0.00585196
0.00590732
0.00590366
0.00594503
0.019587
0.0167404
0.0215343
0.00425527
0.00158031
0.0172441
0.00569877
0.0215688
0.020736
0.000502287
0.00587106
0.0013765
0.00597453
0.0229685
0.0124235
0.00202118
0.00846189
0.0130992
0.00181257
0.0080816
0.00594963
0.00600243
0.00762058
0.00566111
0.00605636
0.00797237
0.0132043
0.0187219
0.00585916
0.00137589
0.0145262
0.0211996
0.00589681
0.0089264
0.00595563
0.00598645
0.0046002
0.0158748
0.00588699
0.00238298
0.00127689
0.0235515
0.00601419
0.00488422
0.00589212
0.0261639
0.00569159
0.00247531
0.00586081
0.00550475
0.00834107
0.00592078
0.0268679
0.00187511
0.00287193
0.0168322
0.00209857
0.0176835
0.00589406
0.00459187
0.0209752
0.000884846
0.00705786
0.00180472
0.00605874
0.00599841
0.0016728
0.00600609
0.00934516
0.0140449
0.00588611
0.0205921
0.00605232
0.0207683
0.0225404
0.00142115
0.00232761
0.00164936
0.0185075
0.0215544
0.00532945
0.00280646
0.00603389
0.022595
0.0102013
0.00286634
0.00599613
0.00603024
0.00211447
0.0141621
0.0196073
0.0155772
0.00591264
0.00586062
0.0157537
0.0031846
0.00600352
0.00601908
0.0118041
0.0211984
0.00598287
0.00565632
0.00601367
0.00249169
0.00359322
0.00590368
0.00603035
0.00590309
0.0188153
0.0233764
0.0196569
0.0119957
0.0024191
0.00605482
0.00601133
0.00134124
0.00142828
0.022241
0.00287108
0.00622843
0.0221653
0.00439547
0.00605045
0.00594157
0.00597522
0.00140684
0.0227061
0.0171244
0.00133258
0.00128123
0.00154973
0.00221241
0.00419292
0.0228944
0.00305204
0.00589827
0.00606222
0.00607142
0.0028296
0.0205248
0.00404493
0.00447377
0.00592915
0.00628874
0.00137315
0.00298133
0.000576337
0.00593499
0.00323429
0.0193329
0.0249893
0.00190843
0.0120987
0.0203169
0.00585309
0.00341794
0.00692982
0.0267932
0.0058832
0.00229291
0.00585965
0.0113536
0.00344512
0.0158998
0.00598063
0.0193142
0.0115287
0.00585777
0.00188985
0.000500662
0.0260088
0.00311866
0.00181461
0.0178027
0.00588227
0.0190611
0.00119715
0.00601812
0.0021024
0.00413028
0.0174558
0.00650549
0.00142648
0.0190514
0.00597262
0.00599055
0.00590784
0.0054523
0.00396636
0.000235902
0.00551547
0.00951609
0.010037
0.0150577
0.0166204
0.00184452
0.00861376
0.00179768
0.00409786
0.00605242
0.00606006
0.00216122
0.0013037
0.0217713
0.00593251
0.00604662
0.00586785
0.00610595
0.00587205
0.00122138
0.0212727
0.00604438
0.005867
0.00587993
0.00186139
0.0213257
0.00600316
0.0150337
0.00588366
0.012209
0.00123754
0.00612666
0.0204845
0.0068133
0.0230783
0.000899762
0.0240601
0.00557853
0.00545603
0.0218215
0.00246432
0.00597169
0.00378117
0.0101566
0.00165537
0.00347143
0.00594518
0.0060441
0.0142443
0.00951138
0.00134864
0.013867
0.00647077
0.00166779
0.0203498
0.00807938
0.0143415
0.00291409
0.00588316
0.0060164
0.00499699
0.00309175
0.00746129
0.0246931
0.00605919
0.0013635
0.00884975
0.00264547
0.00199779
0.00602723
0.00271076
0.0209613
0.0215222
0.0025168
0.00193581
0.0026059
0.00594176
0.00162143
0.0182807
0.00405071
0.00145693
0.00580839
0.0013246
0.00546888
0.00620309
0.0058571
0.00252227
0.00597124
0.00214764
0.00135084
0.0131004
0.00607692
0.00366717
0.00581156
0.0121302
0.0206578
0.00185775
0.00605424
0.00127034
0.00600054
0.00174339
0.0215346
0.00799749
0.00199409
0.0225255
0.00587311
0.0129042
0.0245439
0.0056172
0.00239416
0.0159713
0.000648703
0.00593417
0.00536721
0.00599685
8.49674e-05
0.0120056
0.00587245
0.00768872
0.00328952
0.0060427
0.0059646
0.0192932
0.000864048
0.00584618
0.00604993
0.00299801
0.0225275
0.00602732
0.00599457
0.023034
0.0127504
0.00133563
0.00431725
0.0022632
0.0126512
0.00115816
0.00138192
0.00456448
0.00143794
0.00201255
0.00514064
0.00585959
0.00505141
0.016972
0.0058697
0.0207002
0.00214826
0.00605943
0.00603618
0.0077749
0.00169231
0.00591637
0.0054347
0.00564694
0.0047907
0.0114264
0.00505921
0.00349331
0.0244269
0.00187585
0.00599205
0.00613722
0.00290495
0.00219013
0.0247639
0.00605862
0.00586746
0.00489313
0.00605006
0.0242512
0.0225659
0.00569594
0.00547274
0.00329199
0.00520442
0.0025905
0.00369411
0.0204276
0.0024078
0.00586469
0.00349334
0.00256576
0.00174757
0.00248083
0.00131844
0.00146482
0.00474075
0.0160834
0.00107932
0.00271692
0.00364235
0.00161961
0.00188952
0.00596373
0.00281143
0.00328947
0.00429621
0.0161506
0.0130346
0.00933094
0.00653318
0.00364401
0.00228607
0.00140812
0.00149154
0.0232352
0.00593309
0.00436443
0.0122651
0.00135691
0.0208959
0.00163244
0.00406661
0.0219214
0.00978826
0.00728611
0.00347547
0.0013968
0.00259965
0.0226999
0.0156431
0.0135705
0.00606026
0.0024682
0.00128873
0.00444538
0.00181999
0.00173392
0.00246816
0.00251479
0.00163707
0.0187279
0.0154225
0.00452013
0.00140208
0.0142845
0.0123175
0.00221281
0.00452765
0.00223529
0.0175365
0.00578795
0.0201846
0.00598072
0.00585095
0.00588123
0.00601312
0.00166914
0.00605841
0.00585863
0.00187161
0.00601125
0.0059943
0.0144225
0.00481589
0.00826537
0.019768
0.00429067
0.0021015
0.00130275
0.00551842
0.0060537
0.00587484
0.00612159
0.00317643
0.00602984
0.00604841
0.00566773
0.00148416
0.00396719
0.00900154
0.00156331
0.00603283
0.00396445
0.0179334
0.00564285
0.00603924
0.00244716
0.0129527
0.0106894
0.00478111
0.0207683
0.00364577
0.00934501
0.00145994
0.0145343
0.00598507
0.00493052
0.0057582
0.00586202
0.00600968
0.00317774
0.00149588
0.00601551
0.00164035
0.00593817
0.00126017
0.00371923
0.0058545
0.00613376
0.00181685
0.0229604
0.00590563
0.0166125
0.00601676
0.00271626
0.00588295
0.00600201
0.000537925
0.00602688
0.00270506
0.0059706
0.00594042
0.00221267
0.0029325
0.00554475
0.00586967
0.0265351
0.0221001
0.00550722
0.0161708
0.0201028
0.00453534
0.0120148
0.016015
0.0241672
0.00578141
0.00138023
0.00566673
0.00163049
0.0152983
0.00605909
0.0016347
0.0060114
0.00149242
0.0022532
0.0194752
0.00230481
0.00539279
0.0114218
0.0028564
0.00147043
0.00228776
0.00605278
0.00052932
0.0140078
0.00491483
0.00160429
0.00927806
0.00351178
0.00592827
0.00596847
0.00209847
0.00962393
0.0120153
0.0206339
0.00594609
0.00175706
0.00586776
0.0138274
0.0188348
0.00516636
0.014601
0.00773991
0.0059041
0.0108709
0.00532082
0.005964
0.00337419
0.00212167
0.000370994
0.000461122
0.0207532
0.0123534
0.00179122
0.00514207
0.00375473
0.0173191
0.00317111
0.00600851
0.0154249
0.00524036
0.00772323
0.00586835
0.00591284
0.00615465
0.0234385
0.00588631
0.0123077
0.00238171
0.0014753
0.00188093
0.0222762
0.00636251
0.0250165
0.0102164
0.0195946
0.0198928
0.00148296
0.00586658
0.00217729
0.00370574
0.0111121
0.00366133
0.00587844
0.00591516
0.00723648
0.0012713
0.0022801
0.00179199
0.00603202
0.00585856
0.0012002
0.00600014
0.00473939
0.00585551
0.0223517
0.00613973
0.00604943
0.00915731
0.00194331
0.00193389
0.00586939
0.0240101
0.00165197
0.00538375
0.00272691
0.0108707
0.012759
0.00601519
0.00609256
0.00612725
0.00375454
0.00726894
0.00560567
0.00744498
0.00589742
0.00173253
0.00522444
0.0201123
0.012099
0.0221416
0.00375318
0.00591517
0.00399076
0.00378181
0.0210392
0.00122841
0.00660494
0.0059822
0.0193824
0.00762742
0.006011
0.00539012
0.00160995
0.012123
0.00602765
0.00539022
0.00651368
0.00599616
0.00342893
0.00418298
0.00802624
0.00581712
0.00304677
0.00591054
0.00750705
0.00695386
0.00773256
0.00220187
0.0270634
0.0210373
0.00604538
0.00130004
0.00466923
0.00605627
0.0178181
0.00128134
0.00193028
0.00596751
0.0235083
0.00568152
0.00263511
0.00269081
0.00602648
0.00163087
0.00144521
0.0150079
0.0204913
0.00601585
0.00226043
0.00295965
0.00419697
0.0133075
0.00603706
0.00345303
0.0153119
0.0166964
0.00776639
0.0157506
0.00182201
0.0239628
0.00570517
0.0188876
0.00251172
0.00205465
0.00169454
0.00585362
0.014372
0.0218221
0.00355336
0.0144131
0.0179406
0.00309291
0.00541819
0.0157431
0.011709
0.0202797
0.00797601
0.0181362
0.00120817
0.00104496
0.00236403
0.00603435
0.00778935
0.00531791
0.00606009
0.0158852
0.00367006
0.00191439
0.00602327
0.0074527
0.0200868
0.00423148
0.00494775
0.0088588
0.00569365
0.0106701
0.0194931
0.0229931
0.00376033
0.00475904
0.00487597
0.00129806
0.00563619
0.00676288
0.0023206
0.00168268
0.00790108
0.00278734
0.00496989
0.0152916
0.00601003
0.00588484
0.00320387
0.00141559
0.00447784
0.0196695
0.00584647
0.0225362
0.00562591
0.00484502
0.00486562
0.00427709
0.0060622
0.00110058
0.0196558
0.00570417
0.00604977
0.0222701
0.00222645
0.00595018
0.00353021
0.00330358
0.00181592
0.021418
0.00134205
0.00714322
0.0188902
0.00140664
0.0261591
0.00594312
0.00421529
0.00187988
0.0171114
0.0137119
0.00166244
0.00605753
0.00134172
0.00370956
0.0119999
0.02053
0.00819167
0.00289156
0.0148358
0.0143606
0.00603841
0.0083591
0.000419611
0.00593729
0.00598956
0.00347387
0.00600382
0.00135832
0.00592546
0.00216075
0.00162989
0.00601694
0.00602856
0.00141977
0.0088504
0.00598165
0.020162
0.02041
0.00138391
0.0173296
0.00811537
0.00596965
0.00841893
0.00304434
0.00606375
0.010858
0.00459399
0.00170321
0.00378232
0.00589959
0.00597333
0.0203406
0.00546017
0.0158409
0.00366111
0.00359208
0.00597934
0.00168115
0.0136571
0.0113328
0.00602425
0.00406795
0.0145994
0.00361314
0.00315229
0.0146178
0.00149648
0.00586034
0.00610156
0.0183425
0.00283729
0.00599943
0.00590134
0.00604154
0.00256492
0.00596675
0.00215249
0.00583618
0.00591887
0.00547518
0.00584152
0.011352
0.0171219
0.00408849
0.00121746
0.0224646
0.0205186
0.00157146
0.0271449
0.00800109
0.00597879
0.0196052
0.00605389
0.0202144
0.00587328
0.00190564
0.00591391
0.00500586
0.00352302
0.00352959
0.00587922
0.0205392
0.00568641
0.00192705
0.00240546
0.00522827
0.00211617
0.00207079
0.0112751
0.00550393
0.000110559
0.0207438
0.0248824
0.00432644
0.0173473
0.00585982
0.00584962
0.0175828
0.00925645
0.00139536
0.0212009
0.00147335
0.00476235
0.0187271
0.00743449
0.00362935
0.021273
0.00246535
0.00736984
0.00594378
0.00778062
0.00601004
0.00345435
0.0018434
0.0242067
0.00359676
0.0210446
0.0057367
0.00589956
0.0209425
0.0131137
0.0123115
0.0236709
0.00133584
0.0184085
0.00140098
0.00586018
0.00755277
0.0059898
0.00818991
0.00664977
0.00939857
0.00112416
0.00163147
0.00124406
0.00141341
0.017457
0.00604939
0.019532
0.0197107
0.00601316
0.00559684
0.00168451
0.00455245
0.00592219
0.00553258
0.00456816
0.00486661
0.00127238
0.0130161
0.00589397
0.00203953
0.00402429
0.0202954
0.0126139
0.000587134
0.0190402
0.00670785
0.0011451
0.00602378
0.0214452
0.0180938
0.00600277
0.00440361
0.00956094
0.0081
0.00591168
0.0196948
0.00601274
0.00597842
0.00596083
0.0217039
0.0132528
0.00196992
0.0209338
0.00604528
0.0050643
0.0016547
0.00143372
0.0030527
0.00333881
0.00599459
0.00783788
0.00145845
0.00587014
0.00599672
0.00219968
0.00591672
0.00136303
0.00451892
0.00593154
0.00139356
0.00567918
0.00184131
0.0123771
0.01177
0.0177636
0.0204841
0.00601282
0.00450491
0.0105497
0.0202476
0.019927
0.012106
0.00600758
0.0132428
0.00169244
0.00350955
0.00511204
0.00170689
0.0183099
0.00564359
0.00105058
0.00553723
0.02083
0.00589374
0.00194782
0.00596839
0.0179889
0.0204197
0.00607044
0.00575934
0.00366946
0.00588493
0.0166564
0.0203851
0.0206363
0.0160866
0.0151146
0.00592157
0.00409372
0.00258768
0.00157016
0.0170528
0.00578925
0.0213974
0.0189216
0.00440019
0.00226467
0.00397884
0.00630383
0.00186231
0.00586302
0.00594353
0.0137083
0.00588726
0.00488225
0.00595981
0.00602639
0.00601271
0.000735942
0.0131886
0.00136653
0.00274499
0.00587943
0.00345963
0.00162821
0.00860072
0.00219784
0.00222416
0.0017891
0.00203377
0.00587828
0.00180481
0.00805112
0.0185392
0.01851
0.00344636
0.00186437
0.00606348
0.00186149
0.00159496
0.0266557
0.00141899
0.0252358
0.00590055
0.00293399
0.00189911
0.00589781
0.0125444
0.00192096
0.00589324
0.00589395
0.00190607
0.00822306
0.00600592
0.00590906
0.0208086
0.0180478
0.00566362
0.00180323
0.0199741
0.0020621
0.0113336
0.0178067
0.0200037
0.0151569
0.00166437
0.00140781
0.0109711
0.00471774
0.0172639
0.0104536
0.0211354
0.019257
0.00490803
0.0193282
0.00903374
0.00492461
0.00359871
0.0178859
0.000997377
0.0173367
0.009451
0.00386122
0.0197496
0.00612991
0.0181346
0.00616664
0.00595015
0.0019784
0.0184176
0.00590763
0.00412934
0.00184937
0.0126693
0.0186903
0.00193927
0.00650832
0.00391652
0.00585366
0.00614918
0.00599849
0.001911
0.00238965
0.00595169
0.00137633
0.00185609
0.0035951
0.0187157
0.0188082
0.0189951
0.00589064
0.00137093
0.00443558
0.00948626
0.00185229
0.00513353
0.00311176
0.0218461
0.00158205
0.00189322
0.00165205
0.00494466
0.00182064
0.00341017
0.0017747
0.0113113
0.00592541
0.00348461
0.0061075
0.00922018
0.00704761
0.0199659
0.00602585
0.00655379
0.0058581
0.00600595
0.0037163
0.0059195
0.00595438
0.00100784
0.0139302
0.00144197
0.0019493
0.0183662
0.0191974
0.020066
0.024516
0.00166896
0.00438095
0.0016258
0.0056832
0.00138634
0.00115381
0.000235752
0.00129934
0.00139497
0.0192134
0.00595538
0.00950156
0.00585871
0.00419328
0.00386983
0.0056151
0.00606797
0.00764493
0.019045
0.00159988
0.00596394
0.0204031
0.0079853
0.0182117
0.00180708
0.00522758
0.00365383
0.0149284
0.0013785
0.00584176
0.0200092
0.00162245
0.00191423
0.0019508
0.0176411
0.00746523
0.0194005
0.0060185
0.00425696
0.00156687
0.00610065
0.00249589
0.00310789
0.00135691
0.00171737
0.00846595
0.0195549
0.00407671
0.00743354
0.0197118
0.00212548
0.00191938
0.00149843
0.0016907
0.0170175
0.00330557
0.00131736
0.0226279
0.00572049
0.0136178
0.0058904
0.0185545
0.0132756
0.00293506
0.00658212
0.00157124
0.00356544
0.00139819
0.0147173
0.0226231
0.00261986
0.0252212
0.00431959
0.00221601
0.0185225
0.0199419
0.00596885
0.00706064
0.0148657
0.00161502
0.00544349
0.00144818
0.0199197
0.00120781
0.00274123
0.0135555
0.0107631
0.010549
0.00592781
0.00256162
0.00135551
0.0247668
0.00155256
0.0227815
0.014861
0.00134252
0.00605884
0.00591501
0.0208759
0.00602826
0.00232432
0.00163092
0.00353327
0.016039
0.0184001
0.0106653
0.00373964
0.00133985
0.00156152
0.00320426
0.0179079
0.00313702
0.0217396
0.00565204
0.00980275
0.0161902
0.00236667
0.0201328
0.00595954
0.0241589
0.00260251
0.0140219
0.00604656
0.00170754
0.00287753
0.00186388
0.0204134
0.0153
0.0203396
0.0185805
0.00589765
0.00496346
0.00364566
0.00845831
0.00231327
0.0196025
0.00585886
0.0196246
0.00775865
0.0020416
0.016766
0.0192527
0.00520236
0.0118723
0.00189051
0.00552518
0.00585295
0.0012049
0.00150445
0.0198555
0.00589086
0.0145128
0.00600481
0.0025863
0.0214244
0.00146316
0.00757467
0.0133852
0.00418269
0.00329203
0.00825725
0.00590421
0.00586458
0.00598213
0.00142582
0.00224385
0.0202173
0.00111885
0.0074753
0.00590393
0.0206258
0.00396351
0.0113557
0.00744593
0.00138484
0.018411
0.0180742
0.0024421
0.0190952
0.0208175
0.00155957
0.00179117
0.00297427
0.00601193
0.00607249
0.00383197
0.00132453
0.00216694
0.00175074
0.0124163
0.00165361
0.0021401
0.00857887
0.0058548
0.0028572
0.00797585
0.0207917
0.0130764
0.00890672
0.00389955
0.00556641
0.0054579
0.0183338
0.00447819
0.0252675
0.00599393
0.00597491
0.00122321
0.00584691
0.00132528
0.00178445
0.00236302
0.00191684
0.0145612
0.0146498
0.021009
0.0192298
0.00585829
0.0136876
0.00158439
0.00196973
0.00181373
0.0176841
0.00131422
0.00946253
0.0180115
0.00131054
0.00155583
0.0203102
0.00600376
0.0215012
0.0183017
0.00371437
0.00575504
0.0235148
0.00262296
0.00595826
0.00158477
0.00176799
0.0248166
0.00576969
0.00972297
0.0204534
0.00600137
0.00589674
0.0243766
0.00228252
0.0133498
0.00300754
0.00591936
0.00397796
0.00158286
0.0211561
0.00178001
0.0136415
0.00380832
0.0208584
0.00156601
0.0059966
0.00968342
0.00590222
0.00247081
0.00210529