/*--------------------------------*- C++ -*----------------------------------*\
| =========                 |                                                 |
| \\      /  F ield         | OpenFOAM: The Open Source CFD Toolbox           |
|  \\    /   O peration     | Version:  v2012                                 |
|   \\  /    A nd           | Website:  www.openfoam.com                      |
|    \\/     M anipulation  |                                                 |
\*---------------------------------------------------------------------------*/
FoamFile
{
    version     2.0;
    format      ascii;
    class       volScalarField;
    location    "200";
    object      omega_0;
}
// * * * * * * * * * * * * * * * * * * * * * * * * * * * * * * * * * * * * * //

dimensions      [0 0 -1 0 0 0 0];


internalField   nonuniform List<scalar> 
14804
(
0.0225275
0.024032
2.55689
0.0235757
0.0376909
0.0293759
3.75217
0.0441347
0.027208
0.0232005
0.0443344
1.45233
0.230497
1.33129
2.28954
0.0272831
5.91333
1.33706
0.0273218
0.0225108
0.0239449
0.0376954
0.0421545
0.0280232
0.744684
3.74151
5.0745
0.0245953
2.30311
2.02486
1.55978
5.89143
0.0322525
0.0442059
3.19547
0.0236342
0.0241359
0.0278285
0.190982
0.0224302
0.241814
0.204305
0.147882
0.0268987
1.33732
1.58641
0.245725
0.0235743
0.0915382
0.0239169
0.0248441
0.0263263
0.0245955
0.0439722
0.032584
0.0245602
5.15093
4.51389
0.968334
0.243277
4.49783
3.16113
0.0224731
0.0239524
0.0281911
1.41889
0.459973
0.0288021
0.0233118
0.029009
0.0303643
0.0282422
0.0280989
0.0610148
2.51716
0.0248286
0.0253459
0.0802619
0.0222643
0.075461
0.0711389
0.0379126
0.0609356
2.1994
0.026978
0.0254065
0.0256861
0.0238469
0.0373645
0.0371053
1.92766
0.0238175
0.0224309
0.0245999
0.0236003
2.12496
0.0257277
1.36443
0.0306071
0.037964
1.57152
2.27684
0.191041
0.0283849
0.11979
0.734447
0.0288745
0.0261039
0.0307982
2.61945
0.0258639
0.0289788
3.00637
0.0540098
0.03354
2.71335
0.34875
0.161442
0.0276238
0.02306
2.55035
0.116775
0.0245941
0.0639806
0.0276593
0.0561653
0.0248171
0.024894
0.0428542
2.03256
0.0228548
2.12456
0.0267256
1.4444
0.0245011
1.86974
0.568213
0.0342473
2.55663
1.07225
0.0241494
0.0261015
0.0334755
0.0270238
0.288993
0.0270753
0.177452
0.187258
2.27989
0.029034
0.458737
0.0228775
0.185394
0.368723
0.0225634
0.0228773
0.74963
0.0287186
0.0254701
2.22158
0.0246649
0.0235657
0.0250033
0.0264762
0.0337725
1.59326
0.0252572
0.0236282
0.0697905
0.0286246
0.0246585
0.0279486
2.4329
0.0272414
0.530694
2.24766
1.03414
1.46037
2.44022
0.123144
0.0244732
0.0884396
0.0249426
0.978027
0.0237754
2.63128
1.89771
2.28004
1.40417
0.0257599
0.0254153
3.06428
1.70658
0.69083
1.79352
1.41801
1.98805
2.31224
0.0249261
2.09012
0.0248998
0.0249528
0.0236404
2.98161
0.0298173
0.114973
1.50524
0.754407
0.0627367
0.0245796
0.0261571
2.65888
0.0257545
0.0235934
2.13476
0.0246852
0.23666
0.0247013
0.199463
0.750635
0.0579156
1.29642
0.026016
0.100529
2.61507
0.11388
2.28374
0.0246167
0.472059
1.01542
0.0821124
1.78521
0.0249779
0.0246089
1.20455
0.0253772
2.83725
1.99721
0.025411
1.06597
3.16006
0.0798042
1.54092
2.36093
0.0265999
0.0239778
0.0655433
4.43121
0.0396205
0.0292586
2.84327
2.25184
0.024382
0.0291971
0.0262188
0.223185
2.25615
2.97082
2.10678
2.38021
0.02953
0.748307
0.0252052
0.0444302
0.0253592
3.92009
0.0243921
0.27116
2.60276
0.0224582
0.0245965
0.198454
0.18852
3.48593
0.0848545
1.26971
0.0256071
0.0873507
0.0224354
1.25895
0.0244078
2.63474
0.0249409
0.0570632
0.0254071
2.31095
0.0280348
3.59302
0.0247428
2.3076
5.41466
0.0877745
0.150529
3.12162
0.0278226
0.0338639
2.99963
0.0249049
0.0359148
0.0238125
0.0260144
0.0652979
0.0247392
0.0827461
0.02586
1.47422
0.427815
0.0245762
1.93765
0.0614792
0.0259832
0.0247007
2.87081
0.0236147
1.47265
0.0256225
0.065132
0.024893
0.19878
0.0254057
0.0259511
0.0268052
2.79005
1.35601
0.0246104
0.0237894
0.0585766
2.74036
3.05516
0.0638386
0.0906261
0.0244253
0.0248934
4.769
0.0269165
2.33638
0.0857999
5.66685
2.60028
2.3387
2.27853
0.174815
2.24332
2.71781
0.0255345
0.0252861
1.96457
1.73846
0.0250599
0.0282993
0.0579732
0.0228838
0.0236384
1.56251
0.0243467
0.0254962
1.62327
0.0274607
1.39998
0.0249099
0.0711077
0.024352
2.17877
2.44873
4.49637
0.067727
0.0248874
1.80592
2.41424
0.0691874
0.0254496
2.21968
0.02467
0.892101
0.0372588
2.68031
2.61497
0.0561206
0.0242807
0.106565
0.025312
0.0466429
2.39043
0.0290958
0.0245928
0.0233432
0.0236201
0.0243324
2.54069
0.0262082
2.67902
0.0565223
0.039767
0.0253705
0.0246012
2.35249
0.298231
0.0490545
0.339573
0.118424
0.0344732
0.0642467
2.28499
3.02783
0.206798
0.0396611
0.130086
0.0240883
0.0553295
0.0238424
0.024706
0.0849762
5.61169
2.26707
0.443733
0.0243569
1.18963
0.0246609
0.0305738
0.034645
1.47421
0.0282742
0.143881
1.83601
0.0277594
0.0246168
0.179378
1.17757
0.0842518
0.0273591
0.024983
0.0230698
0.870724
2.07841
0.0267583
1.85596
0.0940372
1.18181
0.024597
2.95317
2.31718
0.0254923
0.132604
0.0260749
0.0524179
0.0824056
1.28862
0.0282448
0.0249518
1.46864
0.182446
1.18826
2.84982
0.266552
2.24558
0.0244674
1.31183
0.023532
0.163553
0.0529904
0.0338647
0.0643383
0.0294004
1.54256
0.0246022
2.63947
0.0544001
0.0545142
2.19188
0.0255716
0.0246172
0.0235689
2.3044
3.22543
2.32897
0.0856991
0.023106
0.195311
0.0250463
0.11628
0.0280876
2.33542
2.07462
0.177158
2.57754
0.0616641
1.83344
0.0264973
2.46875
2.31279
3.01022
2.31726
0.169106
0.936628
2.49959
0.0239259
0.023845
0.603625
0.0237854
0.0371203
0.0471503
0.028077
0.0249806
2.37888
0.029216
0.0547268
0.171008
0.0291153
0.023114
3.01858
0.0941351
2.98411
0.868077
0.0280554
0.0861689
1.18511
2.22729
3.03317
0.024426
0.0545558
0.0252068
0.127163
2.09148
2.18601
2.27287
2.2328
0.177721
4.0561
2.4472
0.908084
0.261243
0.0228705
2.27471
1.48958
0.981211
0.0259529
0.267798
0.0285518
0.294891
3.07936
0.0269631
1.63203
0.0259968
0.062741
0.0241749
0.0292518
0.577463
0.0241781
0.0278794
0.0271243
0.0270214
0.0244977
0.0244283
0.0236592
0.119713
0.0233103
1.48782
1.1781
0.0265169
2.34508
0.0260392
4.36432
0.0241924
1.20171
0.0256413
1.45929
0.0238962
0.449782
2.21073
0.0250947
0.040436
0.435866
2.8753
3.08895
0.0425261
0.05819
1.51991
2.42994
0.0463353
0.023222
2.18581
0.022673
0.118723
0.911756
2.33596
2.33128
0.0247743
0.0256229
0.0231774
0.0261985
0.0509797
0.0267005
0.443257
1.66386
0.728841
2.38597
6.70037
6.07282
0.119984
0.0281034
1.93025
2.94407
0.024189
0.0855519
4.79335
1.31298
0.0291747
1.02943
0.0284928
0.0617473
2.92975
0.024516
1.96224
2.79778
1.81495
5.4507
0.233739
0.024577
2.43372
0.0229181
0.0842739
0.172919
0.270099
1.17595
0.0299286
0.0293532
0.696466
0.0308146
0.0855885
0.0276813
0.0226896
0.0223811
4.56164
0.025627
0.0279559
0.0222771
0.186251
0.923867
0.0838319
0.0340987
0.681604
0.512598
0.0253062
0.080039
0.0238451
0.0250079
0.0266445
0.0224325
0.0244071
0.0835222
1.32299
2.62091
0.0265835
0.0242156
0.255329
1.36537
0.76651
0.141815
0.0855128
0.112266
1.02824
0.0249377
2.49089
0.0254976
0.103171
2.87557
2.96231
3.09108
0.0480699
0.0223656
2.06435
0.0608307
0.0255559
0.0652033
0.0679441
0.0268797
0.741137
0.0324209
1.23581
2.36731
0.0223744
0.141343
1.93653
2.9241
0.0494144
0.0258322
2.01706
0.0243291
0.0249583
0.0411423
0.0234103
2.17983
3.56564
0.0287955
0.0500595
0.0259761
0.0294251
0.442229
0.0826711
2.11498
0.0242725
1.90017
0.0232231
0.0255199
2.79097
4.36072
5.11883
2.87166
0.026445
2.8224
0.0241803
0.135333
2.39712
2.30555
1.5544
0.341821
0.024356
0.0253874
0.189303
1.74903
0.681243
0.0306233
0.0247815
0.0845475
1.94746
1.32296
0.0271448
0.0270422
0.0241236
0.687801
5.79779
0.605714
0.42874
0.0784219
1.45954
0.0244506
0.0260406
0.0247149
1.93452
0.100664
0.0511029
0.748934
0.0242107
0.0302747
5.83617
0.0447014
2.67931
0.0243185
0.0231896
0.0224688
0.0466568
0.102849
0.614776
0.0824554
2.56198
0.0626347
1.62703
0.026825
2.94698
0.0251523
0.0565652
0.0248906
1.55875
1.95704
5.12212
2.38029
0.0252678
0.0243971
2.26329
0.463176
1.36008
1.54562
0.0259015
0.0246164
1.84663
0.0485267
0.058512
0.0253638
5.9679
0.239067
2.59004
0.0238634
0.0290992
2.19948
0.0552762
2.27999
2.21158
0.0351936
0.0248631
2.19752
0.334711
0.0576804
0.0252133
0.0297235
0.024425
0.115122
2.00277
0.685924
0.0246971
0.0246365
2.17895
0.0245526
0.0245721
1.92414
0.0222566
0.0305148
0.0246822
0.186184
0.0247024
0.0666943
2.77111
0.0242632
2.5766
0.0270624
2.65829
0.0243083
0.0255144
2.29404
0.70086
2.8116
0.0314089
1.18421
0.0275514
0.0249495
2.87624
0.0235427
0.0247133
0.0247202
0.0247136
2.79291
0.0255751
0.0269086
0.307214
0.0229412
2.72698
0.0280441
1.60565
0.0235572
0.0975347
2.21613
2.38295
0.435472
0.0252579
2.19331
1.76359
2.3777
0.0238369
0.0531522
0.0318493
0.0247815
0.0247202
0.0241978
2.13996
2.76414
0.0313633
0.0835638
0.0253723
0.0632928
1.33085
0.37011
0.0267777
0.0294467
1.51778
2.60629
0.0236906
0.0238496
2.64971
0.0478089
2.41716
2.64325
0.0480078
0.0300622
0.0257075
0.470099
0.0238194
0.0252123
0.0568128
2.21121
0.0241149
0.0246649
0.0240115
0.02346
0.0729028
0.0237842
0.024637
2.12655
1.74404
0.692519
0.430649
4.18501
0.0241791
0.0377668
2.2885
0.0282224
0.0263145
1.91421
0.02488
0.160524
2.75333
0.0445403
0.0236888
0.024431
0.0433965
0.0263094
0.150123
0.0451144
0.0304468
0.418156
0.655819
0.0654023
0.0758955
0.0237093
3.06545
0.159559
0.0418969
2.32985
1.65265
0.0241924
0.0850087
4.53868
0.024574
0.0301141
0.0289767
0.0261077
2.41177
3.02536
0.0674654
0.0360419
0.0240041
0.0253098
0.0239621
0.0263418
0.0266993
0.0256968
1.04859
1.18558
0.0276321
1.68426
1.12131
1.99767
0.0450654
0.0270063
1.68637
2.70254
1.37069
0.435914
0.0282571
0.106458
2.04507
0.0341521
0.0260164
0.0261253
0.0257574
2.94126
0.0616542
0.02826
0.046765
1.53501
2.23075
0.0268958
0.0636114
2.43502
0.0246861
0.0244194
0.0490095
0.0281517
0.0258645
0.0272623
2.521
0.0293691
1.2484
2.41058
0.0536724
0.183512
0.183671
0.542727
0.0233769
0.0259217
0.0353856
1.59021
0.0245833
2.63891
2.1454
1.07354
0.0246095
0.202731
3.04162
0.101358
0.0568198
0.0374246
0.0597557
0.0313141
1.8492
2.70743
0.0261242
0.137361
0.0253513
0.0283507
1.88807
0.110708
0.0243563
1.51523
0.220036
0.0242033
0.557088
2.34734
1.98824
0.0249121
0.0539272
0.0613522
0.0250136
2.15923
0.0243262
0.125468
0.0316846
2.64381
0.0236748
0.0443779
0.115631
0.0242855
3.1173
1.28186
2.52542
0.12077
0.055242
2.50141
2.6877
0.0235289
0.0267788
0.0258253
0.0245864
0.119379
0.0315789
0.0251607
2.3471
0.11489
0.0244443
0.0246467
0.0318522
0.169425
0.023707
0.024616
0.0265972
0.0246391
0.270291
0.190065
0.115941
0.115819
2.84625
1.17893
1.5198
0.492187
0.0261086
0.118837
2.82277
1.5089
0.0223877
0.023568
0.0245978
1.21757
2.35725
0.027201
1.38839
0.0246722
0.0267564
0.0397545
2.13982
0.17218
0.023715
0.0288
0.0246091
0.024228
0.0828089
0.0232841
0.0335461
0.0224131
2.54288
0.0269915
0.0336807
0.0273646
2.02034
2.99847
0.0243276
0.0252205
0.0840812
0.0224373
0.845681
0.166865
0.0462984
0.0242787
0.072205
0.0256849
0.283878
0.0256138
2.46768
2.2368
0.0526956
2.86335
2.1006
0.0232272
0.157724
2.88357
0.922744
0.161919
0.029277
1.91941
2.24674
2.88522
0.0248881
0.027401
0.0377766
0.119126
0.15492
0.0292674
2.88533
0.0380081
0.0264812
0.0300883
2.42266
0.0724117
2.47598
1.82936
2.57174
0.199977
0.0301201
0.0240545
2.58722
3.80458
2.70259
0.11389
0.02259
2.62398
0.022421
0.0280787
1.31172
0.025132
3.02678
0.0243603
0.0245323
0.0233072
0.0269065
0.025981
0.757229
0.025257
3.09498
0.431622
0.0225265
0.0504731
2.47622
1.77553
0.0246559
0.0268716
0.0236536
3.11431
0.0238615
1.475
0.0321236
0.0239623
2.46256
2.87724
2.0722
0.147684
0.0627505
0.0248948
1.71782
1.3531
1.9597
0.0254066
2.31855
0.0281085
0.025666
0.0261407
0.0288735
2.5557
0.0819838
0.200107
0.0470143
0.539011
2.1966
2.92633
0.0370162
0.0293625
0.517659
0.0249403
0.195242
0.0259675
0.0570458
1.75456
0.0223659
0.0464899
0.433604
1.81468
0.0365751
0.0266785
0.0225555
0.0255341
1.00403
0.0724335
2.42759
0.0786266
1.81741
2.58161
2.9726
2.7414
0.442349
0.07495
2.18329
0.540435
1.9703
0.0654741
0.0296749
2.00123
0.0513283
1.50222
1.9194
0.441905
0.0245906
2.36173
3.27981
2.49144
1.79686
0.0304813
0.0238146
0.0238196
1.89505
0.0249922
0.0241849
0.0238609
0.0274555
0.0241143
1.46797
0.188268
2.11335
0.0248336
0.989023
0.026467
3.21737
0.0236439
2.92629
1.78032
0.0248707
0.332929
0.0226194
2.2758
2.70279
0.050486
0.0262074
0.0237388
0.026595
0.101354
0.0823506
0.0298685
5.41621
0.0657627
0.198594
0.0703267
0.572331
1.58247
0.0446147
0.250662
2.74087
0.0609032
0.0406338
0.0249341
2.22739
0.0253322
0.446025
0.0643998
0.0246371
0.0246023
0.0240203
2.75513
0.0674882
2.20099
2.55207
0.0224925
2.6377
2.21987
0.02987
0.988728
0.0237489
0.0250082
0.0246965
0.0458222
0.148171
1.15422
6.24313
0.025984
0.152828
2.1448
0.0237527
2.35127
0.106907
1.96393
0.0445525
1.22853
0.118208
0.0818218
0.0237157
0.0254999
2.2924
0.158225
0.0320554
0.323029
3.05427
0.0227428
2.74
0.0263119
0.0267032
0.0245615
0.024627
0.0243983
0.0263804
2.91494
2.23595
2.29289
0.0366448
0.132221
2.12612
0.0275922
2.27752
2.50455
4.44285
0.0247278
0.162878
0.0237698
2.41634
2.47691
0.0617195
2.61119
2.96192
0.116402
2.13998
0.0227108
0.024921
3.48855
1.14226
0.0254609
1.97937
2.93358
1.91627
0.0240399
0.168123
3.12426
2.17522
0.0225227
2.54093
0.0247414
0.0249077
1.49336
1.18255
0.0246595
0.0283407
0.181184
2.51969
0.0248199
0.0304928
0.022501
1.14591
0.0283322
0.0927053
0.0243133
0.0293999
2.49985
0.024942
1.12667
0.0748489
0.0285516
2.24133
2.13991
1.7189
0.0226006
0.0272603
1.81122
2.41276
1.2544
0.116698
0.0244054
0.0260279
0.0847351
0.0237883
2.49596
2.23675
0.0231758
1.82442
0.0245955
1.03912
2.38776
0.15588
2.11584
0.244306
2.20135
2.65579
0.030322
0.0686477
0.025333
0.687063
0.25504
0.0281967
0.0237506
0.0248686
0.0974346
2.21555
2.98937
2.90471
0.0234846
0.0223966
2.97054
0.0599519
0.0251985
0.026552
3.08208
1.67588
0.0258855
0.0278307
0.0238802
0.0799713
0.0268099
0.0245614
0.0249714
0.0246332
1.89523
2.49879
2.26899
2.51516
0.114713
0.0244581
0.0240589
0.084867
0.155381
0.668251
0.067918
1.23819
0.720603
0.0269853
0.0242491
0.024589
0.0246572
0.158056
0.58791
2.25459
0.115979
0.0847513
0.0792046
2.44201
1.23261
0.684764
0.0327989
0.0226181
0.0251849
0.0251198
0.0671721
2.15562
0.0445055
0.0392215
0.0249051
0.027092
0.168115
0.0283257
0.328099
0.0249119
0.0566304
2.65777
1.04
0.0624456
1.8694
2.31602
0.0245796
5.0547
3.23408
1.17901
0.0245798
0.0881698
0.0244469
2.45808
0.0291145
3.09125
0.0261126
1.83317
3.04604
0.0234122
0.0568543
0.209384
1.55987
1.38149
0.05341
2.1578
0.0238983
2.15501
0.203544
0.0264728
0.0362208
0.0432317
2.26249
1.25852
0.0636868
2.12044
0.0248646
0.0254378
0.023407
0.0297136
0.0367664
0.330288
0.0272506
1.65161
2.80836
2.24835
2.85456
0.10678
2.89119
0.116108
0.043657
0.0254442
0.0245187
0.0942712
0.174796
2.25149
0.024692
0.0252468
0.0225635
0.0254531
0.0243494
0.197095
0.412731
0.0235657
0.0243784
0.0242475
0.1125
2.61353
0.0227359
2.8998
0.0237263
2.53793
2.07022
0.196594
0.28475
2.74642
0.654723
1.05778
1.64156
0.0288825
0.0276325
0.659617
0.0547715
0.0243918
0.535767
1.5963
0.115446
0.0262523
0.0225203
0.0256144
2.41119
2.66095
0.16734
2.87051
3.44418
0.142971
2.00389
3.39672
1.77109
0.0527932
0.0246553
0.0237523
0.0336296
0.0278962
0.239619
1.61379
0.0245071
0.164937
2.58982
0.0281201
0.0430652
0.0265996
0.0322347
0.389385
2.21901
0.0583746
0.0779669
0.0314374
0.0264763
0.108388
1.17625
0.0437887
0.124366
0.0262668
0.0598801
0.0295465
0.02614
0.0234002
0.0528261
0.0248982
0.0424033
0.166941
1.73399
0.0271664
5.00124
0.0255237
1.54576
0.420045
0.113359
0.0247425
0.18835
0.0237909
0.0794582
0.421874
2.00899
0.104087
1.78851
0.02365
2.82516
0.797512
0.0289265
0.0423516
2.28151
0.215758
0.0245624
0.0259499
0.0257136
0.50363
3.12008
0.0251092
2.74483
0.0577257
0.025473
0.0246325
3.18308
4.16468
0.0244473
1.97886
5.49435
0.570859
0.0257815
0.023102
0.627358
2.61327
0.16945
0.0410298
0.051186
3.08425
0.206672
0.0861279
0.0352355
0.122684
0.0428132
1.43044
0.0233906
0.0298774
1.81124
0.0243955
2.10298
0.0449597
0.0245652
0.0245187
3.09739
0.0354751
0.0251767
0.0300843
0.0287011
2.03154
2.52611
4.432
0.0528076
1.04759
0.0580073
0.0242316
1.3613
0.0488063
0.0302168
1.63052
0.0243329
0.022353
0.0345704
0.0253227
1.01664
1.74813
0.0282541
1.34537
0.0277672
0.0310077
6.11674
0.0478711
0.278234
0.0526843
0.0244017
0.0268915
0.0875611
0.0345682
0.051152
0.118524
0.0637424
0.0364603
0.690875
0.376562
0.0273876
0.0491709
0.13388
0.111181
0.0262004
3.33811
0.0885078
0.0413545
0.690665
2.48808
2.99953
2.20706
0.0348599
1.81318
0.158288
0.117254
2.45785
0.0250911
0.0386081
2.68151
0.079958
0.417667
0.131578
0.0341403
1.36084
3.07554
1.2621
0.0514734
0.166503
0.0271965
0.581959
3.1556
2.04816
0.0254424
0.0513196
0.177363
0.038515
0.0793336
0.117751
0.0432233
0.0488639
0.0463788
1.54438
1.88946
0.0380174
0.0643588
2.45957
1.77617
0.0304328
0.0357291
0.0913366
1.61917
0.026423
2.1618
0.0261497
0.0245791
0.0238061
0.0258073
0.128365
0.0243976
0.0224897
0.0313338
0.023277
0.0247349
0.752575
0.0324233
3.41667
1.56317
0.040174
0.063321
0.0864309
0.0266239
0.0245764
0.0243672
1.94175
0.0581503
0.0232627
0.0244884
0.0279883
0.0468793
0.0379264
0.69754
0.0471732
0.0235819
0.0433116
0.599499
0.0281803
0.0253165
0.030777
2.66929
2.61338
0.0360637
0.359409
0.0808538
2.72872
0.151641
2.24149
0.0243384
3.76661
0.0263004
0.0241726
0.0247829
0.0601289
0.049316
0.0244918
0.0381033
0.0243691
0.185001
0.092308
0.0252963
0.0257418
0.0505404
1.41764
0.0244901
2.41915
0.0265416
2.10861
0.023827
0.0238301
0.218794
0.0257828
0.0316443
0.0241939
0.0245604
1.60099
0.0652409
0.02949
0.0232954
1.43332
0.87166
0.0286262
1.89264
2.05093
0.036894
2.44601
2.03549
1.46839
0.0253533
0.109512
0.0284651
0.109064
2.25928
0.0245835
0.138369
0.024945
0.10916
0.0297699
0.317144
0.0314197
0.0304095
2.51947
1.4235
0.153962
0.0888525
0.0247636
0.376092
2.40304
0.0316674
0.130119
1.54908
0.143138
0.0242107
0.0249223
0.0983833
2.36957
2.42347
1.55055
0.0245877
0.107765
0.0246798
2.80551
1.62458
4.37441
1.93676
1.40447
0.0241032
0.28715
0.0311298
0.0248942
1.42194
0.0302797
0.853764
0.296793
1.73464
2.72431
0.0356722
1.38753
1.32348
2.25771
0.0279218
0.0240955
2.18641
0.0257556
2.06677
0.0251933
0.0245212
0.0257467
1.11414
0.0228015
2.58868
5.44397
0.247003
0.0442115
0.849183
1.13219
1.22384
2.7836
3.07604
2.934
0.147898
0.0242014
0.0777914
5.35093
2.97728
0.0488582
0.0245571
0.0238034
2.67245
0.182474
0.0337822
0.117568
0.0233921
0.0240425
0.205015
0.0265228
3.17093
0.0244415
2.33117
0.0303931
0.0242912
2.44157
0.0608589
0.108565
0.0243634
1.21278
0.126164
0.0301933
0.0714203
1.69348
2.10526
0.0251687
0.0295129
0.0258707
0.03645
1.32745
1.49471
1.4222
0.0232834
0.122248
1.5363
2.5617
2.48868
0.619315
3.60171
0.0239155
0.0453412
0.139333
2.23831
0.195374
1.1224
0.0240058
2.73979
1.53443
0.0244223
0.0301481
0.0633705
2.85607
0.024472
0.0301065
1.30052
0.0226957
5.20464
0.042754
2.44183
1.15732
1.43626
0.024131
1.34174
1.13458
1.43385
0.0296008
1.30703
2.16841
0.0234613
0.174971
0.0371661
0.0254718
2.00113
0.1795
0.0347534
0.0262402
1.68767
0.0271351
0.0773798
0.0336282
0.0236821
0.131723
0.153002
2.6537
1.82967
0.0228021
0.0360983
0.0633566
0.0420398
2.04141
0.0252471
0.0378529
2.48031
1.90025
3.35145
1.9313
0.115202
1.09277
0.0275469
1.71226
0.0795914
0.100865
0.126088
0.0245449
2.23976
1.4309
1.58809
2.62441
2.02213
0.0610814
1.43377
2.27726
2.91656
2.03464
1.54017
2.28864
0.201512
0.184431
0.040913
0.0241939
1.67249
0.0285165
0.0246419
2.27797
0.0357363
0.092044
0.0245767
1.22508
3.0521
1.34162
0.0336323
2.56353
0.0273355
2.56117
2.21686
0.653132
0.0264037
1.39388
0.0350892
0.1953
0.0287686
1.30852
0.0446787
0.0785509
1.84605
0.0272678
0.0308775
2.1813
0.0237511
0.0238855
5.34831
0.156294
0.0358602
1.95189
0.0253014
2.36119
0.0275203
0.0354207
0.0257478
0.0410826
0.0246166
0.181499
1.97095
0.0266578
0.0236627
0.608289
0.0915585
0.0244635
0.0528764
0.0281088
0.077902
1.86255
0.0864948
3.57955
2.32282
0.157642
1.38739
0.0250732
0.0265499
0.111212
1.70842
3.11906
6.79805
0.0303228
1.49623
0.0266093
1.96519
0.282053
1.66976
0.0511598
1.8741
2.34909
0.0236093
3.26057
0.238123
0.0242501
0.0250891
5.5489
0.0251118
0.086424
0.0254685
0.0381161
0.057138
0.025142
0.025173
0.156067
2.92761
0.0250808
2.88991
0.280996
0.161684
2.29046
3.40011
0.0246606
1.81406
0.0612905
0.0243575
2.55695
0.0372463
0.0494414
1.26781
0.0248256
0.0239676
0.284163
0.0289332
2.05494
0.0261866
0.0287776
0.0243047
0.132562
2.48305
2.28844
0.0241431
0.269328
3.1924
0.0489533
0.0288796
1.78004
0.146257
0.0239781
1.18264
2.29854
0.0676537
0.0243843
0.0244985
0.025283
0.0476481
0.0242618
0.0727492
2.93038
0.0241945
1.99489
2.84661
2.85398
2.03777
0.0337094
0.198645
2.9938
0.282147
0.139951
1.38134
2.41583
0.0248069
0.244066
0.0244958
2.05075
0.0243029
0.0540842
0.0248119
0.231932
0.111211
0.0262506
3.64641
1.64512
0.0283903
0.0857327
0.05271
0.0295755
0.0545616
0.100077
2.21712
0.0286065
0.313572
1.70775
1.19819
1.03312
2.31714
0.0239987
0.0245321
0.296619
2.46836
0.159386
1.77643
0.149776
0.0329418
0.431629
0.297956
0.0507579
0.632622
0.0488256
1.9192
0.0253396
2.65278
0.0252055
0.0542871
0.0540673
1.65423
0.0515348
1.86464
0.0265407
0.0245444
0.364053
2.95488
2.56191
1.56647
0.195451
1.87324
0.159173
0.0239788
3.35249
0.0240056
2.47074
1.38401
2.02174
0.190941
0.10516
0.185034
0.157026
2.32079
0.0254732
2.07727
2.02579
0.0252507
1.27315
0.12628
0.036131
0.0266044
0.028434
1.58345
0.0343448
0.189126
1.87727
0.0244857
0.101697
0.0449231
2.03808
2.89658
0.317198
2.33715
2.15783
0.192564
0.0248673
1.57433
2.12229
0.0253352
0.113473
2.08616
2.02014
0.0232216
1.93501
0.0237933
0.0249015
0.0248341
2.2631
2.38854
0.0731361
2.25779
0.0242147
0.025883
0.108453
0.15461
5.90694
0.0274531
0.027671
3.4388
0.151212
0.0248063
0.0240541
0.0918361
0.0245451
0.058854
0.234929
1.46064
0.160226
0.0269819
0.0505526
2.2305
2.04889
2.09925
2.37304
0.0252843
0.0381082
0.432502
1.53761
0.322639
2.7748
0.026552
2.07352
0.0314731
0.0532677
1.57532
0.0846457
2.13637
0.0286159
1.0043
0.0281085
1.90498
0.0240551
0.0923827
0.0239898
2.11521
1.33198
0.0251857
0.0252191
1.36538
0.0242502
2.29642
0.303084
1.0255
1.99756
1.71041
0.0245397
0.04396
0.0273906
0.0595244
2.19453
3.7378
0.879253
2.22667
0.0400866
0.113926
0.0263215
2.66372
0.0858003
0.0235732
0.0247951
0.524105
0.0239061
1.21465
0.0236144
0.023334
0.0232024
0.177432
1.9062
0.164587
0.0730767
0.0246836
0.0530586
0.131743
2.5588
0.0545849
0.0919396
0.0341538
1.512
0.0255174
0.0765414
0.346302
2.0068
2.14985
0.107977
0.0705207
0.0253429
0.0657484
0.135299
1.40514
0.156743
1.58684
0.0238585
0.0642232
0.0530384
0.0244768
1.82965
0.0838406
0.0245157
0.0267625
7.44372
1.83501
0.0258492
0.0245965
1.73677
1.66438
0.0283811
0.116731
1.97079
0.10047
2.82796
2.15999
2.62567
2.2038
7.60526
0.15815
1.91547
0.0357412
0.813275
1.72672
2.51864
2.70516
0.0348388
2.91698
2.62158
0.0318639
0.0605314
2.10721
0.177964
2.13318
1.53164
0.0465626
2.55572
0.0304539
2.34445
1.27334
0.0247965
0.0706861
2.1431
0.0249319
0.0275118
0.0571089
0.346708
2.16239
0.0493384
2.08841
0.0288685
0.0224845
0.0259376
0.0258905
0.0608627
0.0548684
0.0245854
0.0599908
0.0934286
1.48255
2.80323
2.16998
2.18307
0.0239812
0.163753
0.038858
0.535744
0.0674423
0.440665
5.5169
2.7589
0.136661
0.0624146
2.12928
1.26629
0.0726265
0.0279512
0.0346516
3.01129
0.0248386
0.0285352
0.0296583
2.68047
1.15464
2.74977
0.0265459
3.55915
0.0235696
0.024644
0.0262906
0.0241467
0.0263265
0.174497
1.99367
0.116295
0.0785896
2.82906
2.19672
0.285084
1.035
0.0646699
0.0842131
0.132179
0.0282325
1.46707
0.208056
0.324151
0.195311
0.160074
1.60922
0.0263218
2.52515
0.0243621
0.0267379
0.0286585
0.0260704
0.0250367
1.24469
2.77685
0.0561742
0.0248004
2.07318
2.94241
2.35099
0.0414402
1.97685
0.0508047
2.17541
0.162708
0.025763
1.98803
0.0527066
0.0540995
0.0674938
1.65145
1.18873
2.20914
0.0237946
0.598626
0.144513
2.62511
0.0280632
0.0337302
0.165988
0.0770848
3.0197
2.92515
0.0442099
3.40017
2.23086
0.0753439
0.0580505
0.145363
0.0770152
1.77454
0.0327029
0.172248
3.05163
0.0275963
3.05318
0.023894
2.90132
2.80599
0.0273921
2.7057
0.137826
0.0512242
0.159397
2.40079
2.42489
0.0780499
1.48642
0.0275915
0.0393034
2.8523
1.295
0.0256378
2.78768
3.15618
0.0774588
1.24236
0.156092
2.24175
0.201626
0.0313818
2.90342
2.91033
2.72963
0.0241771
0.031414
0.166329
1.62605
0.0562351
2.44996
1.90772
0.168293
0.0243548
0.0241561
1.46739
0.0241089
0.0488186
0.0367698
0.0553593
1.99201
0.810168
2.75636
0.0265932
0.16873
0.0775789
0.0592445
2.16449
0.491633
0.848214
0.0282345
1.63384
0.5283
0.0304213
2.25619
0.0259297
1.68824
0.0488392
2.37341
0.0241684
0.124463
0.0665309
0.112909
2.27791
1.83989
1.88462
2.97841
0.022889
2.25826
0.0551764
3.24607
0.0409635
2.22429
0.0240603
1.78117
2.90412
0.0395497
1.85828
2.65487
0.0287865
2.94792
0.111133
0.0294991
0.0243401
0.202673
0.129559
2.7653
0.0245608
2.3714
0.0241505
0.0513166
2.20374
0.0779619
3.38364
2.99245
0.0406331
0.0575429
2.98176
0.0248195
0.0236063
0.0249283
0.064359
0.0909635
2.26359
0.189234
2.70974
0.023722
2.29131
0.0344746
0.595343
0.478757
0.0781721
3.05617
2.17696
0.0305777
0.320094
0.38451
0.1391
0.107445
0.0326108
0.0231601
0.0252758
0.0461698
0.171094
0.0925134
0.105397
1.70811
0.106414
0.103506
3.23082
0.0243965
0.0666481
1.97394
2.30642
0.293896
3.19088
0.182211
0.0291918
0.0286684
3.13039
0.0341069
1.52927
0.0259461
0.0249241
0.197051
0.0244103
0.0784416
0.0358675
0.0476075
0.0506031
3.23627
2.17812
2.33238
3.10224
0.024307
2.24922
0.133708
1.49166
0.108212
2.15241
0.195669
3.11894
2.16876
0.173272
0.145814
2.2709
0.0245025
2.61642
3.17936
0.0334229
0.0275123
2.60819
0.0308383
0.0248585
0.0537899
2.90616
1.51493
0.0270735
1.72965
0.283512
0.028306
0.023363
1.35872
0.0401964
2.00626
0.032051
0.0248102
0.186788
0.0571292
2.34873
0.0644467
1.68117
0.0477754
2.31449
0.106788
0.0228911
3.12169
0.0232056
0.0476083
0.0980512
2.66298
0.0503535
3.00435
0.0855635
3.22707
1.58575
0.176749
3.04889
3.10921
0.324732
2.71008
0.116155
0.561713
0.0248178
0.056187
2.88644
0.0246988
0.172227
2.30533
0.0390162
0.0262907
1.96837
0.0294565
0.0475598
0.12558
0.0380662
0.105935
0.0253474
3.14715
0.0313765
2.1767
0.18637
2.32331
0.117201
0.0491957
0.0271245
0.106607
0.0254299
1.97104
0.0230369
0.100863
2.23888
0.0240799
0.0764848
2.34047
3.03034
0.106519
0.0259744
0.0644674
0.132682
0.278535
0.0234459
1.11374
0.323359
0.0299694
0.106843
3.45045
0.0255669
0.108738
0.0801853
0.0240078
0.0233273
2.80755
2.06933
2.96323
0.140003
2.20824
2.86415
0.0825076
0.098746
0.20958
0.176208
0.286676
0.023519
0.023171
0.0311002
2.78551
2.24345
0.282813
2.31725
0.194092
0.0243005
3.43273
3.03741
0.0837893
0.03101
0.349075
0.108998
0.0302987
0.170932
0.025128
0.0298754
0.0316811
0.058907
0.0306037
0.384441
1.47714
0.266388
0.0243226
0.0361697
0.061704
0.178723
0.0326719
0.337563
0.0494207
0.0495147
0.0598834
0.0231332
0.0245983
0.0274024
0.143594
0.0781292
1.77918
0.0399599
1.5151
0.0244421
0.0377437
1.52333
0.0262029
0.0296242
0.0568892
2.21148
0.0249259
2.47743
0.0305712
0.0430143
0.0249823
0.0267488
1.46468
0.0241177
2.23326
0.0305115
0.0268769
0.0920258
0.0456598
1.16796
0.106666
1.48742
0.109418
0.026478
0.106003
0.0342312
0.106729
2.01531
1.64607
0.090526
2.2622
0.0820052
0.0248568
0.02694
0.0348199
0.0341975
0.109515
0.0277056
2.24939
0.0531818
0.0240195
0.0267539
0.105467
0.380323
0.542473
0.586664
0.0304396
0.0643014
0.0294363
2.03249
0.0240605
0.0300668
0.0245345
0.0263794
3.09028
0.141031
0.569758
1.41691
0.105272
0.0637611
0.0234806
2.33508
2.30017
0.0242848
0.0601016
2.67121
0.0318684
0.0270141
0.0337669
1.48011
0.0296983
0.0289878
0.0267118
0.0260882
0.0248651
0.0314429
0.023479
1.02657
1.21637
1.88129
0.0658755
0.0238414
0.0295498
1.10961
0.0282104
0.028242
0.105623
0.0374169
0.155649
3.79181
0.0347089
0.0271405
0.624201
0.0274948
2.27538
1.31355
2.25569
0.0311186
0.434456
0.0277351
0.024832
0.188415
0.0914962
0.379091
0.0364594
0.105044
0.0264355
0.026812
1.86458
1.69411
2.61237
0.0269033
2.30794
3.79847
0.0590269
0.0242307
0.0456029
0.0250736
1.14412
0.0315556
0.0332103
1.7301
2.26854
0.0235716
0.0325253
2.47542
0.0427583
0.0371696
0.0457374
0.0266113
0.0455613
2.77368
1.58821
0.134174
0.0276455
0.0292174
0.0252514
0.0246748
0.246115
0.0462164
0.0356458
0.298192
2.21797
0.0244666
1.10868
1.63652
2.56433
0.141931
2.32449
0.0349106
0.104026
0.0923132
0.0299606
0.291121
0.0569796
0.0241723
0.0896046
0.0783408
0.0234591
0.0242196
0.0290509
0.0329483
2.28207
0.027143
0.0235849
0.026773
3.01481
0.0301888
0.0472497
0.242103
0.0241206
0.0304497
0.0298097
0.0270427
0.0278885
2.36535
0.0280719
0.027553
0.0239703
1.10929
0.0463584
3.13208
0.0265386
0.366221
2.25267
0.0379354
0.0245
0.0257652
0.0322853
0.0340607
0.0267259
0.0379942
0.0274948
0.0263574
0.0255592
0.0822456
2.28749
0.0273304
0.0279515
0.068986
0.0303218
0.0230747
2.34133
0.0366142
0.0598511
0.0236719
0.0240939
1.50698
0.0242563
0.0239351
0.0242274
2.82483
0.0290679
1.53029
0.0242565
2.11096
0.0281316
0.156087
0.0345317
2.29383
0.104423
0.077533
0.0331154
0.0263323
2.35592
0.143056
2.87588
0.0326637
0.0251881
0.0277863
0.0261859
0.0245909
0.0304979
0.0794556
0.186493
0.0290643
0.027397
0.0456392
0.024375
3.14966
0.0245124
0.0286208
0.0342296
0.0251433
0.188938
0.049248
0.0235468
0.0230039
0.42696
0.0624589
0.0791412
1.66023
0.025153
0.236187
3.01611
1.90328
0.0229277
0.194912
0.0268682
0.0275764
2.30102
0.0300304
0.729673
0.0283617
2.1227
1.40053
0.0727281
0.024482
0.029345
2.12269
0.0267178
0.104912
0.0456613
2.4021
0.0360174
0.294907
2.11885
0.574676
0.0459933
0.172275
0.0281003
1.62724
0.207904
0.0256699
0.0727764
0.0252684
2.53196
0.0370091
1.68482
0.0343104
0.169387
0.179252
0.0409171
0.0265254
0.0482596
0.0273268
0.0271978
0.0243387
0.0277742
2.96493
0.0248496
3.5139
2.40158
0.245064
0.0285312
0.0286914
0.144003
0.0256305
0.0229983
0.038623
0.0281844
2.47702
0.0609003
0.0318406
0.025321
0.0243028
0.524792
0.0260281
0.0232306
0.0248189
3.20281
2.03346
0.289663
0.0796278
0.035722
0.0262964
0.0256442
0.167374
0.0235178
0.0323314
0.0251105
0.0247764
1.34966
5.5396
0.088645
2.33328
1.19742
0.0256755
0.0251426
6.2867
0.0783306
0.0991611
0.0729089
0.045705
0.099806
0.0285116
1.23655
0.0255295
0.0552125
1.1987
1.29863
0.0245021
0.145042
0.0402327