/*--------------------------------*- C++ -*----------------------------------*\
| =========                 |                                                 |
| \\      /  F ield         | OpenFOAM: The Open Source CFD Toolbox           |
|  \\    /   O peration     | Version:  v2012                                 |
|   \\  /    A nd           | Website:  www.openfoam.com                      |
|    \\/     M anipulation  |                                                 |
\*---------------------------------------------------------------------------*/
FoamFile
{
    version     2.0;
    format      ascii;
    class       volScalarField;
    location    "200";
    object      p;
}
// * * * * * * * * * * * * * * * * * * * * * * * * * * * * * * * * * * * * * //

dimensions      [0 2 -2 0 0 0 0];


internalField   nonuniform List<scalar> 
14804
(
-0.000539007
-0.00580235
-0.0794133
-0.00742645
-0.0968175
-0.0217618
-0.101349
-0.0803279
-0.000753071
-4.31636e-05
-0.000114046
-0.0781069
-0.000418487
0.0143335
-0.0914064
-0.0399028
-0.12961
0.0141361
-0.041005
-0.000539202
-0.00456031
-0.0952098
-0.00149676
-0.0368747
0.00351086
-0.0980649
-0.100885
-0.0165972
-0.0912523
-0.076369
0.00377771
-0.129986
-0.0724252
-0.0785189
-0.147189
-0.00760285
-0.022678
-0.0362885
-0.125693
-0.000406382
-0.113814
-0.125515
-0.0459694
-0.0617148
0.0121236
-0.0142821
-0.106883
-0.00764538
-0.0385357
-0.00447183
-0.0244282
-0.00840453
-0.000915419
-0.00129075
-0.0723375
-0.016447
-0.0976386
-0.128504
0.00926272
-0.000818209
-0.131541
-0.142954
-0.000453567
-0.00558238
-0.0697738
-0.0787009
-2.90216e-05
-0.00244569
-5.14054e-05
-0.0278428
-0.0454074
-0.00258369
-0.0738892
-0.0790294
-0.0771303
-0.0238833
-0.0433446
-0.0465623
-6.21342e-05
-0.000141756
-0.000985287
-4.30632e-05
-0.0962517
-0.0831542
-0.00222867
-0.0384758
-0.00421181
-0.0102662
-0.0672421
-0.0689225
-0.0115637
-0.0102733
-0.000436891
-0.0354677
-5.14892e-05
-0.0753982
-0.0070848
0.0141325
-0.0303878
-1.38391e-05
-0.0150905
-0.0537812
-0.0990368
-0.0714331
-0.0977638
0.00427045
-0.0146404
-0.00608548
-0.0313458
-0.080591
-0.00623755
-0.0140274
-0.0672091
-0.0836687
-0.047749
-0.0936397
-0.0860052
-0.0454432
-0.0385831
-0.000897605
-0.0817406
-0.0965495
-0.0356128
-0.097173
-0.0396332
-0.0847418
-0.00419526
-0.00132409
-0.0803212
-0.0767965
-0.00166193
-0.075378
-0.000792046
0.0116263
-0.000852411
-0.00647511
-0.131097
-0.00155308
-0.0747104
0.0120292
-0.0230546
-0.000806485
-0.00168124
-0.0628727
-0.120028
-0.00465814
-0.0857667
-0.126797
-0.0901161
-0.0127443
0.00182696
-0.00172736
-0.0995939
-0.121535
-0.000547815
-0.00183625
0.00381109
-0.0652065
-0.0336962
-0.0884009
-0.0223304
-0.00055133
-0.00132047
-0.000771244
-0.0583842
-0.0332912
-0.00202251
-6.46759e-05
-0.000835708
-0.0639652
-0.0219607
-0.0741433
-0.0697227
-0.00445194
-0.00324114
-0.096994
-0.0596415
-0.0796423
-0.0707173
-0.00108261
-0.000938345
-0.0369882
-0.0372157
0.00826796
-0.000930742
-0.0830712
-0.0054942
-0.107075
0.0109708
-0.00220096
-0.00712723
-0.122586
-0.06338
0.00397438
-0.0185128
0.00980927
-0.0260978
-0.104571
-0.0376747
-0.0675833
-0.0317083
-0.00711222
-0.000578845
-0.124341
-0.0214196
-0.0800254
0.0058802
0.00365316
-0.080767
-0.033876
-0.00386841
-0.0843355
-0.000832956
-0.0074254
-0.0692017
-0.0390445
0.000159338
-0.0447813
-0.131936
0.00357629
-0.0183083
0.0149061
-0.0195083
-0.000433971
-0.133971
-0.0813679
-0.096654
-0.0393747
-0.00104378
-0.0386069
-0.048309
-0.0205349
-0.0338757
-0.034463
0.0124757
-0.0379497
-0.1079
-0.0237332
-0.048807
0.0133338
-0.0810971
-0.036417
0.0117299
-0.136982
-0.0174035
-0.00643875
-0.0328168
-0.133772
-0.0792369
-0.0849839
-0.102226
-0.0513219
-0.000978091
-0.00659438
-0.00960832
0.000182926
-0.0817531
-0.113341
-0.0656511
-0.134658
-0.00619066
0.00158211
-0.00959404
-0.000907501
-0.00694226
-0.0910589
-0.0334426
-0.000425993
-0.0788248
-0.000447278
-0.0366776
-0.0478273
-0.113549
-0.0796693
-0.112716
0.0130077
-0.0039815
-0.0725249
-0.000415983
0.0136751
-0.0339458
-0.0903062
-0.0332185
-0.0363365
-0.0480493
-0.120543
-0.0380672
-0.110244
-0.0228842
-0.118954
-0.0906128
-0.0710796
-0.000581849
-0.13838
-0.0350952
-0.0468031
-0.115486
-0.0495198
-0.09313
-0.00210129
-0.000620418
-0.0214498
-0.0223365
-0.0447262
-0.0188408
0.00860625
-7.62113e-05
-0.0329093
-0.0603509
-0.00306046
-0.00666648
-0.0449828
-0.0985179
-0.00765696
-0.0405941
-0.000461028
-0.0021328
-0.00231678
-0.128635
-0.00255479
-0.000584404
-0.0453033
-0.104983
0.00854813
-0.036498
-0.00428179
-0.0193121
-0.0934111
-0.124359
-0.120746
-0.00230738
-0.00425941
-0.0492801
-0.109628
-0.00399821
-0.118236
-0.112044
-0.114318
-0.0820682
-0.121208
-0.105659
-0.0757392
-0.0796942
-0.0911842
-0.000840615
-0.0433991
-0.0672601
-0.0653561
-0.00682576
-0.0333523
-0.0788098
-0.0007129
-0.00549161
0.00511588
-0.00776192
-0.00060413
-0.00707322
-0.0176685
0.00698837
-0.0484458
-0.00344463
-0.00370061
-0.0476687
-0.0803931
-0.115193
-0.0199124
-0.0478924
0.011404
-0.0780542
-0.00444988
-0.000591046
-0.0874806
-0.000609515
0.00989146
-9.31099e-05
-0.0849923
-0.0796673
-0.000149274
-0.0304179
-0.0612812
-0.00668571
-9.87781e-05
-0.0756408
-0.0832892
-0.000622182
-0.00149286
-0.00538191
-0.00767968
-0.135014
-0.00727533
-0.0930339
-0.00878112
-0.0966719
-0.0025478
-0.0334155
-0.135003
-0.110119
-0.102013
-0.00323687
-0.1235
-0.0702869
0.000605665
-0.108824
-0.120413
-0.0898273
-0.0808008
-0.0298899
-0.00256873
-0.000892125
-0.00420895
-0.0143062
-0.116402
-0.132507
-0.0876352
0.000618755
-0.00439674
0.00791673
-0.0305757
-0.0466848
-0.0692685
0.00783457
-0.0345543
-0.0520065
-0.0445358
-0.00395027
-0.0426708
-0.0756521
-0.0817232
-0.107667
-0.0461351
-0.00670376
-0.000819914
0.0107505
-0.0788331
-0.0200189
-0.0447141
-0.0696218
-0.0813186
-0.0423936
-0.120728
-0.108076
-0.0417639
-0.0280051
-0.00862448
-0.0525354
-0.03776
0.0126846
-0.00371451
-0.031745
0.00741162
-0.0885883
0.00859661
-0.108432
-0.109494
-0.0944255
-0.0117462
0.00903185
-0.00578086
-0.0477423
-0.0189598
-0.0452735
-0.12306
-0.00378224
0.0100305
-0.0378062
-0.0781123
-0.0530181
-0.0094473
-0.0819123
-0.0421906
-0.0375279
-0.00764636
-0.116875
-0.0664455
-0.0780215
-0.115332
-0.000851531
-0.0981201
-0.000606065
-0.0935663
-0.0260136
-0.0752751
-0.0698392
-0.0972266
-0.0801212
-0.000216572
0.00951242
-0.0687384
-0.0793311
-0.107789
-0.124602
-0.122969
-0.0646104
0.010416
-0.114289
-0.00018472
-0.000872832
0.00146104
-0.000854014
-0.0940836
-0.101468
-0.0315838
-0.000599752
-0.137495
-0.0210049
-0.000694983
-0.0658025
-0.00376835
-0.000801164
-0.124227
-0.0709575
-0.124048
0.00975164
-0.0327455
-0.109445
0.0117184
-0.0889833
-0.129136
-0.0355585
-0.00506034
-0.00717145
-0.124182
-0.0783478
-0.0468537
-0.104007
-0.090539
-0.0845149
-0.0775272
-0.107016
-0.137867
-6.34025e-06
-0.00178817
-0.0872918
0.00971498
0.0100138
-0.0133816
-0.00011051
-0.0298239
-0.0399632
-0.0783775
-0.0192959
-0.00222136
-0.0414453
-0.00573656
-0.000101615
-0.0194689
-0.139291
-0.0191939
-0.00933352
-0.00217541
-0.00251678
-0.00377279
-0.035796
-0.00476884
-0.107204
-0.000169207
0.0125631
0.00967364
-0.0185355
-0.132528
-0.0137953
-0.126603
-0.0227572
0.0087675
-0.0257535
-0.0608513
-0.000922598
-0.0137165
-0.0859824
-0.00642737
-0.0984574
-0.0801272
-0.104353
-0.0797297
-0.00140966
-0.0838085
0.00701302
-0.0799819
-0.00075267
-0.00153107
-0.0806
-0.000570717
-0.095225
0.0105086
-0.121878
-0.117445
-0.0320954
-0.0363572
-0.00352215
-0.0347483
-0.000756711
-0.0213531
0.000809354
0.00538363
0.00301984
-0.106656
-0.0984101
-0.112087
-0.108789
-0.00887066
-0.0648704
-0.111637
-0.0200488
-0.00373746
-0.111416
-0.0103996
-0.0131873
0.0136033
-0.0309798
-0.00674738
-0.129422
-0.00944171
-0.0205886
-0.103301
-0.00770143
-0.127233
0.000570589
-0.00911921
-0.115286
-0.000681341
-0.104549
-0.0910276
-0.0583264
-0.0800565
-0.0114934
-0.0271016
0.00554239
-0.0404737
-0.000724907
-0.0101011
-0.000583919
-0.000253015
-0.113493
-0.0414842
-0.00952493
-7.66747e-05
-0.107133
0.00615958
-0.0817073
-0.0576974
0.00640359
0.000942321
-0.0512355
-0.0433046
-0.0048445
-0.00632635
-0.0227549
-0.000433187
-0.0343959
-0.0878941
0.0125694
-0.0784969
-0.0701881
-0.000844908
-0.108266
0.0107138
0.0040344
-0.0480104
-0.106106
0.000451599
0.00477506
-0.036294
-0.0831791
-0.0345129
-0.00100503
-0.109087
-0.121133
-0.12367
-0.000875132
-0.00020055
-0.0673205
-0.0355141
-0.0264638
-0.000721047
-0.0338281
-0.0205853
0.00152939
-0.00173697
0.0132702
-0.13332
-0.00018551
-0.00885332
-0.0133721
-0.121074
-0.00150163
-0.0182207
-0.0393163
-0.000632665
-0.00233134
-0.0240055
-0.00183803
-0.0681604
-0.0799816
-0.0199686
-0.103751
-0.0180238
-0.00608807
-9.45432e-05
-0.080305
-0.0805169
-0.000604906
-0.00843407
-0.00178417
-0.00224679
-0.0978628
-0.12459
-0.0991733
-0.108873
-0.0229532
-0.109127
-0.0218817
-0.00700371
-0.0993298
-0.104193
-0.0796411
-0.0801469
-0.00817075
-0.000460624
-0.115238
-0.00146898
0.00292297
-0.0739545
-0.0106734
-0.086741
-0.049163
0.00822465
-0.0462637
-0.00383438
-0.00265062
0.000284509
-0.134695
0.00109101
0.000865261
-0.000846896
-0.0810238
-0.0377745
-0.0156663
-0.0325676
-0.0402527
-0.0614442
-0.00146649
0.00121273
-0.0204228
-0.0729525
-0.112261
-0.0139373
-0.0784456
-0.00811031
-0.00352482
-7.89323e-05
-0.0131834
-0.0461028
0.00520684
-0.0343611
-0.0797153
-0.060606
0.00519774
-0.021958
-0.109801
-0.00702877
-0.000592698
-0.0471786
-0.0805703
-0.0220465
-0.0861787
-0.0752297
-0.0110305
-0.00275276
-0.0843123
-0.0014625
-0.0801296
-0.0800081
-0.0160341
-0.0397932
-0.0575996
-0.00333379
-0.0819368
-0.0423798
-0.0793477
-0.000891502
-0.0919901
-0.000574692
-0.0424677
-0.0829313
-0.0320665
-0.0510081
-0.0629525
-0.00152115
-0.04663
-0.0788471
-0.00139147
-0.00417998
-0.011724
-0.0056851
-0.0348796
-0.0309329
-0.0410844
0.00257255
-0.0430846
-0.0299014
-0.0765109
-0.0121201
-0.0316367
-0.0157473
-3.60686e-05
-0.0404844
-0.0214537
-0.0902274
-0.0152711
0.00112042
-0.110913
-0.00702548
-0.142154
-0.0640349
-0.0871836
-0.0310186
-0.0330908
-0.112749
0.0052109
-0.107543
-0.00184088
0.00927565
-0.00076036
-0.0360738
-0.098821
-0.00741984
-0.0450125
-0.0364137
-0.0451994
-0.103334
-0.0191401
-0.0475466
-0.0126966
-0.00183709
-0.0977699
-0.00863401
-0.0353864
-0.00742543
-0.00105359
-0.0836585
-0.0785443
0.000733044
-0.0509959
-0.0644962
-0.0792115
-0.0749525
-0.00972046
-0.00144436
-0.00942432
-0.0017097
-0.00171859
-0.0195293
-0.0840096
-0.0975172
-0.00929767
-0.0913014
-0.0322249
0.000888454
-0.0794659
-0.112531
-0.0463547
-0.0833485
0.00969037
-0.0815055
-0.00698757
-0.0094993
-0.0908698
-0.00364968
-0.0791642
-0.0877341
-0.00857326
-0.0452994
-0.00220255
0.000433112
-0.0020741
-0.010832
-0.0770231
-0.0862477
-0.00215121
-0.0157622
-0.0066463
-0.00562682
-0.0713232
-0.000579736
-0.043179
-0.0758259
-0.0166459
0.00621826
0.000583219
-0.0778214
-0.0215741
-0.0319558
-0.0957868
-0.0267495
-0.0678904
-0.0420185
-0.01126
-0.0856974
-0.099795
-0.0616797
-0.00555517
-0.0374676
-0.00127887
-0.0237578
-0.0499816
-0.00116563
-0.0108115
0.00109596
0.00352767
-0.023997
-0.0721826
-0.00721201
-0.117093
9.03947e-05
-0.0225045
-0.12766
-0.0186063
-0.0224107
-0.120059
-0.117196
-0.000784469
-0.0304331
-0.0291291
-0.0429178
-0.07758
-0.116553
-0.0725924
-0.0013921
-0.000577717
-0.0447648
-0.00148181
-0.00651206
-0.0613576
-0.0189768
0.0146028
-0.0800302
-0.00340661
-0.0761415
0.0135005
-0.0602113
-0.0648725
-0.000783004
-0.0191653
-0.0934827
-0.0794426
0.00408618
-0.0767852
-0.0354074
-0.0760615
-0.0442454
-0.00233899
-0.0239343
-0.00130038
-0.122392
-0.0336581
-0.00815153
-0.00821641
-0.0769173
-0.0506564
-0.0198247
-0.117187
-0.075638
-0.043239
-0.00882763
-0.0117249
-0.0032391
-0.0248752
-0.017722
-0.0748515
-0.0120339
0.0132008
-0.0798697
-0.0196656
-0.0844737
-0.0858086
-0.00028718
-0.00532567
-0.000226638
-0.0992179
-0.0774965
-0.0203801
-0.0949651
-0.0752841
0.0138711
-0.0388363
-0.123641
-0.0229006
-0.0356332
-0.0398619
-0.0777255
4.56285e-05
-9.73684e-05
-0.00924313
-0.101679
-0.008309
-0.000720022
-0.000805527
-0.06865
-0.0561583
-0.000738372
-0.00650374
-0.0774848
-0.0384893
-0.0177999
0.00121039
-0.0789723
-0.0526314
-0.0402443
-0.017378
0.000335749
-0.00723334
-0.0789524
-0.00281394
-0.00525424
-0.0637331
-0.0882065
-0.00543353
-0.0637753
-0.0904982
-0.000874632
-0.140338
-0.0795535
-0.084232
-0.00703066
-0.0351904
-0.0850966
-0.0959295
-0.00720121
-0.016742
-0.0480288
-0.020865
-0.000576404
-0.00851835
-2.4952e-05
-0.0629977
-0.084516
-0.0385913
-0.0430689
-0.00236306
-0.062943
-0.00546924
-0.0426864
-0.0173873
-0.0311097
0.00301216
-0.0972758
-0.000767384
-0.0329719
-0.100518
0.0145986
0.00550355
0.00031201
-0.0474186
-0.000300035
-0.116616
-0.117726
-0.00022583
-0.0014491
-0.0322243
-0.0666384
-0.0984233
-0.0438199
-0.0809961
-0.0182833
-0.0508041
-0.000565783
-0.0807449
-0.116248
-0.000913554
-0.0275512
-0.0009013
-0.018173
-0.0834347
-0.000543474
-0.0390835
-0.00039775
-0.0840679
-0.0508988
-0.0377364
-0.0188569
-0.0372772
-0.113999
-0.00744179
-0.0545949
-0.100982
-0.000401813
0.00370136
-0.0577387
-0.0993574
-0.0282309
0.00143929
-0.00149137
0.00497672
-0.0343577
-0.121526
-0.0556658
-0.0852074
-0.102842
-0.0292462
-0.000522139
-0.0429976
-0.104874
0.0094244
0.00339096
-0.0817045
-0.0179701
-0.0818443
-0.11514
-0.0483659
-0.000766015
-0.0794163
-0.000314512
-0.0576957
-0.029626
-0.0760167
-0.000671691
-0.0617138
-0.0425884
-0.0791808
-0.000669727
-0.0982985
-0.012908
-0.134576
-0.114926
-0.00349596
-0.000537344
-0.0881233
-0.0867682
-0.0922297
-0.0782131
-3.04534e-06
-0.0209498
-0.000364349
-0.0631031
-0.0803674
-0.00605139
-0.124883
-0.00723312
-0.0303469
-0.00095624
-0.0485846
-0.00747447
0.00394442
-0.00965879
-0.138158
0.000109237
-7.88041e-05
-0.0845011
-0.0834153
-0.00554371
-0.0179716
-0.0181253
-0.00774768
-0.129274
-0.000460498
-0.00900296
-0.0648815
-0.000495495
-0.114153
-0.116807
-0.0303265
-0.00054047
-0.0856049
-0.0490347
0.00396249
-0.0804531
-0.0457518
-0.00132417
-0.0968779
-0.015875
-0.0352547
-0.0166446
-0.0555686
-0.086539
-0.000780292
-0.116505
-0.000539033
0.000993338
-0.0464329
-0.114554
-0.0290732
-0.0046666
-0.00152643
-0.0398405
-0.105016
-0.047307
-0.0332101
-0.0132982
-0.000140713
-0.000980722
0.000245758
-0.0613129
-0.00269466
-0.0178425
-0.000366005
-0.0315389
0.00493407
-0.00878033
-0.122906
-0.0905982
-0.0142913
-0.0795064
-0.127241
-0.0905108
0.000951483
-0.00928031
-0.0909917
0.00204368
-0.036791
-0.00954398
-0.004635
-0.0669615
-0.0109685
-0.0794242
-0.0647548
0.00057711
-0.0393605
-0.0612051
-0.077244
-0.0209901
-0.0352473
-0.00078816
-0.000308238
-0.0110283
-0.0609359
-0.000831871
-0.0161351
-0.00455789
-0.0761798
-0.000367265
-0.0775811
-0.105143
-0.0437714
-0.0452101
0.00737064
-0.0159879
-0.0617972
-0.00528495
-0.104347
-0.0420705
-0.000832694
0.00411514
-1.6206e-05
-0.090017
-0.0962383
-0.00769059
-0.0437216
-0.00470516
-0.0302019
-0.0479732
-0.0412682
-0.000826117
-0.125136
-0.0707342
0.000117098
-0.0729722
-0.099818
-0.0748666
-0.00111587
-0.0343188
-0.105289
-0.0857028
-0.0154447
-0.0345317
-0.0557114
-0.0092724
-0.000124862
-0.119488
-0.0429612
-0.00556373
-0.0188094
-0.0996023
-0.0223067
-0.0838634
-0.0832652
-0.000471353
-0.092336
-0.0994096
-0.0437302
0.00578937
-0.00375283
-0.0146262
-0.00434069
-0.00097903
-0.0594538
-0.0816064
-0.0804439
-0.0166595
-0.0142731
-0.05692
-0.00420322
-0.0764038
-0.00038167
-0.0167564
-0.06802
-0.0803803
-0.0921248
-0.000309189
-0.00863077
-0.00156408
-0.0996799
-0.0678443
-0.0085846
4.05394e-05
-0.124549
-0.000432296
-0.0896385
-0.00158017
-0.0621718
-0.0414364
-0.0386039
-8.46037e-05
-0.0159669
-0.115354
-0.0917312
-0.0829488
-0.0327689
-0.00303972
-0.0820979
-0.00454947
-0.0836598
-0.088288
-0.0796491
-0.0453693
-0.0913527
-0.00479972
-0.112569
-0.0750827
-0.0591373
-0.0749101
-0.115357
-0.00657323
-0.06667
-0.000404287
-0.0389876
-0.117699
-0.0814051
-0.0323307
-0.0639494
-0.112948
-0.0622836
-0.019241
-0.0593983
-0.128719
-0.0849316
-0.000346622
-0.0899335
-0.00643774
-0.0414593
-0.0796089
0.00864263
-0.0427204
-0.0784216
-0.0801963
-0.132637
-0.029582
-0.0325856
-0.000318354
0.0145362
-0.0156457
0.00224612
-0.0286171
-0.00670192
-0.0870654
-0.00111639
0.0124475
-0.0575045
-0.0690785
-0.0934641
-0.0800679
-0.0353224
-0.000497657
-0.0429159
-0.0328327
-0.0798528
-0.0797262
-0.0754775
-0.00659586
-0.0247124
-0.084761
-0.00382555
-0.0832959
-0.0794486
-0.00168339
-0.00725854
-0.0044319
0.011014
-0.0990408
-0.0741355
-0.0795821
0.00669177
-0.0945747
-0.0947357
-0.00356481
0.000459024
-0.0487061
0.0024459
-0.000296444
-0.0686511
-0.00397872
-0.029616
-0.00260909
-0.0470885
-0.115016
-0.103617
-0.00168638
-6.52935e-05
-0.112087
-0.0148439
-0.0538386
-0.00768384
-0.135636
-0.0283317
-0.0268612
-0.0040121
-0.00429986
-0.00190668
-0.0593119
-0.0209596
-0.0351549
-0.0395488
-0.0584865
-0.123217
-0.113093
-0.0810007
0.00289316
-0.00855606
-0.000867156
-0.123635
-0.0841542
0.0051543
-0.00999052
-0.0797494
0.00353546
-0.0451943
-0.00649078
-0.0138321
-0.0281632
-0.0799179
0.00147379
-0.0471994
-0.1324
-0.127223
-0.100633
-0.0777845
-0.081353
0.0042961
-0.0448087
-0.00051882
-0.0131933
-0.0129446
0.00116781
-0.0660737
-0.00909922
-0.0251055
-0.0493562
-0.00104312
-0.0612155
-0.0632396
-0.0362484
-0.0489494
-0.000316846
-0.0929939
0.00685028
-0.0705935
-0.0621026
-0.127966
-0.0418488
-0.0806544
-0.0777457
0.0145065
-0.0396421
-0.0406865
-0.0364373
-0.0785994
-0.0565931
-0.123255
-0.017213
-0.00556118
-0.132911
-0.00567804
-0.0735263
-0.0596057
0.000920409
-0.0810032
-0.0814846
-0.0864797
-0.0124966
-0.0456243
-0.127268
-0.0214198
-0.0775016
-0.00594086
-0.100533
-0.0802382
-0.113716
-0.0413419
-0.0409981
-0.00562924
-0.00156862
-0.00554945
-0.0258307
-0.119005
-0.000537906
-0.0749719
-0.110623
-0.0836119
-0.101308
-0.0841246
-0.122896
-0.0773018
-0.00610037
-0.036776
-0.00524187
0.00171193
-0.123396
-0.0891884
-0.000829851
-0.0411194
-0.000323326
-0.000867057
-0.030173
-0.109804
-0.000144626
-0.000995152
-0.0322921
-0.0243263
-0.0742075
-0.0920017
-5.41653e-05
-0.104151
-0.00872099
-0.0811218
-0.0800791
-0.000806776
0.000214568
-0.115266
0.00358861
-0.116237
-0.0127984
-0.00708374
-0.000507985
0.00492185
-0.0418317
-0.000821036
0.00541604
-0.073411
-0.103288
-0.0664823
-6.16729e-05
-0.0316256
-0.00152212
-0.0985577
-0.114459
-0.105826
-0.0795568
0.00543357
-0.0499205
-0.125362
-0.0552055
-0.0328356
-0.0428554
-0.00335848
-0.00575486
-0.0617987
-6.9298e-05
-0.00913516
-0.00998692
-0.0973218
-0.092848
-0.0722514
-0.0608907
-0.028305
-0.0587779
0.000629999
-0.085003
-0.039707
-0.0678555
-0.0693906
-0.0298568
-0.103091
0.0131039
-0.000554503
-0.115948
-0.00245084
-0.11963
-0.0290508
-0.000846016
-0.00544082
-0.0421419
-0.0436527
-0.0588752
-0.103341
-0.0606828
-0.0219225
-0.0873881
-0.000848801
0.0111505
-0.000182057
-0.0248545
-0.0182173
-0.0914822
-0.0040496
-0.0711383
-0.000315658
-0.0281677
-0.00808072
-0.0105326
-0.00798601
-0.0953338
0.00534224
-0.0184876
-0.0560259
-0.0935778
-0.0196444
-0.0303968
-0.0481767
-0.00682475
-0.0871596
-0.141212
-0.000838366
-0.110644
-0.0163528
-0.0408655
-0.0287381
-0.13761
-0.0798153
-0.0382918
-0.0309181
-0.0807975
0.00213388
-0.0255858
-0.000923661
0.00360346
-0.0874641
-0.10962
-0.0111278
-0.0504502
-0.13324
-0.131047
-0.1189
-0.000354156
-0.112523
-0.0673811
-0.0811075
-0.00533124
-3.92289e-05
-0.00122536
-0.0328927
-0.0749797
-0.0606879
-0.00965616
-0.0127645
-0.0810766
-0.0966004
-0.0016446
-0.00784281
-0.0180118
-0.0516251
-0.082356
-0.120831
-0.00128329
0.00541333
-0.0753976
-0.000845557
-0.0805059
-0.035205
-0.0811042
-0.00795359
-0.00686076
-0.000152172
-0.00522832
-0.0414043
0.0112628
-0.00294677
-0.0132025
-0.080467
-0.0592021
-0.00253436
-0.0873619
-0.000850007
-0.000320583
-0.0487245
-0.0302661
-0.0605936
0.00175991
-0.0953249
-0.0472371
-0.13459
-0.110338
-0.0159087
0.00280391
-0.00526762
-0.0728878
-0.00074768
0.0020727
-0.0237435
-0.0398786
-0.0811514
-0.000288321
-0.016099
0.00226704
-0.0757004
-0.132796
-0.0771517
-0.0337646
-0.080995
-0.0899099
-0.117296
-0.122465
-0.00169796
-0.00159647
-0.0870198
-0.118906
0.000875781
-0.0522404
-0.0338605
0.00779933
-0.140515
-0.0799515
-0.000612753
-0.0561188
-0.0752607
0.00184519
-0.129748
-0.0681869
-0.0209819
-0.0439418
-0.130638
-0.00224419
-0.0692717
0.00194205
-0.0573544
-0.0443102
-0.0959985
0.00954942
-0.0187102
-0.00313484
-0.115996
-0.0713657
-0.0525132
-0.0762432
-0.00033179
-0.0314396
-0.0296339
-0.00247152
-0.0603317
-0.0326256
-0.0419556
-0.0105069
-0.0156206
-0.0111845
-0.00693768
-0.000507925
-0.0889659
-0.00118283
-0.0288682
0.00201436
-0.000370113
-0.134071
-0.02561
-0.00189925
-0.0904389
-0.129425
-1.49957e-05
-0.012629
-0.0307444
-0.0267563
0.000338983
-0.000941558
-0.011162
-0.00546254
-0.108391
-0.0294447
0.00308765
-0.098261
-0.00182891
-0.0011843
0.00128605
-0.00554627
-0.0456974
-0.0685395
-0.090193
-0.0903653
-0.0176206
-0.000203452
-0.000459399
-0.0785913
-0.0659949
-0.0815428
-0.0138617
-0.0776395
-0.0406284
-0.0236177
-0.0289066
-0.0167665
-0.109662
-0.000921966
-0.0957958
-0.000403205
-0.0869927
-0.000735417
-0.000953682
-0.000876516
-0.0810443
0.0122123
-0.0319094
-0.0656557
-0.00888143
-0.078189
-0.0107984
-0.00446501
-0.0558688
-0.0242984
-0.058241
-0.000423197
-0.0291874
-0.0806897
0.000233878
-0.0199324
-0.0036137
0.00371492
0.00998121
-0.00278673
-0.0597127
-0.043453
-0.00176158
-0.0751355
-0.0246313
-0.00673198
-0.00034167
-0.124287
-0.0134452
-0.109786
-0.0862067
-0.0119389
-0.02015
-0.0386155
-0.116903
-0.0796847
-5.15166e-05
-0.0710671
-0.00796758
-0.0819266
-0.081014
-0.035153
-0.0335142
-0.0186501
-0.123738
-0.0652673
-0.000526567
-0.00513441
-0.0760077
0.000386042
-0.0165029
-0.0453986
-0.0304662
-0.0588495
-0.0805357
-0.0240419
-0.0297989
-0.0933448
-0.0441669
-0.0956558
0.0078959
-0.122747
-0.060356
-0.0797501
-0.0158763
-0.0001705
-0.0101965
-0.0446669
0.00281515
-0.0828655
-0.0991757
-0.0207254
0.00185965
-0.0968659
-0.0938701
-0.0802042
-0.0816959
-0.0990576
-0.060482
-0.00692206
-0.0813006
-0.0505955
-0.067651
-0.000898478
-0.0321133
-0.000750715
0.0150784
-0.000321136
-0.0847266
-0.0779267
0.00634471
-0.0766211
0.00899568
-0.0806823
0.0129643
-0.108793
-0.134744
-0.117653
-0.0725565
-0.024034
-0.0581087
-0.123293
-0.126163
-0.000627674
-0.0392884
-0.00428624
-0.105384
-0.0815924
-0.0599102
-0.0891591
-0.00112466
-0.0196869
-0.12936
-0.0358561
-0.0774325
-0.0366247
-0.100153
-0.0283182
-0.00663638
-0.0792296
-0.0687927
0.00308829
-0.0312486
0.0139316
-0.113991
-0.00497321
0.00131776
0.00495071
-0.036604
-0.0512631
-0.0219587
-0.0011521
-0.0270969
-0.0797744
0.00284034
-0.0794443
-0.00160597
-0.00871092
0.000436137
-0.0854877
-0.0844957
0.00394439
-0.0785612
-0.00491966
-0.0202602
-0.000461443
-0.0763136
-0.1066
-0.0807794
-0.0072517
-0.0943283
-0.0787595
-0.0133261
-0.00519061
-0.0924865
-0.0162041
-0.0132008
-0.00507015
-0.0801625
-4.89186e-05
-0.0879661
-0.0102896
-0.0828682
-0.0805683
-0.0808696
-0.0158217
-0.079649
-0.0808066
-0.0791612
-0.0816082
0.0120089
-0.0772966
-0.00111337
-0.136074
-0.016438
-0.0197768
-0.0735139
-0.0773238
-0.0866285
-0.0182698
-0.015922
-0.00224475
0.001436
-0.0493007
-0.000520697
-0.0214501
-0.0784832
-0.0906219
-0.0391655
-7.79552e-05
-0.0758148
0.000732021
-0.00352492
-0.024729
-0.0470493
-0.0304451
-0.0709446
-0.0611259
-0.102219
-0.0638515
-0.0875305
0.0137088
-0.00450343
-0.0324998
-0.0331051
-0.0282316
-0.0504567
-0.0408329
-0.08076
-0.00125707
-0.0797398
-0.0837534
-0.0765972
-0.000109665
-0.0810279
-0.0911815
-0.117944
-0.045851
-0.0783381
-0.110674
-0.11834
-0.0869803
-0.0560151
-0.00658185
-0.0777293
-0.000423604
-0.0115333
-0.0923518
-0.0306829
-0.0648295
-0.000868053
-0.0800621
-0.131566
-0.0805975
-0.00319638
-0.0608072
-0.00309341
-0.0793774
-0.100299
0.00229713
-0.0595705
-0.0792806
-0.0261622
-0.132136
-0.0167445
-0.0800198
-0.0542282
-0.0870789
-0.0759519
-0.0712035
-0.000300248
-0.0805609
-0.0035546
-0.0119004
-0.082995
-0.0612336
-0.0295087
-0.0624347
-0.000883673
-0.104381
-0.00214567
-0.0166177
-0.0554651
-0.00354246
-0.00514072
-0.0814739
-0.0659924
-0.0015117
-0.000981876
0.0025702
-0.0422416
-0.00429947
-0.0169185
-0.0569058
-0.0768703
-0.0171554
-0.125865
-0.111952
-0.125186
-0.0645988
0.00669543
-0.0018993
-0.0516884
-0.0709942
0.00421191
-0.132954
-0.07797
-0.0359376
-0.0566099
-0.0590138
-0.0577212
-0.000315292
-0.0769502
-0.0346384
-0.0539835
-0.00300873
-0.00182526
-0.109777
-0.132267
-0.00682726
-0.0518609
-0.115998
-0.0505891
-0.122363
-0.0027595
-0.0649452
-0.0969346
-0.0485853
-0.0464324
-0.0710788
-0.125949
-0.0524946
-0.112899
0.000297079
-0.0886203
-0.0562211
-0.127456
-0.0294071
-0.0749212
0.00056853
-0.003976
-0.0807441
-0.00318483
-0.106432
-0.0811848
-0.0477582
-0.000139416
-0.000409595
-0.00258773
-0.0745207
-0.0645822
-0.0517114
-0.0135412
0.00483658
-0.101135
-0.074041
-0.00683516
0.000934699
-0.136864
-0.000753208
-0.0609113
-0.0396265
-0.069448
-0.017133
-0.0801717
-0.114815
0.0010053
-0.0137567
-0.0330822
-0.044041
-0.0428994
-0.0136444
-0.052316
-0.0763495
-0.0169562
-0.0346904
-0.0755596
-0.11166
-0.0246465
-0.0327169
-0.111508
-0.129898
-0.000350468
-0.01664
0.011806
-0.0807532
-0.0361498
-0.000389333
-0.0105629
-0.0753533
-0.0279115
-0.073231
-0.046693
-3.29925e-05
-0.00016038
-0.0659366
-0.0803973
-0.0251695
-0.0171802
-0.0646286
-0.0455072
-0.000872624
-0.0574104
-0.012143
-0.0492511
-0.00259496
-0.083223
-0.0282466
0.013442
0.005375
-0.111645
-0.0179495
-0.0405551
-0.00015513
-0.082078
-0.135526
-0.0314978
-0.0629377
-0.000378711
-6.52409e-05
-0.000708231
-0.00361526
0.00282155
-0.0475059
-0.0773853
-0.00272778
-0.0748123
-0.053658
-0.0153582
-0.0767158
-0.0105292
-0.00620262
-0.0331086
-0.00175526
-0.0354801
0.000327967
-0.117102
-0.0829546
0.0110972
-0.13032
-0.0567504
-0.0957777
-0.0171216
-0.0976977
-0.000434951
-0.0844994
-0.079945
-0.0635004
-0.11858
-0.101315
-0.0885551
-0.0771828
-0.113559
-0.035853
-0.0394517
-0.0743068
-0.0540893
-0.0795838
-0.0237277
-6.33038e-05
-0.019027
-0.00275505
-0.0097167
-0.00315269
-0.0945213
-0.0528132
-0.0335398
-0.0315209
-0.0113878
-0.0596314
-0.110339
-0.0938079
-0.130079
-0.0766943
-0.11155
-0.0310214
-0.0244214
-0.0833514
-0.0055523
-0.0005126
-0.0642265
-0.0735273
-0.00251244
-0.0582757
-0.00361591
-0.0426022
-0.0413336
-0.0848659
-0.0851925
-0.0677316
-0.0756234
-0.00586874
-0.050815
-0.0998379
-0.0812718
-0.110109
-0.0590319
-0.0110227
-0.12141
-0.0755624
-0.000376344
-0.00716831
0.000606022
-0.0328574
-0.117131
-0.000134554
-0.0803742
-0.101721
-0.00179832
-0.077703
-0.0744531
-0.0273903
-0.0812082
-0.0776209
-0.00587924
-0.00278412
4.62404e-05
-0.0215973
-0.000424294
-0.10063
-0.0414309
-0.0269124
-0.0906422
-0.0147816
-0.0808593
-0.0900583
-0.0852773
-0.012478
-0.053183
-0.0020194
-0.036522
-0.015536
-0.0681336
-0.000798968
-0.0829842
0.00977993
-0.0208082
-2.06923e-05
-0.0807826
-0.0239086
-0.101001
4.21193e-05
0.0106487
-0.0194055
-0.0424669
-0.0316043
-0.0218069
-0.0659669
-0.0977502
-0.0440766
-0.082271
0.0101978
-0.1009
-0.0107937
0.00350305
-0.0581816
-0.109821
-0.0679703
-0.00762651
-0.0419585
0.000942452
-0.0122136
-0.0807579
-0.00398722
-0.0011721
-0.000945422
-0.0830075
-0.0552585
-0.107996
0.00110055
-0.0442144
-0.000851454
-0.0248427
-0.0906097
-0.0558268
-0.0135145
-0.0932946
-0.0321811
-0.00176477
-0.0783983
-0.000411567
-0.0746459
-0.0872789
-0.000400626
-0.0763709
-0.0211465
-0.0742051
-0.0628397
0.0109263
-0.0871198
-0.00628243
-0.00997542
0.000792945
-0.0782318
-0.0323876
-0.0509582
-0.0661818
-0.0353166
-0.0145481
-0.0886865
-0.0763659
-0.0146646
-0.00039506
-0.0305475
0.00857058
-0.0101147
-0.0861913
-0.0598617
-0.0249268
-0.111339
-0.0418914
-0.0861263
-0.0431125
-0.0809068
-0.0927876
-0.0559194
-0.00275527
0.00536404
0.00177784
-0.0834
-0.0896634
-0.0160862
-0.109468
-0.0960164
-0.000778715
-0.000723041
-0.0816889
-0.0932422
-0.082878
-0.0762464
-0.00220701
-0.0814863
-0.0293854
-0.126366
-0.0799367
-0.0408895
-0.065913
-0.0861639
-0.000934547
-0.0429925
-0.0804253
0.0011235
-0.0899201
-0.0790805
-0.0480337
-0.0453074
-0.00045614
-0.00104464
-0.0137586
-0.0721845
-0.0451953
-0.0286665
-0.116037
-0.0632709
-0.0815213
-0.0973601
-0.0901809
-0.0929652
-0.0137655
-0.0943628
-0.00274928
0.00118702
-0.0760452
0.00235137
-0.0893031
-0.104581
-0.0660195
-0.0739838
-0.0797884
-0.0816442
-0.0781834
-0.0556269
-0.0925728
-0.129534
-0.0466798
-0.0505431
-0.0229689
-0.100583
-0.080821
-0.0934407
-0.0271621
-0.0894417
-0.00786155
-0.0021643
-0.0619336
-0.015387
-0.0170771
-0.0941308
-0.0645098
-0.121285
-0.0661132
-0.0982382
-0.0957944
0.00012443
0.0109839
-0.0938688
-0.000138608
-0.0179828
-0.0099342
-0.0516555
-0.134956
-0.115712
-0.137554
-0.0986845
-0.0273503
-0.0175771
-0.0860165
-0.0326744
-0.0518599
-0.0442153
-1.82419e-05
-0.0124617
-0.0799566
-0.0953369
-0.0982043
-0.0385822
-0.0764394
-0.131083
-0.128641
-0.0764645
-0.0800282
-0.000901766
-0.0791916
-0.104783
-0.00170715
-0.0639463
-0.0952215
-0.0801515
-0.0657657
-0.0184089
-0.0802857
-0.098902
-0.00342614
0.00622921
-0.0210524
-0.107284
-0.075526
-0.0417395
-0.100282
-0.0849668
-0.138383
-0.107522
-0.0196136
-0.0992392
-0.103297
-0.0538936
-0.0719694
-0.0420029
-0.0885636
0.000305798
-0.0431027
-0.128587
-0.139554
-0.00574978
-0.127758
-0.0116183
-0.104215
-0.101147
-0.0646889
-0.112457
-0.0692151
-0.000977823
-0.0827788
-0.100604
-0.100849
0.00162962
-0.0038435
-0.0420203
-0.0747556
-0.100672
0.0153394
-0.0261434
-0.118831
-0.135368
-0.0952671
-0.0800177
-0.0414305
-0.106929
-0.119878
-0.0566454
-0.109823
-0.120039
-0.10153
-0.0153197
-0.0671334
-0.11115
0.00339862
-0.101552
-0.103992
-0.0236553
-0.106483
-0.00555611
-0.0162082
-0.00190062
-0.00583875
-0.0506897
-0.0973951
-0.000817243
0.00767453
0.00612423
-0.104273
-0.0600216
-0.117785
-0.102083
-0.00280874
-0.0877648
0.0078836
0.00737283
-0.00664051
-0.0733225
0.000595352
-0.0790353
-0.110542
-0.0417359
-0.00821974
-0.0411697
-0.0645865
-0.00574878
-0.0116823
0.000685735
-0.0215406
-0.11609
-0.00180204
-0.0132596
-0.112192
-0.000208273
-0.0784925
-0.000772132
-0.111344
-0.0623306
-0.101948
-0.020114
-0.0407597
-0.128091
-0.0764704
-0.055598
-0.0874404
-7.81137e-05
-0.121045
-0.0271304
-0.0112312
-0.0325501
-0.121689