/*--------------------------------*- C++ -*----------------------------------*\
| =========                 |                                                 |
| \\      /  F ield         | OpenFOAM: The Open Source CFD Toolbox           |
|  \\    /   O peration     | Version:  v2012                                 |
|   \\  /    A nd           | Website:  www.openfoam.com                      |
|    \\/     M anipulation  |                                                 |
\*---------------------------------------------------------------------------*/
FoamFile
{
    version     2.0;
    format      ascii;
    class       surfaceScalarField;
    location    "200";
    object      phi;
}
// * * * * * * * * * * * * * * * * * * * * * * * * * * * * * * * * * * * * * //

dimensions      [0 3 -1 0 0 0 0];
oriented        oriented;


internalField   nonuniform List<scalar> 
21967
(
0.0608384
-0.465881
0.405043
0.655908
-0.249459
-0.406449
0.073989
-0.0790298
0.00504078
-0.398473
-0.141639
0.540111
0.325513
-0.20401
-0.121503
-0.13366
0.424341
-0.290681
9.61507e-05
-0.00542407
0.00532792
0.251205
-0.0651564
-0.186049
0.136711
-0.573535
0.436824
-0.38922
-0.196126
0.585346
0.0758958
0.498174
-0.57407
0.00628315
-0.00679946
0.000516315
-0.389032
-0.189996
0.579027
-0.302428
0.0105739
0.291854
-0.0292934
0.0167567
0.0125367
-0.505982
0.22556
0.280421
-0.000393325
0.000255024
0.000138301
-0.0542616
-0.248167
-0.245885
-0.260097
0.562588
-0.501749
0.670584
-0.354212
-0.316372
0.138946
0.186567
-0.454531
0.390975
0.0635557
0.289866
-0.428917
0.139051
0.320662
-0.438027
0.117365
0.000974542
0.00542711
-0.00640165
0.0041442
-0.00404804
0.57192
-0.0833775
-0.488542
-0.0168401
-0.0124533
-0.02592
0.000137459
0.0257825
0.0896681
-0.0964487
0.00678061
-0.000631634
0.000238308
0.203155
0.107567
-0.310722
0.247432
0.00377314
0.0600838
-0.00317122
-0.0569126
0.174618
-0.569159
0.394542
-0.454742
0.595335
-0.140593
0.425872
-0.136007
-0.0268147
-0.0773138
0.104129
-0.424991
-0.124207
0.549198
-0.00540883
0.118016
-0.112607
0.114307
-0.141121
0.0204689
-0.17924
0.158771
-0.186784
-0.170821
0.357605
-0.200675
-0.0124934
0.213168
-0.0389821
-0.00558532
0.0445674
-0.00974139
-0.101491
0.111232
0.138697
-0.53717
0.205
-0.194027
-0.0109739
0.2578
0.412784
0.610508
-0.31956
-0.290947
-0.592443
0.604352
-0.0119095
0.710681
-0.475109
-0.235572
-0.44059
-0.0139403
-0.0675644
0.27072
0.113443
0.458477
-0.00373104
0.00470559
0.00101576
-0.000760739
0.278238
-0.246334
-0.0319038
0.235346
-0.624378
-0.000365379
-0.000266254
-0.012019
0.0721028
0.13256
-0.564578
0.432017
0.382422
0.273485
-0.216773
0.386242
-0.16947
0.000629093
0.00565405
-0.463119
0.354053
0.109066
0.0819074
0.390515
-0.472423
0.306181
-0.695401
0.111413
-0.361481
0.250068
-0.362895
0.114695
0.2482
-0.378852
0.46076
-0.257771
0.347509
-0.0897379
-0.176294
-0.020896
0.19719
-0.0608896
-0.0248834
0.0857731
0.313572
0.296936
-0.149557
0.41982
-0.270263
-0.227615
0.214181
0.0134338
-0.161089
0.61002
-0.448931
0.153639
-0.317149
0.16351
-0.207711
0.361351
0.608
-0.106261
-0.501739
-0.0139338
-0.163218
0.177152
0.015466
-0.000113858
-0.0153521
0.660108
-0.660108
0.326761
-0.449206
0.122444
-0.0040917
0.518214
-0.514122
0.178211
0.362208
-0.540419
-0.319357
0.227435
0.0919218
-0.194696
-0.124661
-0.0236303
0.137896
-0.114266
-0.3526
0.530811
0.122948
-0.547939
-0.361517
0.533317
-0.171799
-0.610506
0.314002
0.296504
0.0316688
-0.0153886
-0.0162802
-0.483582
0.619903
-0.13632
-0.190101
-0.378344
0.13587
0.242473
0.0644488
0.543551
-0.0483479
0.00936583
0.123772
-0.0200156
-0.103757
-0.0217578
0.132658
-0.1109
0.0526441
-0.269417
0.138055
-0.158409
0.0203536
0.411421
-0.0907592
0.484398
-0.148263
-0.336135
-0.55257
-0.0291212
0.581691
-0.332185
-0.0461591
-0.00272069
0.00260609
0.000114599
-0.467655
-0.0849148
0.367095
0.117303
0.00222928
-0.00181032
-0.0448276
-0.18205
0.226878
0.259966
-0.306326
0.0463603
-0.0733421
0.0749845
-0.00164241
-0.0132812
-0.105294
0.118575
-0.170283
0.190752
-0.491745
0.200195
0.29155
0.435427
-0.583195
0.147768
-0.0758636
0.014974
0.151797
-0.013742
-0.472239
0.110721
0.141266
-0.1552
-0.266185
0.12506
-0.169887
-0.481166
0.477074
-0.714889
0.379006
0.335883
0.0779026
-0.143059
0.000197565
-0.0261176
-0.570045
0.423819
0.146227
0.00874761
0.0229212
0.566411
-0.4297
0.149948
-0.0714422
-0.0785053
0.214065
0.496616
-0.162771
0.0147937
0.147978
-0.0490192
-0.0670777
0.116097
0.0459783
-0.394836
0.348858
-0.00187462
0.124716
-0.16711
0.0423934
-0.537759
0.0830169
-0.159403
-0.420655
0.580058
0.391868
-0.34589
-0.336689
0.149904
-0.101102
0.123582
-0.02248
0.362278
-0.566332
0.204054
0.119807
-0.133088
-0.14759
0.0702766
0.0121867
-0.0149657
0.00277901
-0.506478
0.401082
0.105395
-0.399649
-0.0634703
-0.418294
-0.151752
0.0699613
-0.0917191
-0.123496
0.022394
0.15933
-0.625211
0.409322
0.15783
-0.567152
-0.329935
0.399994
-0.0700589
0.324544
-0.292123
-0.0324204
-0.458005
0.390955
0.0670497
0.0146787
-0.00249197
0.617042
-0.259457
-0.357585
-0.598811
0.434845
0.163967
-0.334579
-0.38031
0.407008
0.241828
-0.305704
0.063876
-0.0095421
0.00853683
0.00100527
-0.471094
-0.170975
0.642069
-0.318901
-0.291605
0.364383
-0.582133
0.217749
0.115276
0.209268
0.305964
0.311078
-0.254295
-0.00347593
0.0108277
0.0494162
-0.0602439
-0.111354
0.473631
0.214065
-0.235716
0.0216504
0.0126589
-0.00223716
-0.0104217
-0.141995
-0.00671184
0.148706
-0.00332369
0.00395278
0.0774999
-0.0666722
0.580636
-0.216252
0.668393
-0.317885
-0.350508
-0.00105766
0.206058
-0.337177
0.438116
-0.100939
0.222253
0.0559852
-0.21372
0.598611
-0.384891
0.0030829
0.0724158
-0.0754987
-0.112753
-0.0500189
0.0105842
-0.0098337
-0.000750499
0.0315594
0.118388
-0.549155
0.0780606
0.5981
-0.320083
-0.278017
0.0625863
-0.000184724
-0.0624016
-0.000135985
-0.00394349
0.00407948
0.249385
-0.32677
0.0773841
-0.0658107
0.0639483
0.00186239
-0.147822
-0.0620893
0.209911
0.0862518
-0.0983298
0.012078
0.010017
0.00056724
-0.42529
0.0881133
0.05414
-0.0437757
-0.0103644
-0.0894669
0.430646
-0.341179
0.429334
-0.585109
0.155775
-0.145372
-0.453439
0.00942983
0.070855
-0.0802848
-0.35326
0.219599
-0.150284
0.148014
0.00226952
0.0867857
0.00288242
0.416449
-0.325768
-0.0906812
0.0152627
-0.191557
-0.56307
0.468157
0.0949127
-0.516425
0.512201
0.00422487
-0.0629976
0.0660805
0.139864
-0.560519
-0.53938
0.397741
-0.00388034
0.0467235
-0.0428432
-0.517071
-0.0404992
0.55757
0.418636
0.0463133
-0.46495
0.325468
-0.499043
0.173575
0.0619066
-0.110926
-0.0168346
0.433283
-0.367406
0.0905079
0.276898
0.1759
-0.0789992
-0.0969006
0.626077
-0.456463
-0.169614
0.445024
0.135612
0.00494347
-0.018974
0.0140305
-0.135367
-0.0149166
-8.00093e-05
0.0127389
-0.532895
0.0158245
-0.214819
0.5304
-0.315581
-0.143378
-0.0137914
0.157169
-0.182261
-0.0453543
-0.000667694
-0.065143
0.44962
-0.362919
-0.0867011
-0.0297533
-0.162663
-0.0298243
0.192488
0.36227
-0.0355085
-0.02511
-0.0514969
0.0766069
0.101524
-0.0152721
0.460273
-0.206708
-0.253565
0.105277
0.0302685
-0.135545
-0.00999786
0.00879422
0.00120363
-0.210198
0.208136
0.00206223
0.169962
0.0492606
-0.219223
0.00676385
-0.00145841
-0.430509
-0.145072
0.575581
-0.554757
0.153061
0.401696
-0.213586
-0.00700597
0.220592
0.000593542
-3.93519e-05
-0.00055419
-0.289665
0.213744
0.0759205
0.310824
-0.0643916
0.0741376
-0.00974604
-0.00397124
0.127744
0.193285
0.321899
-0.387526
0.0656271
-0.0222822
0.476044
-0.453762
0.367584
-0.492882
0.125298
0.0169199
-0.00145399
-0.0575125
-0.00858377
0.0660962
0.00102191
0.0531181
0.00632678
0.000437071
0.430306
-0.108407
-0.117559
-0.320468
0.41451
-0.436792
0.347274
-0.551172
0.203898
0.250459
0.347641
-0.000192148
0.00689753
-0.00670538
-0.557119
0.397635
0.159484
-0.146407
0.513992
-0.00094149
-0.0152194
0.0161609
0.54944
-0.416879
0.361723
-0.492818
0.131095
0.0047122
0.140011
-0.144723
-0.115182
0.109773
-0.00454202
-0.00545583
0.161502
-0.16482
0.00331838
-0.175157
-0.0174022
-0.499023
0.189743
-0.14203
-0.0477133
0.425233
0.0283427
0.147557
-0.456747
-0.100372
-0.0371282
0.0386792
-0.001551
0.337564
0.112055
-0.00213805
0.234484
-0.232346
0.342634
0.11764
0.00885124
-0.0075709
-0.00128034
-0.228722
0.000459332
0.0038744
-0.00433373
0.559644
-0.31613
-0.243514
-0.00669073
0.00864791
-0.00195717
0.00539688
-0.00558902
0.0647367
0.125006
-0.133059
0.578083
0.0676324
-0.0796514
0.120845
0.305027
0.308313
-0.048347
-0.0575153
0.0648019
-0.0072866
-0.315587
0.423001
-0.107414
0.0495634
-0.251565
0.202002
0.552965
-0.400258
-0.152706
0.735143
-0.461212
-0.27393
0.224803
-0.2392
0.014397
0.300187
0.207146
0.00703514
0.344114
0.281963
0.0757144
-0.0332251
-0.0424893
0.112806
-0.440124
0.327318
-0.575721
0.446775
0.128946
-0.00157267
0.0280401
-0.0264674
-0.103778
-0.23647
0.340248
-0.0817971
0.483137
-0.40134
0.474858
-0.149389
-0.0677654
0.0625799
0.00518551
-0.364762
-0.142534
-0.000843577
-0.585521
0.55057
0.0349514
-0.31149
-0.707397
0.323614
0.383784
-0.0856837
-0.711187
0.146946
0.564241
0.333978
0.401165
-0.345976
0.119159
0.226818
0.0746992
-0.0998091
-0.0717691
0.0041423
0.0676268
-0.110515
-0.160304
0.579734
-0.41943
-0.233799
-0.133608
-0.0832583
0.00991613
0.053704
-0.0676117
0.0139078
-0.18613
0.184529
0.00160112
-0.229117
-0.0596275
0.288744
-0.425654
0.465498
-0.039844
0.104806
-0.00276978
0.00322911
0.345749
-0.511221
0.165472
0.00878543
6.5805e-05
0.18176
-0.0202577
-0.002766
0.00265385
0.000112153
0.0763512
-0.00393534
0.0020947
-0.00855237
0.0107916
-0.00223921
-0.034538
0.11169
-0.0771522
0.00507123
0.000651655
-0.00572289
0.0727887
0.00219586
-0.318144
0.458008
-0.354664
0.205107
0.0292539
0.00144406
-0.0306979
0.00414202
-0.004278
0.548825
-0.119491
-0.392702
0.269334
0.123367
0.196357
-0.217253
0.432156
0.139581
-0.571737
0.575925
-0.254666
-0.321259
-0.0377468
-0.102347
0.140094
0.538305
-0.402866
-0.135439
0.765996
-0.432019
0.019948
-0.201645
0.181697
-0.569332
0.138823
-0.00590252
-0.0658666
0.444363
-0.359376
-0.0849873
-0.336613
-0.00982564
0.346439
-0.604045
0.514151
0.0898943
0.126394
-0.117014
-0.00937999
0.0454896
-0.0425182
-0.00297136
-0.00215985
-0.000606157
0.00651361
0.21829
0.104511
0.339852
-0.0201078
0.0912204
0.0422473
0.00324229
-0.055574
-0.281039
0.328952
0.437045
-0.0140957
0.0149136
-0.000817861
0.710982
-0.305133
-0.405849
-0.150858
-0.0435435
0.194401
0.569001
-0.493105
0.00680857
-0.0698061
0.00197297
-0.00230223
0.00032926
0.613387
-0.115212
-0.608756
0.260316
0.348441
-0.0234581
-0.134797
0.158255
0.356915
-0.438712
0.507126
-0.0253803
0.0217873
0.00359293
0.248275
0.0625492
0.233197
0.477785
-0.553936
-0.0392177
0.593153
0.374278
0.201647
0.479656
0.0586482
-0.00936462
0.0143081
-0.562588
0.0790057
-0.033436
-0.00369216
0.185435
0.107308
-0.292743
-0.22129
0.0159927
0.205298
-0.146571
-0.564616
-0.107564
-0.00444649
0.00647951
-0.00203301
0.0943305
-0.126327
0.0319961
0.000589494
-0.186796
0.186206
0.239906
-0.0258411
-0.00286475
0.124968
-0.122103
0.325292
-0.260497
-0.0647949
-0.358301
0.437682
-0.0793814
0.0110573
-0.00930404
-0.00175331
0.0640606
-0.0103567
0.14018
-0.0765231
-0.0636568
-0.185964
-0.103701
0.226869
-0.0660955
-0.160774
-0.62075
0.474179
-0.413431
-0.00185933
0.41529
-0.571952
0.411648
-0.514711
0.632496
-0.117784
0.172088
-0.160081
-0.0120064
0.000228162
0.000582965
0.479737
-0.366931
0.0529064
-0.478561
-0.048451
0.266167
-0.217716
0.496603
-0.399903
-0.0967004
-0.0540299
-0.308865
0.197996
0.127296
0.0556065
-0.271856
0.173693
-0.0250146
-0.148678
-0.0534604
0.0408197
0.0126407
0.326598
-0.491555
0.164957
0.546498
-0.454027
-0.0924707
-0.135515
0.100977
0.000542649
-0.00163134
0.0010887
-0.152119
0.166377
-0.0142578
-0.158713
0.385625
-0.226912
0.419736
0.129089
-0.594352
0.436131
0.158221
-0.134753
-0.0775198
0.212273
0.0302201
-0.0348802
0.00466007
0.322419
-0.423854
0.101435
-0.0272327
-0.0262277
-0.22275
0.17499
0.0477595
0.00139601
-0.000853362
0.41332
0.133178
-0.0345468
0.0352184
-0.000671526
0.00146459
-0.0994723
0.363704
-0.264232
0.0261434
0.200726
-0.527319
-0.0651241
-0.040031
0.220514
-0.180483
-0.211256
-0.10253
0.0167645
0.0857656
-0.188898
0.515496
-0.441639
0.352172
-0.0896335
0.083731
0.104875
0.0353053
0.206747
-0.280532
0.0737849
0.0347533
-0.034767
1.36942e-05
0.116741
-0.0224102
-0.0113028
-0.00169612
0.0129989
0.333518
-0.60019
0.266672
-0.0624369
0.0665792
0.297708
-0.547166
-0.16557
-0.328215
0.307538
0.0206765
0.233708
0.0746053
0.00791882
0.505275
-0.177113
-0.328162
0.182031
-0.230482
0.393597
-0.492816
0.0992187
-0.00487902
0.00189407
0.143608
-0.183639
-0.180112
0.365548
-0.0148821
-0.00138856
0.0162707
-0.302387
0.202915
-0.099221
0.543447
-0.40475
-0.00781138
-0.00128346
0.00909484
0.00259766
0.00616492
-0.00109369
0.00726739
-0.158925
0.158445
-0.0884836
0.756512
-0.42756
-0.143555
0.147992
-0.00443653
-0.40729
0.285633
0.121657
-0.0166326
-0.0353205
0.0314402
0.102898
0.0555471
-0.0720571
0.0776734
-0.00561633
-0.200022
0.707148
0.0628897
-0.231381
-0.117864
0.349246
0.0472973
-0.0095229
-0.0377744
0.00122365
-0.0301048
-0.00444209
0.0088384
-0.00700059
-0.00183782
-0.136288
0.150969
-0.0146803
0.0363482
-0.187206
0.00503845
-0.0210403
0.0160019
0.190854
-0.555171
0.364316
0.582557
-0.386398
-0.196159
-0.384053
0.142688
0.241365
0.415948
0.166609
0.188509
0.191656
-0.191067
-0.405418
0.128072
0.277346
0.451379
0.00188029
0.354846
0.0694948
0.142478
-0.448365
0.305888
-0.157934
0.021646
0.336783
0.168492
-0.141394
0.577525
0.0641636
-0.0547338
-0.158013
-0.0266594
0.0344981
-0.00783867
-0.178296
-0.136083
0.0296406
0.25302
-0.046273
0.014091
-0.0133923
-0.000698709
-0.00376913
0.0332136
-0.0294444
-0.341457
0.527259
-0.185802
-0.0823334
-0.247161
0.329495
0.625112
-0.374653
0.116675
-0.119539
0.0310774
-0.000857311
0.00773588
0.118658
-0.00934463
-0.00116945
0.0105141
-0.00133308
0.0140421
-0.012709
-0.00397492
0.123782
0.0166294
-0.00814702
-0.00848242
0.00145279
0.0182977
-0.0197505
-0.106875
0.103751
0.00312435
0.660492
-0.332674
-0.327818
-0.158241
0.567563
-0.000874696
-0.201975
0.0541531
0.167028
-0.130679
-0.656475
0.355485
0.30099
0.323731
0.336762
-0.391228
0.129333
0.261895
0.153407
-0.167199
0.011873
-0.0128145
-0.0889923
0.411411
-0.0352813
0.0328576
0.00242365
-0.515858
-0.0131038
0.528962
-0.380931
0.325357
-0.313235
-0.24552
0.558756
0.0652338
-0.370682
0.305448
-0.0148222
-0.518447
0.107991
0.410456
0.327028
-0.446451
0.119424
0.180414
0.479695
-0.513162
-0.606155
0.00211023
-0.459364
0.117907
-0.383254
-0.191162
0.574417
-0.168405
0.0918043
0.076601
-0.316691
0.507545
-0.0320129
0.241353
0.0367145
-0.278067
0.320913
-0.419472
0.0985591
-0.00545615
-0.00147824
0.00693438
-0.241181
-0.415295
-0.000799996
0.00123534
-0.00043534
0.380014
0.142349
-0.522363
0.0587631
0.207404
-0.35801
-0.0504228
0.408433
-0.140391
-0.0016037
0.376558
-0.590278
-0.0189726
0.200854
-0.181881
0.030809
-0.00970057
-0.0211084
0.518609
-0.0988733
0.0120733
-0.233364
0.0749522
-0.118849
0.043897
0.0043928
-0.0687844
-0.0110891
-0.00246555
0.0135547
-0.217193
-0.223397
0.238622
-0.113562
-0.109189
0.00477905
0.324515
0.218444
-0.542959
-0.496354
-0.0575813
0.0426411
-0.0316947
-0.0109464
-0.513372
0.00380522
0.509567
0.00824197
-0.193746
0.0012675
0.000836529
-0.562694
0.0533697
0.509324
-0.0238647
0.505846
-0.481981
0.134797
-0.53714
0.402343
0.589544
-0.61011
0.0205659
0.462949
-0.138434
0.358515
-0.425593
0.0670775
0.453188
-0.099135
-0.0165904
-0.142592
0.159182
0.100727
0.310694
0.0168507
-0.0153979
-0.00402405
0.00451028
-0.000486222
0.0024614
-0.00275245
0.000291051
-0.0916137
-0.0767916
0.434849
-0.107821
-0.00185789
0.0311118
0.0609413
-0.0606194
-0.00032193
-0.530308
0.411787
0.118521
0.0710843
-0.300201
-0.000523705
0.0029851
0.160192
-0.179165
-0.271157
-0.235321
0.163912
-0.0391958
-0.263156
-0.273623
0.00855897
0.343437
-0.462671
0.119234
-0.0957005
0.103522
-0.00782191
0.0370495
-0.00229621
-0.136296
0.156244
0.000215768
0.555043
-0.136406
-0.129594
0.473031
-0.0113647
0.0164031
0.564074
-0.131918
-0.164687
0.163259
0.00142816
0.0177333
-0.0942564
-0.144236
0.137524
-0.00394861
0.0014366
0.00251201
0.373975
0.017369
-0.391344
-0.238635
0.350048
0.0562225
0.0705021
-0.303122
0.23262
-0.278277
-0.23035
0.508627
0.330786
0.103176
-0.433961
-0.528295
0.0149237
0.442919
0.110075
-0.552995
0.00264423
9.62335e-06
-0.538697
0.0228386
-0.115666
-0.57023
0.409141
0.101604
-0.111345
-0.268977
0.07923
0.189747
0.156845
-0.162817
0.00597198
-0.0217057
0.263534
0.305608
-0.12208
0.387892
-0.265812
-0.127236
-0.247872
0.375108
0.215632
-0.00848586
-0.535008
0.151753
0.394014
0.124595
0.0553626
0.348327
-0.40369
0.53539
-0.412442
-0.53504
0.078293
0.154303
0.000323466
-0.154626
-0.0709707
0.000803147
0.000461521
-0.00126467
0.121255
-0.647461
0.251914
0.395546
0.0152499
-0.141089
-0.346769
-0.158331
-0.0209088
0.00169013
0.0177098
0.230222
-0.247932
0.120477
0.203275
-0.323752
0.268551
0.169564
-0.0424617
0.00313518
0.0393265
-0.295827
-0.162177
0.298852
-0.281142
0.0378805
-0.0073868
-0.0304937
-0.0307106
0.0330138
-0.00230324
-0.0125908
0.0662486
-0.0536578
0.457325
-0.110051
0.443346
-0.562518
0.119172
0.000446224
-0.0240596
0.0236134
0.234716
-0.236854
-0.397572
0.0395616
-0.505041
0.226764
0.0109527
-0.224538
-0.0653387
0.329517
0.0181957
-0.347712
-0.0611808
0.453049
-0.0853749
0.0805536
0.00482127
0.00102336
0.554266
-0.11092
0.260985
-0.105271
-0.155714
-0.139476
0.115845
0.00378748
-0.420386
0.308245
0.112141
-0.172084
-0.324994
0.497078
-0.0662387
0.0726729
-0.00643428
0.648132
-0.414935
-0.143157
0.350885
-0.0600087
-0.290876
0.459855
-0.547229
0.087374
0.0204532
-0.020007
-0.0132257
0.0021366
-0.311963
0.377197
-0.174223
-0.0125728
0.268957
-0.441041
0.324481
0.105825
0.354676
0.125061
0.00442368
0.152422
-0.00100678
-0.00171391
0.333886
0.314245
0.0251436
0.654716
-0.194861
-0.461354
-0.0878005
0.00324565
0.0381779
-0.0414235
-0.00102783
-0.00049193
0.00151976
2.31402e-05
-0.00404719
-0.0821513
0.0306544
-0.353131
0.408493
0.00311355
0.297096
-0.486093
0.188997
0.0296686
0.231316
0.00939136
-0.000734473
-0.00865688
0.00144695
-0.00320197
-0.00012172
-0.0447279
0.11968
0.473285
-0.0079527
-0.465333
-0.055375
-0.530146
-0.00518896
-0.109993
-0.0222931
-0.0129882
0.431251
-0.330524
0.0676037
0.210057
-0.27766
-0.373198
-0.172572
0.54577
0.175795
-0.0214926
0.0643954
-0.0553859
-0.00900941
-0.00934103
-0.0530959
0.182924
-0.341637
0.447086
-0.101337
-0.478542
-0.142208
0.336772
-0.00725577
0.000221294
-0.245406
-0.138647
-0.334204
-0.105921
-0.195889
-0.386244
0.000471232
-0.00301334
0.21376
-0.537346
0.323586
0.107375
-0.447849
0.340474
-0.502812
-0.0598822
-0.00439549
-0.0560244
0.0604199
0.128535
-0.151993
-0.277908
0.282435
-0.103182
-0.427127
0.280848
-0.213245
-0.000108219
-0.0926006
0.325587
-0.232986
-0.00308306
0.0704195
-0.385606
0.520403
0.489037
-0.540151
0.0511142
0.214536
-0.307137
-0.191529
0.151625
0.039904
-0.223807
0.28257
0.00395889
0.204177
0.0148148
-0.0172804
0.216781
-0.187095
-0.0296867
-0.118938
-0.0772655
0.00240101
0.0585403
0.236752
0.38836
-0.10861
-0.339755
0.0948467
0.347312
-0.442159
-0.00221745
0.00268868
0.00582343
-0.000177504
-0.00620323
0.00638073
0.00864151
-0.101204
0.0925629
0.52418
-0.417204
-0.106976
-0.566966
0.0884241
0.013919
0.00300099
0.14908
-0.363899
-0.00192928
5.95435e-05
0.00186974
0.000300971
-0.00251842
0.443621
-0.336246
0.106388
0.380753
-0.48714
-0.000126595
0.00802352
-0.00789693
0.25616
0.0540052
-0.310165
0.188367
0.0502548
0.372053
0.0477678
-0.00353535
0.00394888
-0.000413533
-0.297983
-0.194899
-0.00780966
0.100386
-0.0925759
0.63224
-0.251211
-0.38103
0.216519
0.383702
0.0156859
-0.00176696
-0.238515
0.00520828
0.233306
0.0763024
-0.0963179
-0.0586883
0.0600368
-0.00134852
0.0488507
-0.443687
-0.328607
0.423454
0.0375136
0.00512753
-0.228396
5.60324e-05
0.22834
-0.318803
0.451623
-0.118105
0.443475
-0.118995
-0.00778103
-0.252388
0.186292
-0.0706341
0.305027
0.126224
-0.43881
0.511318
-0.0725079
0.112268
0.384335
-0.0042513
0.00699061
-0.00273931
-0.44018
-0.16001
-0.546793
0.104073
0.442719
-0.0991172
-0.00974338
0.108861
0.112442
0.497578
-0.202605
0.273107
0.495939
0.00854346
-0.504482
-0.12292
0.140653
-0.425195
-0.092009
0.517204
0.433163
-0.123807
-0.309356
0.0291622
0.00788727
-0.117545
0.53527
-0.417725
0.0141544
-0.00749673
-0.0182305
-0.318458
0.0910661
-0.0713168
-0.0197493
-0.124725
-0.484032
0.391749
-0.000793886
-0.00149078
0.00934848
-0.0078577
-0.203987
-0.122783
0.0351051
-0.00594287
0.320313
-0.381494
-0.039179
-0.461592
-0.111942
0.397308
-0.128756
-0.0136857
-0.0540797
0.11797
0.425477
0.39542
-0.513114
0.117694
0.438611
-0.462475
-0.103623
-0.00481361
-0.0302088
0.0350224
-0.0987892
-0.335829
0.434618
0.236688
-0.379326
0.142638
0.00755273
0.193301
0.613154
-0.455325
0.0357682
-0.0325226
0.282784
0.152065
-0.00887914
-0.000662956
0.520622
-0.402652
0.239224
0.00481586
0.0259932
0.101893
-0.0907385
-0.0111545
0.43386
-0.423276
-0.0105843
-0.327041
0.199805
-0.0576663
0.00157964
-0.00127866
-0.0345931
0.0431051
-0.00851202
0.357206
-0.513687
0.156481
-0.309728
-0.103703
0.422237
-0.341018
-0.0812192
0.466206
0.105845
-0.572052
0.55154
-0.0853336
-0.10666
0.0168724
-0.0169863
0.0899474
-0.0565184
-0.033429
0.353184
0.0690534
-0.00112873
0.15599
-0.154861
-0.081472
0.407904
-0.326432
0.313977
0.119186
-0.00506812
0.00446547
0.000602652
-0.00831093
-0.109288
0.299032
-0.0507576
0.236184
0.00429406
-0.544105
0.42656
0.492573
-0.135367
0.0599191
0.031147
0.300864
-0.0447041
0.00765419
-0.0791265
0.335288
-0.0785692
-0.256719
0.27957
-0.164875
0.504027
0.130751
0.403583
0.149381
0.150982
0.196495
-0.000137648
-0.00149378
-0.0129644
0.0144582
-0.571234
0.0287235
-0.453919
-0.408966
-0.145791
-0.334467
0.632175
-0.0372711
-0.16789
0.205161
0.486868
-0.244115
0.467034
0.0332706
-0.0352412
0.00197057
0.069321
-0.00537279
-0.257041
0.204078
0.052963
0.474048
-0.119372
0.00230358
0.0143259
0.495306
-0.19821
-0.076239
0.28957
-0.213331
0.00105036
-0.0123531
-0.3274
-0.0798894
0.246564
-0.0630485
0.00702409
0.034419
0.00757872
0.12583
-0.133409
0.0567817
0.0331657
-0.209039
0.0717819
0.137257
0.641174
-0.444815
-0.19636
0.5786
-0.36484
-0.508018
0.392725
0.115294
0.0414981
-0.394629
0.0153619
-0.117043
-0.0530255
0.427001
0.430415
-0.347295
-0.30915
0.238339
0.0708106
0.240405
-0.0225171
-0.217887
0.107126
-0.144397
-0.11479
-0.429315
-0.00502543
-0.496518
0.198534
0.0169663
0.333919
-0.00157479
0.00733786
-0.00576307
0.010121
0.0264799
-0.0366009
-0.106079
0.161076
-0.00681408
-0.154262
-0.000416279
0.00241597
-0.00199969
-0.610273
0.17997
0.430303
-0.191607
0.327477
-0.232148
-0.261896
-0.142111
0.404007
0.0907213
0.0111717
0.00654534
0.183507
-0.00183569
-0.181671
-0.326181
0.375031
-0.63401
0.3828
-0.450181
0.316305
0.133877
0.165423
-0.500002
0.0154819
-0.416385
0.245563
-0.423783
-0.0364236
0.1417
-0.00353509
-0.000413519
0.263714
-0.44935
0.185635
0.00416674
-0.00161881
-0.00254794
0.165332
-0.135063
0.0152227
-0.0167954
0.153157
0.0645036
-0.217661
-0.52136
0.0597676
0.0596591
-0.0495381
0.0530394
0.000585932
0.101705
0.256552
-0.358257
-0.325706
0.0811481
0.244558
0.0523685
0.114941
-0.16731
0.0323454
-0.0322079
0.288545
-0.0548372
0.0426729
-0.374418
0.415916
-0.504791
-0.0449401
0.549731
-0.0105414
0.0813964
0.22771
-0.132978
0.415762
0.0749948
0.260294
0.00605122
-0.00825246
0.00220124
0.0939347
-0.0193809
-0.0745538
0.092651
-0.549114
-0.169895
0.173053
-0.00315758
-0.0825564
0.0911979
0.017421
-0.456231
0.344429
0.136617
-0.481046
-0.118276
0.332813
-0.156299
0.420014
-0.0248489
-0.393092
0.417941
-0.484928
-0.0844044
-0.00633785
0.418451
-0.0686104
0.0157205
-0.00090571
-0.237707
-0.128507
0.124532
-0.120928
0.228843
0.0719483
-0.300791
-0.600915
0.184591
0.416323
0.411027
-0.496352
0.0853251
-0.00523803
0.218288
0.00243543
0.00173131
-0.557682
0.154849
0.402833
0.00974199
0.0797482
-0.0894902
0.0358514
-0.00258078
-0.135507
-0.0316023
0.381626
-0.491276
0.10965
-0.00835342
0.12266
0.0130982
-0.0135427
0.216364
-0.163995
-0.183497
-0.0468259
0.230323
-0.243905
0.00277997
0.241125
-0.36016
0.0118115
-0.525995
0.514184
0.0365823
-0.172878
-0.00646734
0.093386
-0.0869187
0.211738
0.392614
0.624762
-0.260553
-0.364209
-0.633328
0.202414
0.430914
0.0642081
-0.273085
0.208877
0.0320062
-0.00396614
0.496565
-0.219428
-0.277137
-0.563165
0.191827
0.371338
-0.00436403
0.164223
-0.0108156
-0.500864
0.390051
0.110814
0.407631
-0.178788
0.00232307
-0.00074343
0.0562856
-0.0526193
-0.00366632
0.339793
-0.432321
0.0925281
0.0109066
0.296632
0.329072
-0.348357
-0.000669313
0.00147246
-0.0950689
-0.471897
-0.00330002
0.228287
-0.224987
-0.241937
-0.00427838
0.246215
0.00261445
0.0399502
-0.0425647
0.386508
-0.0558818
-0.138477
0.144789
-0.0063128
-0.433396
0.0315489
-0.00229915
0.000501955
0.00179719
-0.0374664
0.0411668
-0.00370035
0.224993
-0.228293
0.236016
-0.00153205
-0.0403229
0.00285649
0.0814339
-0.0716919
0.405832
-0.306506
-0.0969034
0.40341
0.111897
0.265043
-0.37694
-0.380056
-0.177626
0.514548
-0.0179821
-0.414129
0.335183
0.0789464
-0.217357
0.628384
-0.0106593
0.0608297
-0.0501704
-0.00595969
-0.142985
0.148945
0.434768
-0.542396
0.107627
0.209636
-0.424779
0.489338
-0.0645587
0.145396
0.00557261
0.64003
-0.257607
-0.510083
0.0560558
-0.416573
0.110067
0.0445606
-0.444464
-0.260929
0.362634
-0.00458584
0.137243
0.505159
0.00938813
-0.137446
0.0604519
0.155168
-0.102468
-0.00284785
0.230476
-0.352556
-0.107788
-0.25627
0.364058
0.205265
0.419497
0.0113089
0.081184
-0.0924929
0.100364
-0.112742
0.0123779
-0.119598
-0.320097
0.48552
-0.100017
0.00367913
0.117054
-0.120733
0.0160003
-0.0184112
0.00241084
0.383981
-0.252525
-0.131456
-0.00100772
-0.00200561
0.524496
-0.1632
-0.361296
0.0965508
-0.35955
0.262999
0.590495
-0.252308
-0.338187
0.00205386
0.000552237
0.00702236
0.115624
-0.122646
0.212213
0.380357
-0.130289
0.15104
-0.468924
-0.104797
-0.396067
-0.139493
-0.0233247
0.579977
-0.152021
-0.427955
0.364278
-0.228689
-0.135589
0.0959485
0.439441
-0.0266678
-0.0136551
0.352942
-0.256391
0.125862
0.238416
0.47187
-0.127756
0.147511
-0.0122117
-0.1353
0.00728942
0.22047
0.259186
0.293181
0.1198
-0.412981
-0.00310882
-0.154522
0.15763
0.511804
-0.415856
-0.210509
-0.0465313
-0.00918684
-0.149329
0.158516
0.192559
-0.000902593
-0.480723
-0.047202
0.527925
0.429552
-0.115574
-0.499052
0.564903
-0.0658506
0.0532488
-0.277056
0.462062
0.127482
0.0165798
-0.00914648
-0.00743333
-0.12831
0.00359205
0.124718
0.00372245
-0.185773
-0.0404834
0.0356698
0.130106
-0.0620886
-0.0680171
0.16104
0.418937
0.15564
0.0351115
-0.0724478
-0.00970351
-0.0467239
-0.231511
0.28476
0.249988
0.0490444
0.00440513
0.000803806
-0.0829495
0.00920979
0.0737397
-0.419368
0.0599925
-0.537298
0.015938
-0.190499
-0.0534054
0.244548
0.260612
-0.158932
0.149745
0.127367
-0.359515
0.00212133
0.0192283
-0.0213497
0.406321
0.184173
0.12343
-0.365672
0.242243
-0.269625
0.347099
-0.0774744
-0.000116996
-0.0151024
-0.45396
0.234532
0.000668583
0.00872277
-0.083233
0.0935235
-0.0102906
0.0127408
0.00141359
-0.119514
0.114325
-0.536758
0.359645
-0.374531
-0.25948
0.0369758
-0.0343613
0.00685412
-0.00703162
0.008202
0.0732319
0.125781
0.0222335
-0.483084
-0.0267615
0.509846
0.0208338
-0.00773567
0.0771972
0.434607
0.158013
0.219304
-0.377316
-0.00168962
0.00311603
-0.00142641
-0.1399
0.533914
0.0639789
0.471128
-0.250658
-0.105167
-0.384132
0.489298
0.582827
-0.391218
-0.191609
-0.269808
-0.109517
-0.459371
-0.103217
-0.130057
-0.225367
0.355424
0.371934
0.0575738
-0.429508
-0.00429908
-0.027403
0.031702
0.359423
0.114625
0.595059
-0.58778
-0.00727835
0.193367
-0.189645
-0.00129493
-0.018189
0.100849
-0.0826601
0.280836
0.24366
-0.0130581
-0.437355
-0.131804
0.0342555
-0.0380246
-0.601653
0.466842
0.134811
-0.208551
0.00690579
-0.293666
0.0517296
-0.51239
-0.0892625
0.0142348
0.00234505
-0.0716406
0.113743
0.0163628
-0.251852
0.4964
-0.0660206
0.181157
-0.115136
0.260603
0.162397
0.176574
0.000329089
-0.176903
-0.00365587
0.00196625
0.00134687
-0.476274
-0.0285168
-0.00247039
0.0184707
-0.198119
0.444041
-0.245922
-0.515456
-0.094654
0.361476
0.137802
-0.499279
-0.211631
-0.0885692
0.3002
-0.110392
0.0841392
0.0262532
-0.307707
-0.00520647
0.312913
-0.112491
0.672969
-0.467686
-0.205283
0.352092
-0.280143
0.0110735
0.0828612
-0.0647876
0.0739974
-0.211716
-0.0515303
0.263247
-0.45082
0.334429
0.116391
0.0115105
0.440378
-0.100585
0.0111262
-0.112702
0.101576
-0.363151
0.255363
-0.00249859
-0.00706342
0.0763845
-0.40975
-0.126112
0.535862
0.492079
-0.0993541
0.37039
-0.00581999
0.00569339
-0.124526
0.482415
-0.357889
-0.0956603
0.503855
-0.426657
-0.310277
-0.0932107
0.403487
-0.206091
0.326568
-0.285473
0.054289
0.231184
-0.0153437
0.00619725
0.156017
-0.157145
-0.0902964
-0.00135635
0.0031088
0.0392182
-0.0310162
-0.274196
-0.226056
-0.0594173
0.0137406
-0.0150737
0.385818
0.00696633
0.0657066
-0.290672
0.233295
0.0573774
-0.0988757
-0.351944
0.112199
-0.10852
-0.298388
-0.000907322
-0.00106059
0.00196791
0.0347988
-0.0366567
0.315968
-0.243433
-0.38051
0.486898
-0.0699001
0.0592408
0.0159644
-0.0138431
0.016382
0.00445181
0.0424075
-0.0488668
0.00645933
-0.224331
-0.290364
0.514695
-0.363727
0.551025
-0.187298
0.392662
0.110842
-0.503503
-0.0389559
0.0359426
0.00301328
0.426504
0.0352309
-0.461735
-0.515984
0.13663
0.379354
0.606239
-0.34844
-0.123879
0.317359
-0.505606
0.141879
0.00656753
0.11273
-0.0813789
0.0739124
0.00746648
-0.43745
0.364428
0.0730215
0.282505
0.30029
-0.355429
0.0551382
-0.000874259
0.366876
0.273154
0.0577756
0.00357396
-0.0613496
0.0381695
-0.0443294
0.00615991
0.577544
-0.133824
-0.258993
0.392817
0.120217
-0.603301
0.000649756
0.0365942
-0.00341873
-0.0331755
-0.334905
0.256336
0.132172
-0.394068
-0.586287
0.216853
0.369434
0.222827
0.112784
-0.33561
-0.151478
-0.0400505
0.00372991
0.211902
0.279272
-0.503603
0.000207508
-0.00125645
0.184764
-0.604712
0.344159
-0.169726
0.12375
-0.0208969
-0.102853
-0.00288289
-0.00410292
0.00698581
0.384626
0.107453
-0.167184
-0.00882603
0.17601
-0.0127335
0.0874326
-0.179583
-0.329548
0.241873
0.0876749
-0.433454
0.0705352
-0.0334662
-0.0948441
0.44689
-0.0749558
0.118985
0.0146342
-0.0430486
0.576787
-0.303302
-0.541593
0.401699
0.139893
-0.0629857