/*--------------------------------*- C++ -*----------------------------------*\
| =========                 |                                                 |
| \\      /  F ield         | OpenFOAM: The Open Source CFD Toolbox           |
|  \\    /   O peration     | Version:  v2012                                 |
|   \\  /    A nd           | Website:  www.openfoam.com                      |
|    \\/     M anipulation  |                                                 |
\*---------------------------------------------------------------------------*/
FoamFile
{
    version     2.0;
    format      ascii;
    class       volVectorField;
    location    "200";
    object      U;
}
// * * * * * * * * * * * * * * * * * * * * * * * * * * * * * * * * * * * * * //

dimensions      [0 1 -1 0 0 0 0];


internalField   nonuniform List<vector> 
14804
(
(0.991273 0.000303495 -2.05924e-22)
(0.993548 0.000610122 1.53974e-21)
(0.811831 0.0991724 7.67278e-23)
(0.996557 0.00199977 -2.34394e-21)
(1.10746 0.0458222 -1.02577e-20)
(1.03119 0.0341372 0)
(0.115215 0.0124375 0)
(1.09318 0.0622817 0)
(1.01116 0.00148713 -1.23056e-22)
(0.999519 0.000643222 -1.37808e-23)
(1.01901 0.00104781 -3.22163e-23)
(-0.0705706 0.0137847 2.66291e-20)
(0.971557 0.00255508 3.52819e-22)
(0.867569 0.048114 -1.94994e-22)
(0.360349 0.0537925 -2.12972e-20)
(1.04513 0.0332987 -3.68648e-23)
(0.00882339 0.00582668 3.39694e-23)
(0.908096 0.048534 8.38821e-22)
(1.0462 0.033282 0)
(0.990879 0.000290384 9.44598e-24)
(1.00019 0.00346296 -1.98395e-21)
(1.10597 0.0463047 3.63677e-20)
(1.02007 0.0146494 5.13239e-22)
(1.04361 0.0361347 -1.38315e-20)
(0.879349 0.0161065 -3.24745e-22)
(0.12516 0.0123684 -2.24166e-20)
(0.0997066 0.00914578 0)
(1.01202 0.0120608 -7.0999e-21)
(0.359777 0.0557505 2.35598e-20)
(0.370706 0.0539279 0)
(0.44462 0.056449 2.59911e-21)
(0.00528414 0.00513344 -4.95719e-21)
(1.08191 0.043933 -2.30214e-20)
(1.09173 0.0632093 0)
(0.805227 0.10188 -8.50441e-21)
(0.997424 0.00258588 0)
(1.01097 0.00322094 3.62242e-21)
(1.04248 0.0349721 1.35392e-20)
(1.13355 0.108901 -7.90369e-21)
(0.990143 0.000215681 -1.77571e-22)
(1.12756 0.111891 0)
(1.13793 0.107513 -4.02361e-20)
(1.06481 0.102486 0)
(1.06502 0.0252975 0)
(0.728579 0.0435911 0)
(0.281123 0.0562901 0)
(1.11927 0.11104 0)
(0.996612 0.00191096 1.18485e-21)
(1.05746 0.0875582 1.15902e-20)
(1.00004 0.00335446 1.71737e-21)
(1.02035 0.016116 3.38058e-22)
(0.993202 0.000315471 2.32242e-21)
(1.00472 0.00119426 2.57641e-22)
(1.02021 0.0150412 0)
(1.08193 0.0451242 5.18136e-20)
(1.0116 0.011676 6.35016e-21)
(0.11111 0.00947344 0)
(0.0202886 0.00860939 -7.66836e-21)
(0.66717 0.0208228 2.68793e-21)
(0.954323 0.00207424 -3.02896e-22)
(0.0135658 0.00693525 0)
(0.829378 0.104675 1.97238e-20)
(0.990825 0.000283434 2.8112e-22)
(0.99331 0.00059059 -1.37127e-21)
(1.07557 0.0292884 1.71928e-20)
(-0.0650302 0.0100539 -3.07625e-20)
(0.834903 0.00694888 -3.12162e-22)
(1.01364 0.00575282 -5.34421e-22)
(1.00023 0.000671404 7.78534e-24)
(1.03657 0.0364691 -4.85659e-21)
(1.05475 0.0439085 -9.82609e-21)
(1.01292 0.00568327 -5.80413e-22)
(1.07935 0.0257978 -1.02798e-20)
(1.09359 0.0773862 -1.55728e-20)
(0.818449 0.102654 4.0604e-21)
(1.01979 0.0159423 5.46172e-21)
(1.04081 0.0195033 0)
(1.06456 0.0858098 3.18905e-21)
(0.989678 0.000209977 0)
(1.02224 0.041905 1.30514e-22)
(1.02272 0.0413595 0)
(1.0177 0.00103187 1.45485e-23)
(1.10954 0.0740723 2.69706e-20)
(0.273371 0.0318279 0)
(0.993593 6.77529e-05 0)
(1.03677 0.0214489 2.7594e-21)
(0.989537 9.19086e-05 0)
(1.0007 0.00410576 0)
(1.07949 0.0560155 -1.42022e-20)
(1.08088 0.055446 -1.49616e-20)
(0.764218 0.0890438 1.43887e-21)
(1.00036 0.00376675 0)
(0.990026 0.000197222 5.66039e-23)
(1.02704 0.0112111 7.01797e-21)
(1.0019 0.000718331 2.7781e-23)
(0.322405 0.0470189 1.63974e-20)
(0.992743 0.000301093 5.03291e-22)
(0.76931 0.0459274 2.50085e-22)
(1.04062 0.0413509 6.19103e-21)
(1.01723 0.000984506 0)
(0.252111 0.0538079 0)
(0.78429 0.102645 -1.95357e-22)
(1.11402 0.107801 -3.77546e-20)
(1.0775 0.029805 -2.24714e-20)
(1.11226 0.0979207 2.02897e-21)
(0.834126 0.0148402 5.98403e-23)
(1.02399 0.0274167 2.5985e-21)
(0.991158 0.00019526 -2.36312e-22)
(1.04174 0.0420238 -1.30891e-20)
(-0.000737769 -0.04916 -2.80294e-21)
(0.991484 0.000280184 0)
(1.02356 0.0271686 -4.60707e-21)
(-0.0239003 0.00483245 -1.77905e-20)
(1.09746 0.0716771 2.4325e-20)
(1.05937 0.05058 -7.14835e-21)
(0.808317 0.100962 4.59736e-20)
(1.10765 0.110964 -1.84359e-20)
(1.06367 0.105026 0)
(1.04448 0.0348729 -9.94489e-21)
(0.995819 0.000697897 -2.69621e-22)
(0.784895 0.0985701 0)
(1.11101 0.0970227 0)
(1.02706 0.010808 -3.8586e-21)
(1.11052 0.0755455 -1.01505e-20)
(1.04545 0.034826 1.81324e-20)
(1.09863 0.0730561 -3.27768e-20)
(0.990495 0.000203845 1.38363e-21)
(0.987626 -5.94838e-05 0)
(1.0927 0.0612964 0)
(0.358682 0.050656 4.19748e-21)
(0.990582 0.000251892 6.2312e-22)
(0.319915 0.0473206 -7.83696e-23)
(1.01017 0.00146148 -1.35409e-22)
(0.477069 0.0478589 4.34002e-21)
(1.00445 0.0011753 -3.58252e-22)
(0.755317 0.085265 1.46042e-23)
(1.14961 0.113286 3.09726e-20)
(1.0174 0.00541009 0)
(0.787042 0.0983286 0)
(0.540889 0.0236441 3.59636e-21)
(1.01132 0.00289272 0)
(1.00892 0.00138687 0)
(1.01683 0.00538232 0)
(1.0667 0.0257903 0)
(1.13437 0.111654 -2.76435e-20)
(1.01225 0.00906803 -7.89165e-22)
(1.09978 0.109557 1.60683e-20)
(1.13364 0.110269 -2.74738e-20)
(0.237426 0.0283735 0)
(1.02246 0.0258854 3.31849e-21)
(0.822635 0.00691364 2.63401e-22)
(0.990692 0.00027257 -5.67797e-22)
(1.11124 0.108398 0)
(1.1388 0.112836 3.26951e-20)
(0.991529 0.000335173 2.96652e-22)
(0.990884 0.000318024 -3.03995e-22)
(0.780506 0.0161373 -1.30408e-22)
(1.07197 0.034467 1.90654e-20)
(1.03257 0.022298 0)
(0.248501 0.0312701 0)
(1.01709 0.0138937 5.83798e-21)
(1.00048 0.000792602 -3.70725e-22)
(0.987887 -8.13255e-05 4.35061e-22)
(1.00988 0.00141247 2.13885e-22)
(1.06956 0.0506589 -3.52622e-20)
(0.0664306 0.0388183 -8.003e-22)
(0.988336 -4.89808e-05 2.89677e-22)
(1.00192 0.000717604 2.14558e-23)
(1.02466 0.00552225 1.67176e-22)
(1.0706 0.0346074 -3.16669e-20)
(1.01668 0.0137319 -6.81934e-22)
(1.07924 0.0245507 6.56739e-21)
(0.672332 0.0915483 1.46606e-20)
(1.01255 0.00897998 1.80625e-21)
(1.02156 0.0796223 0)
(0.21141 0.031445 -3.00985e-20)
(1.07667 0.112017 -1.38745e-20)
(-0.048666 0.00834497 -3.32418e-20)
(0.718988 0.0960071 1.25608e-20)
(1.02392 0.00560636 -4.25938e-24)
(1.00412 0.00121769 2.78012e-22)
(1.05599 0.0860265 -9.98973e-21)
(1.03234 0.0164787 -2.04835e-23)
(0.691514 0.0232829 4.08238e-23)
(1.00083 0.00102223 -4.4157e-22)
(0.792963 0.0991078 -2.13726e-20)
(0.783845 0.0880242 -2.07658e-21)
(0.177526 0.0300427 -3.88414e-21)
(0.46479 0.042941 -2.12104e-21)
(0.988579 -8.44949e-05 3.22852e-22)
(1.00944 0.00957007 2.70668e-21)
(0.772251 0.101377 -9.0323e-21)
(-0.0262404 0.0434429 1.96303e-20)
(0.678399 0.0109911 2.93126e-22)
(0.460985 0.0753077 -2.24295e-21)
(0.673222 0.0470897 -1.37262e-21)
(0.615754 0.0889157 -6.7777e-22)
(0.171341 0.0283543 4.42022e-21)
(1.03247 0.0159658 0)
(0.474941 0.0764742 -1.93844e-20)
(1.02702 0.016849 0)
(1.00739 0.00817893 0)
(1.00075 0.000808609 -1.02627e-22)
(0.905001 0.109582 0)
(1.03144 0.0350132 0)
(1.09591 0.0982331 -9.06674e-21)
(0.41108 0.0514516 -1.73302e-21)
(0.919328 0.0167002 -5.21636e-22)
(1.0953 0.0782516 0)
(1.02554 0.0114104 0)
(0.989349 2.07536e-05 0)
(0.739705 0.0953175 1.12448e-20)
(1.00822 0.00139215 0)
(0.996823 0.00222505 1.12049e-21)
(0.483789 0.0753622 7.84877e-21)
(1.02676 0.00175619 0)
(0.865626 0.00160458 1.14907e-23)
(1.03453 0.00351014 1.19966e-20)
(1.13944 0.112202 -3.27805e-20)
(0.889854 0.016408 3.08817e-22)
(1.03732 0.0611355 7.49615e-21)
(0.551726 0.0382741 5.13292e-21)
(1.00606 0.00136741 5.90498e-21)
(1.0246 0.00546225 -9.57232e-23)
(0.268316 0.057595 3.08561e-20)
(1.09713 0.0975494 -1.14499e-20)
(0.205402 0.0299476 2.92467e-20)
(1.02723 0.00192524 4.50679e-24)
(0.840514 0.00696693 1.12809e-22)
(1.05741 0.109679 0)
(1.06623 0.0870005 0)
(0.438038 0.0746181 -5.28413e-21)
(1.02958 0.0176027 1.41437e-20)
(1.0264 0.0116444 1.71327e-21)
(0.611862 0.0342993 1.75242e-21)
(1.03586 0.0210692 -8.72864e-22)
(0.868926 0.106638 0)
(0.651577 0.0908712 -6.06542e-21)
(1.04636 0.0175845 0)
(0.488302 0.019019 -8.88346e-23)
(0.0976674 0.0138439 1.88845e-20)
(1.0551 0.0825168 -2.49877e-21)
(0.767453 0.0554106 0)
(0.103533 0.0304107 -5.06024e-21)
(1.00278 0.000884946 1.08255e-20)
(0.994271 0.000705748 1.04445e-21)
(1.05103 0.0745174 7.41333e-21)
(0.0093589 0.00800288 6.07908e-20)
(1.09133 0.057325 -2.00958e-20)
(1.09165 0.0239949 1.34406e-20)
(0.797783 0.10158 -1.50477e-23)
(0.811626 0.104391 -1.31058e-20)
(1.00393 0.0011807 0)
(1.01712 0.0167697 5.09267e-22)
(0.994672 0.000437617 -3.24217e-21)
(1.01474 0.00395697 5.74368e-23)
(0.267216 0.0299874 0)
(0.778884 0.102106 1.64781e-22)
(0.488645 0.0779115 7.59087e-21)
(0.0957399 0.0285215 0)
(1.01723 0.0166356 0)
(0.864621 0.0161235 -1.8205e-22)
(0.996127 0.000708938 1.65271e-21)
(1.02021 0.0045233 7.9448e-23)
(1.0092 0.00931484 -3.78818e-21)
(0.154515 0.0133546 1.28623e-20)
(1.02243 0.00647239 4.26079e-23)
(1.00233 0.00417633 -4.61562e-23)
(0.273625 0.0294185 0)
(0.990495 0.000254634 -1.01185e-23)
(1.02793 0.0103069 2.42307e-20)
(1.06689 0.108635 5.46847e-21)
(1.12299 0.109951 0)
(0.106029 0.0146131 -2.29789e-20)
(1.12552 0.0830795 0)
(0.650759 0.0381551 -3.54344e-21)
(0.989342 6.26024e-05 -1.3164e-21)
(1.08871 0.0902871 0)
(0.990369 0.000246239 -1.26658e-22)
(0.539789 0.0346267 -4.63604e-21)
(1.02304 0.00661328 -3.50104e-21)
(0.494641 0.0749019 0)
(1.02875 0.0173434 -1.31086e-20)
(1.05372 0.0710784 0)
(1.04573 0.0181672 -1.51787e-20)
(0.140642 0.0301456 -4.33402e-20)
(1.04463 0.0361061 1.57601e-20)
(0.0868877 0.0120514 2.83359e-20)
(1.01824 0.0148347 -6.80388e-21)
(0.147829 0.0306593 -3.59623e-20)
(0.139551 0.0102682 -2.82628e-20)
(1.08733 0.0905947 1.80795e-20)
(1.02171 0.00550264 -4.73233e-23)
(0.885642 0.109962 -4.00368e-20)
(1.0415 0.035051 1.91656e-20)
(1.05862 0.0514246 6.65067e-21)
(0.774634 0.102297 1.85521e-20)
(1.04205 0.00438987 3.59817e-21)
(1.1031 0.0441012 1.04157e-20)
(0.989143 0.00011205 3.44358e-22)
(1.00887 0.00116864 0)
(1.04067 0.0677946 -1.13028e-21)
(1.01769 0.0146875 -1.07056e-20)
(1.06287 0.086334 1.01531e-20)
(1.0057 0.00135456 -3.41469e-21)
(0.285048 0.00306664 -1.97142e-23)
(0.808796 0.005532 1.25665e-22)
(1.0247 0.0118272 1.2947e-20)
(0.2591 0.0692953 0)
(1.02384 0.0414823 -2.24676e-22)
(0.991715 0.000283993 -2.35707e-21)
(1.03492 0.00382314 -1.84034e-20)
(0.695127 0.0934752 1.59441e-20)
(0.997135 0.00233749 1.2254e-21)
(1.04509 0.110495 2.63313e-21)
(0.988836 -6.99195e-05 -1.3548e-22)
(1.02342 0.0421647 -5.76752e-22)
(0.98821 -5.63767e-05 2.84649e-22)
(1.13644 0.110268 -3.61749e-21)
(0.988486 -0.000132254 -5.41665e-22)
(1.00877 0.00116575 0)
(1.04888 0.0305446 -1.00514e-20)
(0.922264 0.109029 0)
(0.345362 0.0346296 0)
(1.02796 0.0108206 -1.24712e-20)
(0.998847 0.00287593 -7.44017e-22)
(1.03822 0.062358 -1.28324e-20)
(0.77844 0.0982917 -2.74165e-20)
(0.740359 0.0994762 0)
(1.13202 0.0667763 -2.1786e-20)
(1.02483 0.0567526 -2.97389e-22)
(1.00325 0.00425071 0)
(1.04154 0.00381325 0)
(0.0721055 0.00870711 0)
(1.01153 0.00757441 0)
(0.133163 0.028347 4.57957e-20)
(1.1247 0.0841112 -3.43645e-21)
(0.0506411 0.007017 0)
(0.81929 0.100473 4.4603e-20)
(0.136131 0.0276933 3.23409e-20)
(0.184463 0.0306135 -7.73321e-21)
(1.08995 0.108512 7.57955e-21)
(0.0514004 0.02483 4.55514e-20)
(0.780206 0.0978194 -4.0664e-20)
(1.00743 0.00134406 -3.51418e-22)
(1.04041 0.0188771 0)
(0.327741 0.063127 -4.74647e-21)
(-0.0200552 0.0448796 0)
(1.00768 0.00817323 6.46264e-22)
(1.04066 0.0361993 -1.29199e-20)
(1.09324 0.0754387 2.64595e-20)
(0.994643 0.000569224 0)
(0.997292 0.00267224 0)
(0.596539 0.0577921 4.28787e-22)
(1.00433 0.00667285 3.33647e-21)
(1.00765 0.00110426 2.81981e-22)
(0.973506 0.0892362 7.80347e-24)
(1.00149 0.000711959 -7.41218e-21)
(0.361692 0.0405149 0)
(1.04144 0.00736857 0)
(1.02493 0.0495917 1.9182e-21)
(0.990644 0.000224558 1.15401e-21)
(0.914534 0.108738 0)
(0.554741 0.0781692 0)
(0.0570087 0.00884877 -2.27964e-22)
(1.03938 0.0675671 -2.34447e-21)
(1.04073 0.00770031 6.50027e-21)
(0.34679 -0.0131948 3.31146e-21)
(0.538288 0.0759799 0)
(1.02566 0.0502027 -2.56395e-21)
(1.00757 0.00110212 9.61593e-23)
(0.253393 0.0310611 1.57991e-20)
(1.0052 0.00100104 0)
(0.600992 0.0156733 4.03731e-21)
(1.01744 0.00101323 1.61979e-23)
(0.712581 0.0924552 -3.7396e-20)
(-0.00784539 -0.0403504 1.35478e-21)
(1.01965 0.00104414 5.58667e-23)
(1.01856 0.00340705 3.86553e-23)
(1.07864 0.0963285 3.18031e-20)
(0.992638 0.000430626 0)
(1.01937 0.0010754 2.47757e-23)
(0.292132 0.0456284 -3.15851e-20)
(1.0899 0.0247707 -4.12609e-20)
(1.00504 0.000982961 -1.78922e-22)
(0.988959 8.71146e-05 -5.60528e-23)
(0.997113 0.00258037 0)
(1.00408 0.00649582 -1.62729e-21)
(0.24238 0.0538801 0)
(0.992166 0.000165001 1.05149e-21)
(0.510862 0.0760843 -4.22981e-21)
(1.02843 0.0494666 0)
(1.10743 0.0502587 0)
(0.988617 -4.80065e-05 -6.96916e-22)
(1.02543 0.0120268 0)
(0.110482 0.0309465 0)
(1.12691 0.112739 -6.64424e-21)
(1.11398 0.0612877 -1.69599e-20)
(1.02836 0.077885 -6.01707e-23)
(1.1353 0.0937012 -6.04195e-21)
(1.08112 0.0500443 0)
(1.02104 0.0286957 0)
(0.172494 0.0305405 8.02491e-21)
(0.772262 0.102827 -5.58014e-22)
(1.1033 0.109311 0)
(1.09267 0.0564523 1.91562e-20)
(1.05016 0.0942325 0)
(0.989407 7.72354e-05 -7.84939e-22)
(1.02147 0.0290445 0)
(0.999409 0.00300923 -1.43475e-21)
(1.00204 0.00148343 0)
(1.12879 0.0821552 5.53398e-20)
(0.0022657 0.00572984 -7.05871e-20)
(0.24311 0.0290505 -1.84624e-21)
(0.844933 0.00638372 -4.91231e-23)
(1.00299 0.00427328 -2.41074e-22)
(0.957541 0.0589931 0)
(1.02375 0.0136097 1.76895e-20)
(1.05619 0.0443634 -1.15538e-20)
(1.08019 0.0508932 -2.43468e-22)
(0.294595 0.000844286 2.23629e-21)
(1.04165 0.036233 -1.38264e-20)
(1.0705 0.103046 0)
(0.37484 0.0752823 4.16147e-21)
(1.0131 0.00867198 0)
(1.03089 0.00205257 8.83422e-21)
(1.09262 0.107384 -6.28774e-21)
(0.000674705 -0.0237539 -5.01312e-20)
(1.12076 0.0843388 0)
(1.05113 0.033307 -1.36613e-22)
(1.00732 0.00790103 -3.13266e-21)
(0.996078 0.000685092 0)
(0.579884 0.00567596 0)
(0.388801 0.0549645 1.52459e-20)
(1.02489 0.0254394 -4.91401e-21)
(0.384509 0.0767241 -1.6917e-20)
(1.08621 0.0930645 2.66288e-20)
(0.00263303 -0.0263452 3.89359e-20)
(1.03053 0.00215836 -2.41368e-20)
(0.436164 0.0767603 5.2982e-20)
(0.17416 0.027895 0)
(1.04023 0.0215987 0)
(1.04835 0.0941635 0)
(0.993975 0.000430489 -6.32019e-22)
(1.06819 0.0718373 1.25449e-20)
(1.05645 0.0840676 0)
(0.392475 0.0305405 -7.16411e-22)
(1.01358 0.00859635 0)
(1.02754 0.0175656 0)
(0.416934 0.0484941 -1.83235e-21)
(1.1022 0.109559 -2.71936e-20)
(0.894041 0.0361043 6.52554e-23)
(0.485957 0.0766561 3.98488e-20)
(1.12262 0.11121 -5.67049e-23)
(0.221331 0.0305894 0)
(0.999591 0.00129594 2.25204e-21)
(0.306849 0.0249515 1.98741e-21)
(0.994328 0.000802014 -1.83748e-21)
(1.06572 0.10666 -4.6442e-21)
(1.03722 0.0580949 -1.02948e-20)
(1.05708 0.0508137 -1.19503e-20)
(1.13423 0.0670445 0)
(1.01512 0.0103122 7.53597e-23)
(0.88275 0.0568532 0)
(1.02886 0.00983725 -1.4533e-20)
(-0.0490377 0.019039 1.89199e-20)
(1.06891 0.0733105 0)
(1.02875 0.0486458 0)
(0.285674 0.0329984 -3.02138e-21)
(1.04099 0.0222483 4.71609e-21)
(1.02884 0.0103297 1.45788e-20)
(0.996537 0.0016976 1.21789e-21)
(0.152312 0.0301649 0)
(-0.0175746 0.00232731 0)
(0.0676561 0.0321206 -2.76293e-20)
(1.12777 0.0833336 -6.54762e-20)
(0.996285 0.000707212 4.25582e-22)
(1.1104 0.109758 0)
(1.0064 0.00104657 1.96665e-22)
(1.10826 0.0972341 0)
(1.03342 0.0331427 -4.83189e-21)
(0.299167 0.0445708 1.82036e-20)
(0.453748 0.0714906 -1.82462e-20)
(1.10887 0.110003 -1.93141e-20)
(0.81889 0.100485 -2.69063e-21)
(1.01973 0.00106771 -3.39421e-23)
(0.364472 -0.017562 0)
(1.07078 0.0149304 -1.70161e-20)
(0.549073 0.0780662 -1.34349e-20)
(0.165811 0.0286292 1.1437e-21)
(0.455639 0.0780682 -5.69925e-20)
(0.135191 0.030533 -1.82298e-20)
(1.08103 0.107325 -1.66206e-20)
(0.618871 0.0196681 1.14981e-21)
(0.307111 0.05689 0)
(0.987102 9.15708e-06 4.7205e-23)
(1.00131 0.00100535 1.56133e-22)
(0.824665 0.01114 -3.36137e-22)
(1.00109 0.00097787 2.95559e-22)
(1.10428 0.0455419 -4.18478e-20)
(1.11322 0.0592087 -3.16385e-20)
(1.03859 0.0350518 0)
(1.0063 0.00104159 0)
(0.0985265 0.0279514 0)
(1.0303 0.0333107 0)
(1.0213 0.0269531 9.67693e-23)
(1.08237 0.108416 1.96269e-20)
(1.01493 0.0100466 0)
(0.996527 0.000704908 -1.25477e-22)
(0.855681 0.106657 -2.11731e-20)
(1.08749 0.0924496 -1.49529e-20)
(0.464258 0.0797237 -4.95101e-20)
(0.576804 0.0107745 -9.96421e-22)
(1.03956 0.0351359 1.25132e-20)
(1.12266 0.0850703 1.02739e-20)
(0.847672 0.0359645 0)
(0.240769 0.0305482 0)
(0.453263 0.0784597 1.71175e-20)
(1.02444 0.00598335 -1.96821e-20)
(1.02488 0.0413798 -1.62913e-21)
(1.00856 0.00897538 1.27151e-21)
(1.13589 0.095446 3.15401e-20)
(0.404134 0.0579835 0)
(0.881794 0.107824 0)
(0.190466 0.0303017 3.32588e-20)
(0.236295 0.0308768 1.29566e-20)
(1.09745 0.108671 1.92314e-20)
(0.24788 0.0248816 0)
(0.327657 0.0567507 -2.87821e-20)
(1.15869 0.115132 0)
(0.998345 0.00246727 0)
(0.990971 0.000349747 2.91011e-22)
(0.234419 0.0288156 0)
(0.735489 0.0523036 0)
(0.655843 0.0240116 1.30319e-21)
(0.999452 0.000861368 -3.73049e-21)
(0.999589 0.00233031 1.66487e-22)
(1.0377 0.035884 0)
(1.0596 0.107241 9.3742e-21)
(0.258894 0.0258716 0)
(1.02466 0.0255932 0)
(0.186401 0.00466194 -3.55706e-22)
(1.02807 0.000672758 4.1473e-22)
(1.02641 0.0491637 1.72295e-21)
(1.00433 0.000744074 0)
(1.02892 0.0323776 -7.2511e-21)
(1.16172 0.113977 1.22834e-21)
(1.00967 0.00735176 4.1263e-21)
(1.01759 0.018709 8.20296e-23)
(0.990632 4.56804e-05 7.56048e-22)
(0.990362 -2.58675e-05 0)
(0.990306 0.000184987 -1.02727e-21)
(1.02454 0.00569199 1.51787e-20)
(0.992883 0.000533628 0)
(1.12079 0.0967094 -2.02817e-20)
(0.987222 5.46872e-06 0)
(0.711691 0.0519273 0)
(0.921079 0.0380609 0)
(1.0228 0.0235572 8.49809e-21)
(0.115078 0.0304911 0)
(0.999731 0.000873269 -1.12959e-21)
(0.0262392 0.00841726 3.42922e-20)
(1.0122 0.00645596 -4.68082e-21)
(0.977199 0.0569282 -1.06312e-21)
(1.02608 0.0223904 0)
(1.0674 0.112067 2.71658e-21)
(1.00162 0.00106259 -2.88706e-22)
(1.03387 0.0921214 4.05654e-21)
(0.401425 0.0576514 9.92723e-21)
(1.00759 0.00786259 2.56048e-21)
(1.10946 0.050306 -4.39138e-22)
(1.10345 0.112093 -4.48863e-20)
(0.769562 0.0987145 -4.2602e-21)
(0.249957 0.0231347 -3.18222e-20)
(1.02007 0.0153411 0)
(1.098 0.0745261 3.22468e-20)
(0.536438 0.0515641 1.30766e-21)
(0.534531 0.0764571 0)
(1.02072 0.00324972 -1.71055e-22)
(0.989354 0.00012256 1.20526e-22)
(0.43984 0.0641085 2.96131e-20)
(0.992553 0.000419169 2.1042e-22)
(1.10974 0.0979958 0)
(0.588097 0.0018655 0)
(0.128098 0.0285584 5.1224e-21)
(0.141191 0.0281054 0)
(1.01981 0.00218191 -1.57098e-20)
(1.02366 0.00144817 0)
(0.992643 0.000764338 -5.88801e-22)
(1.02099 0.00126285 0)
(1.02168 0.00319937 0)
(1.02597 0.0259465 4.48474e-21)
(0.812599 0.00635887 1.13625e-22)
(0.715464 0.0675211 -5.41578e-22)
(0.851887 0.0147595 1.66215e-21)
(0.302941 0.0529156 -2.93769e-20)
(0.0958899 0.00756367 0)
(0.0559449 0.00623619 0)
(1.12227 0.0964494 0)
(1.01761 0.0186199 0)
(0.339356 0.0655851 0)
(0.779119 0.102254 0)
(1.01037 0.00738629 -4.1363e-21)
(1.02603 0.0575375 -3.12323e-22)
(0.0668191 0.00846577 -1.17407e-20)
(1.0224 0.0949106 -3.3832e-21)
(1.02299 0.0264898 4.86496e-21)
(0.518876 0.0182987 -1.82701e-21)
(1.03868 0.036059 0)
(1.02724 0.0498656 0)
(0.437275 0.0757598 4.86395e-20)
(1.00638 0.00837888 1.09158e-21)
(0.653092 0.0890778 5.43898e-21)
(0.465156 0.0748697 -3.19596e-20)
(0.900087 0.0876746 -3.43378e-21)
(0.015802 0.00673632 -3.47568e-20)
(0.859461 0.00142361 -3.48269e-23)
(1.0065 0.00839546 0)
(0.283078 0.0532719 -2.92913e-20)
(0.995047 0.000582489 0)
(1.1178 0.0851478 3.00522e-20)
(1.102 0.108332 -1.18208e-20)
(1.0768 0.111233 1.42831e-20)
(-0.0535236 -0.00143529 1.40194e-20)
(1.0224 0.0262813 -3.40145e-21)
(1.03636 0.037176 1.08714e-20)
(0.673601 0.00372105 -1.42801e-21)
(1.05044 0.0446509 9.84112e-21)
(1.02369 0.00405257 0)
(1.01793 0.0193288 -2.67045e-21)
(0.992772 0.000456246 -2.17344e-22)
(0.990578 0.000273705 -1.14106e-22)
(0.0612095 0.00792837 0)
(1.02912 0.000889581 0)
(1.01794 0.0192698 -8.60811e-23)
(0.98991 0.000237522 -1.26541e-23)
(1.11746 0.109229 2.19887e-20)
(0.673191 0.0195973 -1.4714e-22)
(1.09707 0.0888142 4.28197e-20)
(1.06899 0.0517568 2.05586e-20)
(0.671366 0.00743147 6.10366e-22)
(0.809735 0.00667081 1.30642e-22)
(1.04797 0.014486 -2.81601e-20)
(1.06141 0.084788 -4.80314e-22)
(0.992534 0.000479216 3.86109e-22)
(1.00724 0.00759256 2.49004e-21)
(1.02711 0.0264538 3.62398e-21)
(0.989832 0.000172989 0)
(1.02329 0.00612508 6.11948e-21)
(1.1027 0.0875217 -3.76764e-20)
(0.402652 0.0343466 0)
(-0.0125049 -0.0221672 -1.42898e-21)
(1.07255 0.0147885 2.15479e-20)
(1.00324 0.00111028 0)
(1.1232 0.112074 -7.25736e-21)
(0.606377 0.0412457 3.74821e-21)
(0.816253 0.0174195 -7.58916e-22)
(1.06683 0.10208 0)
(1.11948 0.0858165 -3.56445e-21)
(1.02269 0.0602656 -4.35898e-22)
(0.788715 0.0255131 1.56789e-21)
(1.03141 0.0165011 1.82125e-23)
(0.546758 0.076754 1.47636e-20)
(1.03351 0.0226127 -1.89939e-23)
(1.02396 0.0594446 -4.94592e-22)
(0.483544 0.078279 4.17189e-20)
(0.467764 0.0784432 0)
(0.773163 0.103179 1.95343e-20)
(1.02103 0.00439505 0)
(0.990668 0.000281426 -6.96384e-23)
(0.284165 0.0626908 1.06315e-20)
(1.05325 0.072612 -6.72562e-21)
(1.02639 0.0221487 -2.1628e-21)
(1.02322 0.00409101 0)
(1.05212 0.0761241 0)
(1.02565 0.0260935 -4.63994e-21)
(0.949845 0.0184928 0)
(1.01637 0.00520336 0)
(0.354614 0.016052 1.85421e-22)
(0.103627 0.028413 0)
(0.990926 0.000301794 8.09076e-23)
(1.03111 0.0809801 2.53107e-21)
(0.834527 0.0926938 0)
(0.44478 0.076439 0)
(1.02131 0.0259241 0)
(1.02009 0.0202822 1.14702e-22)
(0.546344 0.0869658 -1.24259e-20)
(1.00394 0.000962752 0)
(0.988545 -7.0616e-05 2.0044e-23)
(1.03992 0.0526526 0)
(0.9893 0.00011857 2.69148e-22)
(0.254762 0.0616066 -2.16236e-20)
(0.239465 0.0200241 2.18243e-20)
(1.02875 0.0315514 0)
(1.11577 0.0614918 5.1657e-20)
(1.02053 0.0209274 1.23587e-22)
(1.01693 0.0160878 0)
(0.855131 0.00622438 8.86274e-23)
(1.09557 0.0881001 -5.52788e-20)
(-0.00367373 -0.0454301 -1.25126e-20)
(1.00384 0.00094959 -1.13801e-22)
(0.733183 0.0871491 -1.011e-21)
(0.989747 0.00013916 -2.33288e-22)
(0.98846 -3.1163e-06 3.59754e-22)
(0.546626 0.081324 -2.02943e-20)
(0.0313455 0.00837823 0)
(0.103889 0.00902396 0)
(0.829828 0.103717 0)
(1.02659 0.0256061 3.53055e-21)
(0.465086 0.0763282 -4.6963e-20)
(1.01148 0.00656626 0)
(1.02961 0.0800962 0)
(0.178827 0.0247197 -1.37038e-20)
(0.179337 0.0282785 -2.82166e-20)
(-0.0372126 0.0113993 3.7695e-20)
(1.1002 0.110688 3.43875e-20)
(1.00459 0.00693155 0)
(0.987964 -4.79486e-05 -1.1531e-22)
(1.12472 0.109095 -3.22348e-21)
(0.180803 0.000759409 -2.31868e-22)
(0.916319 0.0152505 0)
(1.08231 0.038953 1.27585e-20)
(0.997889 0.000983358 0)
(1.10165 0.0882185 4.49292e-20)
(0.454341 0.0803529 1.63772e-20)
(0.287053 0.0215812 -2.63292e-22)
(1.05068 0.0322888 3.18424e-20)
(1.01182 0.00747419 5.03949e-22)
(0.989726 0.000103042 4.26682e-22)
(0.966867 0.0196673 5.0439e-24)
(-0.00343436 0.00582152 3.73782e-20)
(0.818815 0.0109061 0)
(0.801958 0.00542923 2.21901e-22)
(1.02432 0.00546981 3.53361e-23)
(-0.0347442 0.0389657 -1.41652e-20)
(1.02594 0.00394073 6.55662e-21)
(1.01877 0.0198394 2.06868e-21)
(1.02051 0.00242493 1.07848e-20)
(0.46959 0.0815032 0)
(1.07872 0.094837 2.94748e-20)
(1.02141 0.0266422 0)
(0.797049 0.0154996 -3.07013e-22)
(1.0109 0.00766854 1.44891e-20)
(1.08096 0.0376192 3.74184e-20)
(0.0533999 0.0064431 0)
(1.0314 0.0473231 1.77701e-21)
(-0.051188 0.0176604 7.78872e-21)
(1.00422 0.00669272 0)
(0.992515 0.000651672 -1.76018e-21)
(0.988148 9.6809e-05 3.65406e-23)
(1.03114 0.0482996 0)
(1.06463 0.0934457 8.86287e-21)
(1.00732 0.0559953 -4.75843e-22)
(1.05333 0.0826956 0)
(0.264251 0.0267414 -2.6576e-20)
(1.07666 0.0793274 -9.76947e-21)
(0.646637 0.0618772 6.22733e-22)
(1.02679 0.026658 5.1648e-21)
(0.752319 0.099574 0)
(1.00831 0.00873686 -2.65112e-21)
(1.02133 0.0276836 0)
(1.04022 0.00879637 -7.14298e-21)
(-0.0304359 0.0387693 9.39713e-23)
(0.62051 0.0883048 -6.03402e-21)
(0.163784 0.0113327 1.31023e-20)
(0.955288 0.109014 -1.64668e-20)
(0.997592 0.000869772 4.85435e-21)
(0.989264 4.28603e-05 1.09947e-21)
(0.269893 0.0296249 -2.70439e-20)
(0.807568 0.00471135 0)
(-0.0187271 -0.0290133 1.75222e-20)
(-0.0309559 0.0324014 0)
(1.01842 0.0192009 -6.19182e-21)
(1.03051 0.008695 2.2119e-20)
(0.0556735 0.0597442 1.27749e-20)
(1.02267 0.0323314 -1.35686e-21)
(1.09639 0.0753124 6.42999e-21)
(1.04009 0.0200001 0)
(0.0819488 0.00240466 3.53516e-20)
(1.01109 0.00411951 -1.28072e-22)
(0.93921 0.106856 1.1384e-20)
(1.00193 0.000845731 0)
(1.02536 0.000228769 7.79368e-21)
(0.280191 0.0325765 1.96462e-20)
(1.04957 0.0683514 6.14018e-21)
(0.716432 0.0977381 -9.28552e-21)
(0.553439 0.0851296 -4.54035e-22)
(1.01775 0.00558305 -5.71459e-22)
(1.03926 0.00838394 7.17873e-21)
(0.450044 0.0653121 -1.35003e-20)
(1.0276 0.0747953 1.15046e-22)
(1.02451 0.0421054 1.95186e-21)
(0.998481 0.000900915 -1.1261e-21)
(1.01704 0.0159548 9.12056e-23)
(1.02394 0.00631822 -3.66478e-21)
(1.05089 0.0921488 0)
(0.520333 0.0853782 -6.73956e-21)
(0.930895 0.0145484 -6.05048e-22)
(1.03407 0.00764248 -2.56708e-21)
(1.02295 0.0133443 -1.3889e-20)
(-0.0778877 0.0190649 -3.09941e-20)
(0.999873 0.00133476 2.06016e-21)
(1.02366 0.0121018 0)
(0.650655 0.0870063 2.81166e-21)
(0.989592 0.000201983 -4.29696e-24)
(1.04988 0.0435605 -2.22271e-20)
(1.00918 0.00191421 0)
(1.10537 0.107883 7.99965e-21)
(1.01173 0.0123494 -1.82533e-21)
(1.02105 0.0227794 -4.82086e-22)
(0.465571 0.0740358 0)
(0.994689 0.000761357 -2.38636e-21)
(0.235385 0.0545189 0)
(1.06778 0.0251863 -1.93475e-20)
(0.849551 0.10372 -3.07163e-20)
(1.01916 0.00351493 9.99588e-21)
(1.03222 0.0226898 0)
(0.163005 0.0303896 3.61434e-20)
(0.672451 0.0103651 2.29352e-21)
(0.488551 0.0774492 0)
(1.01573 0.00518485 0)
(0.874922 0.0384277 -1.20213e-21)
(1.01148 0.00152994 -1.40589e-22)
(1.03135 0.0169307 -5.74606e-21)
(0.718304 0.0947731 -1.4628e-20)
(0.996286 0.00156659 1.02995e-21)
(1.03461 0.00265357 2.46095e-20)
(1.02416 0.00192331 0)
(1.03499 0.00304171 -2.28845e-20)
(0.494031 0.077296 -2.16224e-20)
(1.01981 0.019472 -2.60224e-21)
(1.05132 0.0308166 -1.0212e-20)
(1.03681 0.0899997 -1.27716e-21)
(0.990626 0.000256699 5.60344e-22)
(0.505321 0.0769246 2.06296e-20)
(1.01726 0.0180283 -2.13086e-21)
(0.0603167 0.0430173 2.04234e-21)
(0.996232 0.0013667 -3.43131e-21)
(1.0238 0.0576799 4.97727e-23)
(0.408415 0.0581532 -9.62689e-21)
(0.978022 0.109326 -1.80009e-20)
(0.7798 0.00419902 3.34706e-22)
(1.04731 0.0138815 0)
(0.533326 0.0827228 3.73304e-20)
(-0.0258171 0.0298052 0)
(0.533416 0.0760046 7.45416e-21)
(1.00037 0.00403666 -5.61082e-21)
(1.0217 0.0296373 0)
(1.02213 0.0263656 0)
(1.00509 0.00222379 -5.37322e-22)
(1.00461 0.00211883 5.90502e-22)
(1.01014 0.00762456 0)
(0.290716 0.035665 2.31623e-20)
(0.845727 0.101855 8.37793e-21)
(1.02173 0.0256418 2.79868e-21)
(1.1058 0.0870254 0)
(1.03059 0.0214418 -9.82003e-21)
(1.02089 0.0221607 3.54417e-22)
(-0.0649077 0.00468899 2.90584e-20)
(1.12851 0.112527 0)
(1.04982 0.0301923 0)
(1.09022 0.0266714 2.1397e-20)
(0.822276 0.0552596 0)
(0.791883 0.0992039 -2.0297e-20)
(0.995402 0.000950742 0)
(1.0004 0.00415157 2.83235e-21)
(0.850313 0.102701 0)
(1.02268 0.0317639 1.16397e-21)
(0.553216 0.0772034 -1.37773e-20)
(0.8855 0.104658 3.73799e-20)
(1.02711 0.0427829 -2.10016e-21)
(1.05403 0.0427809 0)
(0.988692 7.35248e-05 -1.00725e-21)
(0.848367 0.00738075 -1.05028e-22)
(0.988856 9.33935e-05 -3.65673e-22)
(0.997341 0.000856853 -2.3465e-21)
(1.09146 0.0746707 -2.47456e-20)
(0.259267 0.0314147 1.40848e-20)
(0.988566 7.0423e-05 -3.36527e-22)
(1.01183 0.0122437 0)
(0.994618 0.000771753 -4.29261e-21)
(0.994407 0.00094939 4.0402e-22)
(1.08708 0.084652 1.25801e-20)
(1.00169 0.000824511 0)
(1.03122 0.00125284 0)
(0.433931 0.0636276 -1.37052e-20)
(0.423853 0.0719009 6.27686e-21)
(1.01548 0.0633063 -4.25845e-23)
(0.829863 0.00546033 -2.48759e-23)
(0.243801 0.0245794 2.4817e-20)
(1.01134 0.00678974 0)
(1.04627 0.0529287 0)
(0.21097 0.0281865 7.97914e-21)
(1.0343 0.0337669 0)
(1.06946 0.0137544 0)
(0.444472 0.0798699 -1.20634e-20)
(0.99857 0.00105112 -6.18499e-21)
(1.10148 0.105257 2.98037e-20)
(0.842539 0.102172 -7.79949e-21)
(1.07581 0.0655842 3.06642e-20)
(0.997895 0.00295191 9.32355e-22)
(1.0255 0.00351265 6.31829e-21)
(1.02019 0.0139439 -8.7795e-23)
(1.02694 0.0254302 0)
(1.0685 0.103612 -6.58207e-22)
(1.0203 0.0143117 -2.10563e-22)
(1.02218 0.0260831 3.44902e-21)
(0.779174 0.00373536 9.01919e-23)
(0.678557 0.00682859 1.14044e-21)
(1.04299 0.0695894 -4.89827e-21)
(1.08794 0.0860387 -4.406e-20)
(0.995727 0.00105197 -1.04423e-21)
(0.743136 0.100406 0)
(1.02089 0.00353121 0)
(1.03871 0.0524929 0)
(0.125644 0.0305523 0)
(0.303299 0.0616237 -2.13946e-21)
(1.01203 0.00672553 2.67052e-21)
(1.13208 0.0811681 0)
(0.0508934 0.00825481 6.30955e-20)
(1.00484 0.00115758 -1.13819e-22)
(1.04007 0.0400902 0)
(1.03761 0.0368488 -1.83112e-20)
(1.04415 0.026363 -1.27928e-20)
(0.953493 0.108528 1.74357e-20)
(0.745078 0.100344 0)
(1.08795 0.0816736 -2.56245e-20)
(1.01836 0.00552874 -8.74056e-23)
(1.0028 0.000881732 -1.88526e-22)
(1.04208 0.018557 1.34547e-20)
(0.987877 8.0585e-05 -7.45436e-22)
(0.991278 0.000180819 2.23293e-21)
(1.06416 0.0239142 -2.41774e-20)
(1.02029 0.0201353 1.38442e-22)
(0.479022 0.0134413 2.11378e-21)
(-0.0567353 -0.00176101 0)
(1.0126 0.00724721 0)
(-0.033799 0.0254241 0)
(0.52933 0.0264428 -3.60669e-21)
(0.226464 0.0676716 0)
(1.07905 0.0663527 0)
(1.01087 0.00153708 1.30912e-22)
(0.350095 0.0667512 4.39129e-21)
(0.796058 0.099639 3.08823e-20)
(-0.0707602 0.00825108 -1.77233e-20)
(1.00965 0.0211552 -6.15577e-22)
(1.08254 0.0243365 -2.15635e-20)
(1.05472 0.0911849 0)
(0.39432 0.0582722 0)
(1.05625 0.0513815 1.54396e-20)
(0.988951 -4.4793e-05 -6.15765e-22)
(1.02643 0.0245513 0)
(0.988859 6.12064e-05 0)
(0.933736 0.110738 0)
(1.0516 0.0727919 1.48107e-20)
(1.01728 0.01792 2.71863e-21)
(1.02667 0.0415857 3.44406e-21)
(-0.0859159 0.0179553 -1.08717e-20)
(0.711626 0.100427 0)