/*--------------------------------*- C++ -*----------------------------------*\
| =========                 |                                                 |
| \\      /  F ield         | OpenFOAM: The Open Source CFD Toolbox           |
|  \\    /   O peration     | Version:  v2012                                 |
|   \\  /    A nd           | Website:  www.openfoam.com                      |
|    \\/     M anipulation  |                                                 |
\*---------------------------------------------------------------------------*/
FoamFile
{
    version     2.0;
    format      ascii;
    class       volVectorField;
    location    "200";
    object      U_0;
}
// * * * * * * * * * * * * * * * * * * * * * * * * * * * * * * * * * * * * * //

dimensions      [0 1 -1 0 0 0 0];


internalField   nonuniform List<vector> 
14804
(
(0.991273 0.000303527 -2.05924e-22)
(0.993548 0.00061012 1.53974e-21)
(0.811831 0.0991724 7.67282e-23)
(0.996557 0.00199976 -2.34393e-21)
(1.10746 0.0458222 -1.02576e-20)
(1.03119 0.0341371 0)
(0.115215 0.0124375 0)
(1.09318 0.0622817 0)
(1.01116 0.00148701 -1.23057e-22)
(0.99952 0.000643319 -1.37812e-23)
(1.019 0.00104756 -3.21925e-23)
(-0.0705703 0.0137842 2.66291e-20)
(0.971554 0.00255126 3.52607e-22)
(0.867569 0.0481138 -1.94995e-22)
(0.360349 0.0537926 -2.12971e-20)
(1.04513 0.0332987 -3.6865e-23)
(0.0088236 0.00582669 3.39692e-23)
(0.908096 0.0485338 8.38824e-22)
(1.0462 0.033282 0)
(0.990879 0.000290413 9.4459e-24)
(1.00019 0.00346294 -1.98395e-21)
(1.10597 0.0463047 3.63675e-20)
(1.02007 0.0146491 5.13258e-22)
(1.04361 0.0361347 -1.38314e-20)
(0.879346 0.0161029 -3.24715e-22)
(0.125161 0.0123684 -2.24164e-20)
(0.0997069 0.00914579 0)
(1.01202 0.0120608 -7.09988e-21)
(0.359777 0.0557506 2.35597e-20)
(0.370706 0.0539278 0)
(0.44462 0.0564483 2.59908e-21)
(0.00528434 0.00513345 -4.95716e-21)
(1.08191 0.043933 -2.30212e-20)
(1.09173 0.0632093 0)
(0.805228 0.10188 -8.50436e-21)
(0.997424 0.00258587 0)
(1.01097 0.00322093 3.62241e-21)
(1.04248 0.0349721 1.35392e-20)
(1.13355 0.108901 -7.9037e-21)
(0.990143 0.00021571 -1.77572e-22)
(1.12756 0.111891 0)
(1.13793 0.107513 -4.02361e-20)
(1.06481 0.102486 0)
(1.06502 0.0252975 0)
(0.728578 0.0435909 0)
(0.281123 0.0562899 0)
(1.11927 0.11104 0)
(0.996612 0.00191096 1.18485e-21)
(1.05746 0.0875581 1.15902e-20)
(1.00004 0.00335444 1.71738e-21)
(1.02035 0.0161159 3.38057e-22)
(0.993203 0.00031547 2.32242e-21)
(1.00472 0.00119426 2.57643e-22)
(1.02022 0.0150408 0)
(1.08193 0.0451242 5.18134e-20)
(1.0116 0.011676 6.35014e-21)
(0.111111 0.00947345 0)
(0.0202888 0.00860939 -7.66831e-21)
(0.66717 0.0208219 2.6879e-21)
(0.95432 0.00207129 -3.0273e-22)
(0.013566 0.00693527 0)
(0.829378 0.104675 1.97237e-20)
(0.990825 0.000283467 2.81122e-22)
(0.99331 0.000590588 -1.37127e-21)
(1.07557 0.0292883 1.71927e-20)
(-0.06503 0.0100534 -3.07625e-20)
(0.8349 0.00695236 -3.12451e-22)
(1.01364 0.00575289 -5.34426e-22)
(1.00023 0.000671499 7.78561e-24)
(1.03657 0.0364691 -4.85657e-21)
(1.05475 0.0439084 -9.82605e-21)
(1.01292 0.00568332 -5.80417e-22)
(1.07935 0.0257978 -1.02797e-20)
(1.09359 0.0773862 -1.55727e-20)
(0.818449 0.102654 4.06039e-21)
(1.01979 0.0159423 5.4617e-21)
(1.04081 0.0195033 0)
(1.06456 0.0858098 3.18904e-21)
(0.989678 0.000210019 0)
(1.02224 0.0419048 1.30513e-22)
(1.02272 0.0413593 0)
(1.0177 0.00103085 1.45426e-23)
(1.10954 0.0740723 2.69705e-20)
(0.273371 0.0318279 0)
(0.993593 6.77527e-05 0)
(1.03676 0.0214489 2.75939e-21)
(0.989537 9.19082e-05 0)
(1.0007 0.00410575 0)
(1.07949 0.0560155 -1.42022e-20)
(1.08088 0.055446 -1.49615e-20)
(0.764218 0.0890436 1.43887e-21)
(1.00036 0.00376674 0)
(0.990026 0.000197249 5.6604e-23)
(1.02704 0.0112111 7.01793e-21)
(1.0019 0.000718422 2.77823e-23)
(0.322406 0.0470189 1.63974e-20)
(0.992743 0.000301092 5.03291e-22)
(0.769309 0.0459272 2.50086e-22)
(1.04062 0.0413509 6.19101e-21)
(1.01722 0.00098338 0)
(0.25211 0.0538078 0)
(0.78429 0.102645 -1.95354e-22)
(1.11402 0.107801 -3.77544e-20)
(1.0775 0.029805 -2.24712e-20)
(1.11226 0.0979207 2.02896e-21)
(0.834123 0.014836 5.98745e-23)
(1.02399 0.0274167 2.5985e-21)
(0.991159 0.00019526 -2.36312e-22)
(1.04174 0.0420238 -1.30891e-20)
(-0.000737775 -0.0491601 -2.80295e-21)
(0.991484 0.000280183 0)
(1.02356 0.0271685 -4.60706e-21)
(-0.0238993 0.00483335 -1.77904e-20)
(1.09746 0.0716771 2.43249e-20)
(1.05937 0.05058 -7.14832e-21)
(0.808317 0.100962 4.59734e-20)
(1.10765 0.110964 -1.84358e-20)
(1.06367 0.105026 0)
(1.04448 0.0348729 -9.94485e-21)
(0.995819 0.000697919 -2.69623e-22)
(0.784895 0.0985701 0)
(1.11101 0.0970227 0)
(1.02706 0.010808 -3.85858e-21)
(1.11052 0.0755455 -1.01505e-20)
(1.04545 0.034826 1.81323e-20)
(1.09863 0.0730561 -3.27766e-20)
(0.990495 0.000203845 1.38362e-21)
(0.987626 -5.94815e-05 0)
(1.0927 0.0612964 0)
(0.358683 0.050656 4.19748e-21)
(0.990582 0.000251896 6.2312e-22)
(0.319916 0.0473205 -7.83682e-23)
(1.01017 0.00146139 -1.3541e-22)
(0.47707 0.0478592 4.33991e-21)
(1.00445 0.00117531 -3.58255e-22)
(0.755317 0.0852647 1.46042e-23)
(1.14961 0.113286 3.09721e-20)
(1.0174 0.00541039 0)
(0.787042 0.0983286 0)
(0.540889 0.0236437 3.59635e-21)
(1.01132 0.00289271 0)
(1.00892 0.00138682 0)
(1.01683 0.00538255 0)
(1.0667 0.0257903 0)
(1.13437 0.111654 -2.76424e-20)
(1.01225 0.00906801 -7.89168e-22)
(1.09978 0.109557 1.60682e-20)
(1.13364 0.110269 -2.74737e-20)
(0.237426 0.0283735 0)
(1.02246 0.0258854 3.31849e-21)
(0.822633 0.00692022 2.63645e-22)
(0.990692 0.000272573 -5.67797e-22)
(1.11124 0.108398 0)
(1.13879 0.112839 3.26989e-20)
(0.991529 0.000335205 2.96653e-22)
(0.990884 0.000318027 -3.03995e-22)
(0.780503 0.016135 -1.30404e-22)
(1.07197 0.034467 1.90652e-20)
(1.03257 0.022298 0)
(0.248501 0.0312701 0)
(1.01709 0.0138937 5.83796e-21)
(1.00048 0.000792635 -3.70731e-22)
(0.987887 -8.13234e-05 4.35061e-22)
(1.00988 0.00141238 2.13888e-22)
(1.06956 0.0506588 -3.5262e-20)
(0.0664306 0.0388191 -8.00316e-22)
(0.988337 -4.89798e-05 2.89676e-22)
(1.00192 0.000717694 2.14569e-23)
(1.02466 0.00552423 1.67147e-22)
(1.0706 0.0346074 -3.16667e-20)
(1.01668 0.0137319 -6.81931e-22)
(1.07924 0.0245507 6.56735e-21)
(0.672332 0.0915483 1.46606e-20)
(1.01255 0.00897995 1.80626e-21)
(1.02156 0.0796224 0)
(0.21141 0.0314451 -3.00983e-20)
(1.07667 0.112017 -1.38744e-20)
(-0.0486658 0.00834451 -3.32418e-20)
(0.718988 0.0960071 1.25607e-20)
(1.02392 0.00560854 -4.25745e-24)
(1.00412 0.00121768 2.78014e-22)
(1.05599 0.0860265 -9.9897e-21)
(1.03234 0.0164787 -2.04834e-23)
(0.691514 0.0232821 4.08216e-23)
(1.00083 0.00102224 -4.41573e-22)
(0.792963 0.0991078 -2.13726e-20)
(0.783846 0.0880239 -2.07657e-21)
(0.177526 0.0300427 -3.88412e-21)
(0.464791 0.0429414 -2.12099e-21)
(0.988579 -8.4494e-05 3.22852e-22)
(1.00944 0.00957004 2.70668e-21)
(0.772252 0.101377 -9.03224e-21)
(-0.0262399 0.0434433 1.96303e-20)
(0.678397 0.0109927 2.93129e-22)
(0.460984 0.0753077 -2.24294e-21)
(0.673222 0.0470904 -1.37261e-21)
(0.615754 0.0889157 -6.77771e-22)
(0.171341 0.0283543 4.4202e-21)
(1.03247 0.0159658 0)
(0.474941 0.0764742 -1.93844e-20)
(1.02702 0.016849 0)
(1.00739 0.00817891 0)
(1.00075 0.00080864 -1.02628e-22)
(0.905002 0.109582 0)
(1.03144 0.0350132 0)
(1.09591 0.098233 -9.0667e-21)
(0.411081 0.0514509 -1.733e-21)
(0.919324 0.0166986 -5.21709e-22)
(1.0953 0.0782515 0)
(1.02554 0.0114104 0)
(0.989349 2.07536e-05 0)
(0.739706 0.0953176 1.12447e-20)
(1.00822 0.0013921 0)
(0.996823 0.00222504 1.12049e-21)
(0.483789 0.0753622 7.84876e-21)
(1.02676 0.00175619 0)
(0.865624 0.00160284 1.1465e-23)
(1.03453 0.00351014 1.19965e-20)
(1.13944 0.112202 -3.27804e-20)
(0.889851 0.016406 3.08851e-22)
(1.03732 0.0611355 7.49614e-21)
(0.551726 0.0382749 5.13289e-21)
(1.00606 0.00136741 5.90496e-21)
(1.0246 0.00546319 -9.56772e-23)
(0.268317 0.057595 3.08559e-20)
(1.09713 0.0975493 -1.14498e-20)
(0.205403 0.0299476 2.92465e-20)
(1.02723 0.00192524 4.50674e-24)
(0.840514 0.00697673 1.12581e-22)
(1.05741 0.109679 0)
(1.06623 0.0870004 0)
(0.438038 0.0746181 -5.28412e-21)
(1.02958 0.0176027 1.41437e-20)
(1.0264 0.0116443 1.71326e-21)
(0.611862 0.0342991 1.75242e-21)
(1.03586 0.0210692 -8.72859e-22)
(0.868927 0.106638 0)
(0.651577 0.0908712 -6.0654e-21)
(1.04636 0.0175845 0)
(0.488302 0.0190189 -8.88264e-23)
(0.0976676 0.0138437 1.88845e-20)
(1.0551 0.0825168 -2.49876e-21)
(0.767453 0.0554112 0)
(0.103533 0.0304107 -5.06021e-21)
(1.00278 0.000884945 1.08255e-20)
(0.994271 0.000705745 1.04445e-21)
(1.05103 0.0745174 7.41331e-21)
(0.00935911 0.0080029 6.07905e-20)
(1.09133 0.057325 -2.00957e-20)
(1.09165 0.0239949 1.34405e-20)
(0.797783 0.10158 -1.50476e-23)
(0.811626 0.104391 -1.31058e-20)
(1.00393 0.0011807 0)
(1.01712 0.0167696 5.09267e-22)
(0.994672 0.000437616 -3.24217e-21)
(1.01475 0.00395714 5.77557e-23)
(0.267216 0.0299874 0)
(0.778884 0.102106 1.64777e-22)
(0.488645 0.0779115 7.59086e-21)
(0.0957401 0.0285215 0)
(1.01723 0.0166355 0)
(0.864618 0.0161203 -1.82023e-22)
(0.996128 0.000708936 1.65271e-21)
(1.02021 0.00452182 7.94418e-23)
(1.0092 0.00931481 -3.78819e-21)
(0.154515 0.0133546 1.28622e-20)
(1.02243 0.00647238 4.26076e-23)
(1.00234 0.00417729 -4.64415e-23)
(0.273625 0.0294185 0)
(0.990495 0.000254665 -1.01185e-23)
(1.02793 0.0103069 2.42306e-20)
(1.06689 0.108635 5.46846e-21)
(1.12299 0.109951 0)
(0.106029 0.014613 -2.29789e-20)
(1.12552 0.0830795 0)
(0.650759 0.038155 -3.54344e-21)
(0.989342 6.26022e-05 -1.3164e-21)
(1.08871 0.090287 0)
(0.990369 0.00024627 -1.26658e-22)
(0.539789 0.0346275 -4.63601e-21)
(1.02304 0.00661327 -3.50103e-21)
(0.494641 0.074902 0)
(1.02875 0.0173434 -1.31085e-20)
(1.05372 0.0710784 0)
(1.04573 0.0181672 -1.51786e-20)
(0.140643 0.0301457 -4.33399e-20)
(1.04463 0.0361061 1.576e-20)
(0.086888 0.0120514 2.83358e-20)
(1.01824 0.0148347 -6.80385e-21)
(0.147829 0.0306594 -3.59621e-20)
(0.139552 0.0102682 -2.82626e-20)
(1.08733 0.0905946 1.80795e-20)
(1.02171 0.00550307 -4.72316e-23)
(0.885642 0.109962 -4.00365e-20)
(1.0415 0.035051 1.91655e-20)
(1.05862 0.0514246 6.65064e-21)
(0.774635 0.102297 1.85519e-20)
(1.04205 0.00438987 3.59815e-21)
(1.1031 0.0441012 1.04156e-20)
(0.989143 0.000112052 3.44358e-22)
(1.00887 0.0011687 0)
(1.04067 0.0677946 -1.13028e-21)
(1.01769 0.0146875 -1.07056e-20)
(1.06287 0.0863339 1.01531e-20)
(1.0057 0.00135456 -3.41468e-21)
(0.285049 0.0030661 -1.97175e-23)
(0.808794 0.00552499 1.25801e-22)
(1.02469 0.0118272 1.2947e-20)
(0.2591 0.0692955 0)
(1.02384 0.0414822 -2.24675e-22)
(0.991716 0.000283992 -2.35706e-21)
(1.03492 0.00382314 -1.84033e-20)
(0.695127 0.0934752 1.5944e-20)
(0.997135 0.00233748 1.2254e-21)
(1.04509 0.110495 2.63313e-21)
(0.988836 -6.99166e-05 -1.3548e-22)
(1.02342 0.0421646 -5.76752e-22)
(0.98821 -5.63754e-05 2.84649e-22)
(1.13644 0.110268 -3.6175e-21)
(0.988486 -0.000132253 -5.41664e-22)
(1.00877 0.00116582 0)
(1.04888 0.0305446 -1.00514e-20)
(0.922264 0.109029 0)
(0.345363 0.0346292 0)
(1.02796 0.0108206 -1.24712e-20)
(0.998847 0.00287591 -7.44018e-22)
(1.03822 0.062358 -1.28324e-20)
(0.77844 0.0982917 -2.74163e-20)
(0.74036 0.0994762 0)
(1.13202 0.0667763 -2.17859e-20)
(1.02483 0.0567527 -2.97391e-22)
(1.00325 0.00425068 0)
(1.04154 0.00381325 0)
(0.0721058 0.00870713 0)
(1.01153 0.00757435 0)
(0.133164 0.028347 4.57954e-20)
(1.1247 0.0841112 -3.43644e-21)
(0.0506413 0.00701701 0)
(0.81929 0.100473 4.46028e-20)
(0.136132 0.0276933 3.23407e-20)
(0.184463 0.0306135 -7.73317e-21)
(1.08995 0.108512 7.57952e-21)
(0.0514007 0.0248298 4.55514e-20)
(0.780207 0.0978194 -4.06638e-20)
(1.00743 0.00134403 -3.51421e-22)
(1.04041 0.0188771 0)
(0.327741 0.063127 -4.74647e-21)
(-0.0200546 0.0448799 0)
(1.00768 0.0081732 6.46264e-22)
(1.04066 0.0361993 -1.29199e-20)
(1.09324 0.0754386 2.64594e-20)
(0.994643 0.000569253 0)
(0.997292 0.00267223 0)
(0.596539 0.0577923 4.28784e-22)
(1.00433 0.00667283 3.33647e-21)
(1.00765 0.00110432 2.81986e-22)
(0.973506 0.0892361 7.80355e-24)
(1.00149 0.000711958 -7.41215e-21)
(0.361693 0.0405143 0)
(1.04144 0.00736857 0)
(1.02493 0.0495916 1.9182e-21)
(0.990644 0.000224557 1.15401e-21)
(0.914534 0.108738 0)
(0.554741 0.0781692 0)
(0.0570089 0.00884878 -2.27962e-22)
(1.03938 0.0675671 -2.34447e-21)
(1.04073 0.00770031 6.50023e-21)
(0.34679 -0.0131948 3.31161e-21)
(0.538289 0.07598 0)
(1.02565 0.0502027 -2.56395e-21)
(1.00757 0.00110218 9.61617e-23)
(0.253393 0.0310611 1.5799e-20)
(1.0052 0.00100108 0)
(0.600992 0.0156723 4.03728e-21)
(1.01743 0.00101293 1.61933e-23)
(0.712582 0.0924552 -3.73959e-20)
(-0.0078454 -0.0403506 1.35479e-21)
(1.01964 0.00104325 5.58273e-23)
(1.01856 0.00340705 3.8655e-23)
(1.07864 0.0963284 3.1803e-20)
(0.992638 0.000430624 0)
(1.01936 0.00107411 2.47722e-23)
(0.292132 0.0456284 -3.15851e-20)
(1.0899 0.0247707 -4.12606e-20)
(1.00504 0.000983 -1.78925e-22)
(0.988959 8.71182e-05 -5.60528e-23)
(0.997113 0.00258036 0)
(1.00408 0.0064958 -1.62729e-21)
(0.24238 0.0538801 0)
(0.992166 0.000165001 1.05148e-21)
(0.510862 0.0760843 -4.22979e-21)
(1.02843 0.0494666 0)
(1.10743 0.0502587 0)
(0.988617 -4.80061e-05 -6.96916e-22)
(1.02543 0.0120268 0)
(0.110482 0.0309465 0)
(1.1269 0.112739 -6.64419e-21)
(1.11398 0.0612877 -1.69598e-20)
(1.02836 0.0778851 -6.01725e-23)
(1.1353 0.0937012 -6.04193e-21)
(1.08112 0.0500443 0)
(1.02104 0.0286957 0)
(0.172494 0.0305405 8.02486e-21)
(0.772263 0.102827 -5.5801e-22)
(1.1033 0.109311 0)
(1.09267 0.0564523 1.91561e-20)
(1.05016 0.0942324 0)
(0.989407 7.7236e-05 -7.84938e-22)
(1.02147 0.0290445 0)
(0.999409 0.00300921 -1.43475e-21)
(1.00204 0.00148343 0)
(1.12879 0.0821552 5.53395e-20)
(0.0022659 0.00572985 -7.05866e-20)
(0.243111 0.0290505 -1.84624e-21)
(0.844929 0.0063765 -4.92147e-23)
(1.00299 0.00427326 -2.41075e-22)
(0.957541 0.0589934 0)
(1.02375 0.0136096 1.76894e-20)
(1.05619 0.0443634 -1.15537e-20)
(1.08019 0.0508931 -2.43467e-22)
(0.294595 0.000844026 2.23637e-21)
(1.04165 0.0362329 -1.38263e-20)
(1.0705 0.103046 0)
(0.37484 0.0752825 4.16147e-21)
(1.0131 0.00867192 0)
(1.03089 0.00205257 8.83417e-21)
(1.09262 0.107384 -6.28772e-21)
(0.000674736 -0.0237541 -5.01313e-20)
(1.12076 0.0843388 0)
(1.05113 0.033307 -1.36612e-22)
(1.00732 0.007901 -3.13266e-21)
(0.996078 0.000685117 0)
(0.579884 0.00567491 0)
(0.388801 0.0549645 1.52459e-20)
(1.02489 0.0254393 -4.914e-21)
(0.38451 0.0767243 -1.69171e-20)
(1.08621 0.0930644 2.66287e-20)
(0.00263306 -0.0263454 3.8936e-20)
(1.03053 0.00215836 -2.41367e-20)
(0.436164 0.0767603 5.29816e-20)
(0.17416 0.0278951 0)
(1.04023 0.0215987 0)
(1.04835 0.0941634 0)
(0.993975 0.000430488 -6.32019e-22)
(1.06819 0.0718373 1.25448e-20)
(1.05645 0.0840675 0)
(0.392475 0.0305412 -7.16398e-22)
(1.01358 0.00859628 0)
(1.02754 0.0175656 0)
(0.416934 0.0484936 -1.83232e-21)
(1.1022 0.109559 -2.71935e-20)
(0.89404 0.0361038 6.5255e-23)
(0.485957 0.0766561 3.98486e-20)
(1.12262 0.11121 -5.67062e-23)
(0.221331 0.0305894 0)
(0.999591 0.00129594 2.25203e-21)
(0.30685 0.0249511 1.98743e-21)
(0.994328 0.00080201 -1.83748e-21)
(1.06572 0.10666 -4.64419e-21)
(1.03722 0.0580949 -1.02948e-20)
(1.05708 0.0508137 -1.19503e-20)
(1.13423 0.0670445 0)
(1.01512 0.0103122 7.53592e-23)
(0.88275 0.0568536 0)
(1.02886 0.00983724 -1.4533e-20)
(-0.0490375 0.0190372 1.89199e-20)
(1.06891 0.0733105 0)
(1.02875 0.0486458 0)
(0.285674 0.0329984 -3.02137e-21)
(1.04099 0.0222483 4.71607e-21)
(1.02884 0.0103297 1.45787e-20)
(0.996537 0.0016976 1.21789e-21)
(0.152312 0.0301649 0)
(-0.0175735 0.00232787 0)
(0.0676565 0.0321205 -2.76293e-20)
(1.12777 0.0833336 -6.54759e-20)
(0.996285 0.000707236 4.25585e-22)
(1.1104 0.109758 0)
(1.0064 0.00104662 1.96668e-22)
(1.10826 0.0972341 0)
(1.03342 0.0331427 -4.83187e-21)
(0.299168 0.0445708 1.82036e-20)
(0.453749 0.0714906 -1.82462e-20)
(1.10887 0.110003 -1.9314e-20)
(0.818891 0.100485 -2.69062e-21)
(1.01973 0.00106567 -3.39281e-23)
(0.364472 -0.0175615 0)
(1.07078 0.0149304 -1.7016e-20)
(0.549073 0.0780662 -1.34348e-20)
(0.165811 0.0286293 1.14369e-21)
(0.455639 0.0780683 -5.69922e-20)
(0.135191 0.030533 -1.82297e-20)
(1.08103 0.107325 -1.66205e-20)
(0.618871 0.0196672 1.1498e-21)
(0.307112 0.05689 0)
(0.987102 9.16707e-06 4.72051e-23)
(1.00131 0.00100537 1.56134e-22)
(0.824665 0.0111469 -3.36274e-22)
(1.00109 0.000977892 2.95562e-22)
(1.10428 0.0455419 -4.18475e-20)
(1.11322 0.0592087 -3.16384e-20)
(1.03859 0.0350518 0)
(1.0063 0.00104164 0)
(0.0985267 0.0279514 0)
(1.0303 0.0333107 0)
(1.0213 0.0269532 9.67958e-23)
(1.08237 0.108416 1.96269e-20)
(1.01493 0.0100466 0)
(0.996527 0.000704934 -1.25478e-22)
(0.855681 0.106657 -2.11729e-20)
(1.08749 0.0924495 -1.49528e-20)
(0.464258 0.0797237 -4.95098e-20)
(0.576804 0.0107736 -9.96415e-22)
(1.03956 0.0351359 1.25131e-20)
(1.12266 0.0850703 1.02739e-20)
(0.847671 0.0359641 0)
(0.240769 0.0305482 0)
(0.453263 0.0784598 1.71174e-20)
(1.02444 0.00598334 -1.9682e-20)
(1.02488 0.0413797 -1.62913e-21)
(1.00856 0.00897535 1.27151e-21)
(1.13589 0.095446 3.154e-20)
(0.404134 0.0579835 0)
(0.881794 0.107824 0)
(0.190466 0.0303017 3.32586e-20)
(0.236295 0.0308769 1.29566e-20)
(1.09745 0.108671 1.92314e-20)
(0.24788 0.0248816 0)
(0.327657 0.0567508 -2.87819e-20)
(1.15869 0.115132 0)
(0.998344 0.00246284 0)
(0.990971 0.00034975 2.91011e-22)
(0.234419 0.0288156 0)
(0.73549 0.0523042 0)
(0.655843 0.0240108 1.30318e-21)
(0.999453 0.000861367 -3.73048e-21)
(0.999589 0.00232666 1.6665e-22)
(1.0377 0.035884 0)
(1.0596 0.107241 9.37418e-21)
(0.258895 0.0258715 0)
(1.02466 0.0255931 0)
(0.186401 0.00466026 -3.55765e-22)
(1.02807 0.000672758 4.14727e-22)
(1.02641 0.0491636 1.72295e-21)
(1.00433 0.000744161 0)
(1.02892 0.0323776 -7.25108e-21)
(1.16172 0.113977 1.22834e-21)
(1.00967 0.00735175 4.12628e-21)
(1.01759 0.018709 8.20295e-23)
(0.990632 4.56802e-05 7.56048e-22)
(0.990362 -2.58676e-05 0)
(0.990306 0.000184986 -1.02727e-21)
(1.02454 0.00569198 1.51786e-20)
(0.992883 0.000533625 0)
(1.12079 0.0967094 -2.02817e-20)
(0.987222 5.48116e-06 0)
(0.711691 0.051928 0)
(0.921078 0.0380604 0)
(1.0228 0.0235571 8.49806e-21)
(0.115078 0.0304911 0)
(0.999731 0.000873268 -1.12959e-21)
(0.0262394 0.00841727 3.4292e-20)
(1.0122 0.00645595 -4.68081e-21)
(0.977199 0.0569284 -1.06311e-21)
(1.02608 0.0223903 0)
(1.0674 0.112067 2.71658e-21)
(1.00162 0.0010626 -2.88708e-22)
(1.03387 0.0921213 4.05654e-21)
(0.401425 0.0576514 9.9272e-21)
(1.00759 0.00786256 2.56048e-21)
(1.10946 0.050306 -4.39135e-22)
(1.10344 0.112093 -4.48862e-20)
(0.769563 0.0987145 -4.26017e-21)
(0.249957 0.0231347 -3.18221e-20)
(1.02007 0.0153407 0)
(1.098 0.074526 3.22467e-20)
(0.536439 0.0515642 1.30761e-21)
(0.534531 0.0764572 0)
(1.02072 0.00325083 -1.71054e-22)
(0.989354 0.000122564 1.20526e-22)
(0.43984 0.0641085 2.9613e-20)
(0.992553 0.000419202 2.10422e-22)
(1.10974 0.0979958 0)
(0.588097 0.00186443 0)
(0.128099 0.0285584 5.12237e-21)
(0.141191 0.0281054 0)
(1.01981 0.00218191 -1.57097e-20)
(1.02366 0.00144817 0)
(0.992643 0.000764335 -5.888e-22)
(1.02099 0.00126285 0)
(1.02168 0.00320062 0)
(1.02597 0.0259465 4.48472e-21)
(0.812596 0.00636011 1.13852e-22)
(0.715465 0.0675212 -5.41551e-22)
(0.851885 0.0147552 1.66209e-21)
(0.302941 0.0529157 -2.93767e-20)
(0.0958902 0.00756369 0)
(0.0559451 0.0062362 0)
(1.12227 0.0964494 0)
(1.01761 0.0186199 0)
(0.339356 0.0655852 0)
(0.779119 0.102254 0)
(1.01037 0.00738628 -4.13628e-21)
(1.02603 0.0575376 -3.12324e-22)
(0.0668194 0.00846578 -1.17406e-20)
(1.0224 0.0949104 -3.3832e-21)
(1.02299 0.0264897 4.86495e-21)
(0.518876 0.0182982 -1.827e-21)
(1.03868 0.036059 0)
(1.02724 0.0498655 0)
(0.437275 0.0757598 4.86392e-20)
(1.00638 0.00837886 1.09158e-21)
(0.653092 0.0890778 5.43896e-21)
(0.465157 0.0748698 -3.19594e-20)
(0.900087 0.0876744 -3.43382e-21)
(0.0158023 0.00673632 -3.47566e-20)
(0.859461 0.00142021 -3.48305e-23)
(1.0065 0.00839544 0)
(0.283078 0.053272 -2.92911e-20)
(0.995047 0.00058252 0)
(1.1178 0.0851478 3.00521e-20)
(1.102 0.108332 -1.18208e-20)
(1.0768 0.111233 1.42831e-20)
(-0.0535238 -0.00143559 1.40195e-20)
(1.0224 0.0262812 -3.40145e-21)
(1.03636 0.037176 1.08714e-20)
(0.673601 0.00372212 -1.4279e-21)
(1.05044 0.0446508 9.84107e-21)
(1.02369 0.00404982 0)
(1.01793 0.0193288 -2.67044e-21)
(0.992773 0.000456278 -2.17345e-22)
(0.990578 0.000273747 -1.14106e-22)
(0.0612097 0.00792839 0)
(1.02912 0.000889581 0)
(1.01794 0.0192697 -8.6081e-23)
(0.98991 0.000237568 -1.26542e-23)
(1.11746 0.109229 2.19885e-20)
(0.673191 0.0195965 -1.47143e-22)
(1.09707 0.0888142 4.28195e-20)
(1.06899 0.0517568 2.05585e-20)
(0.671365 0.00743234 6.10363e-22)
(0.809735 0.00666264 1.30499e-22)
(1.04797 0.014486 -2.81599e-20)
(1.06141 0.0847879 -4.80312e-22)
(0.992534 0.000479214 3.86108e-22)
(1.00724 0.00759254 2.49004e-21)
(1.02711 0.0264538 3.62397e-21)
(0.989832 0.000173014 0)
(1.02329 0.00612508 6.11945e-21)
(1.1027 0.0875217 -3.76762e-20)
(0.402653 0.0343471 0)
(-0.012505 -0.0221673 -1.42899e-21)
(1.07255 0.0147885 2.15478e-20)
(1.00324 0.00111029 0)
(1.1232 0.112074 -7.25732e-21)
(0.606377 0.0412465 3.74818e-21)
(0.81625 0.0174179 -7.58999e-22)
(1.06683 0.10208 0)
(1.11948 0.0858165 -3.56443e-21)
(1.02269 0.0602658 -4.35884e-22)
(0.788715 0.0255126 1.56781e-21)
(1.03141 0.0165011 1.82124e-23)
(0.546758 0.076754 1.47635e-20)
(1.03351 0.0226127 -1.89936e-23)
(1.02396 0.0594447 -4.94602e-22)
(0.483544 0.0782791 4.17186e-20)
(0.467764 0.0784433 0)
(0.773164 0.103179 1.95341e-20)
(1.02103 0.00439318 0)
(0.990668 0.000281473 -6.96388e-23)
(0.284165 0.0626909 1.06315e-20)
(1.05325 0.072612 -6.7256e-21)
(1.02639 0.0221487 -2.16279e-21)
(1.02322 0.00408865 0)
(1.05212 0.0761241 0)
(1.02565 0.0260934 -4.63992e-21)
(0.949845 0.0184942 0)
(1.01637 0.00520348 0)
(0.354614 0.016053 1.85417e-22)
(0.103627 0.028413 0)
(0.990926 0.000301843 8.09081e-23)
(1.03111 0.0809801 2.53109e-21)
(0.834527 0.0926935 0)
(0.44478 0.076439 0)
(1.02131 0.0259242 0)
(1.02009 0.0202821 1.14702e-22)
(0.546345 0.0869659 -1.24259e-20)
(1.00394 0.000962786 0)
(0.988545 -7.0615e-05 2.00439e-23)
(1.03992 0.0526526 0)
(0.9893 0.000118572 2.69148e-22)
(0.254763 0.0616066 -2.16236e-20)
(0.239465 0.0200241 2.18243e-20)
(1.02875 0.0315514 0)
(1.11577 0.0614918 5.16567e-20)
(1.02053 0.0209273 1.23587e-22)
(1.01693 0.0160877 0)
(0.855127 0.00621573 8.87135e-23)
(1.09557 0.0881001 -5.52786e-20)
(-0.00367373 -0.0454302 -1.25127e-20)
(1.00384 0.000949622 -1.13803e-22)
(0.733183 0.0871488 -1.011e-21)
(0.989747 0.000139163 -2.33288e-22)
(0.98846 -3.11585e-06 3.59754e-22)
(0.546627 0.081324 -2.02942e-20)
(0.0313457 0.00837824 0)
(0.103889 0.00902397 0)
(0.829828 0.103717 0)
(1.02659 0.0256061 3.53053e-21)
(0.465086 0.0763282 -4.69627e-20)
(1.01148 0.00656626 0)
(1.02961 0.0800963 0)
(0.178828 0.0247197 -1.37037e-20)
(0.179337 0.0282785 -2.82164e-20)
(-0.0372123 0.0113989 3.76951e-20)
(1.1002 0.110688 3.43873e-20)
(1.00459 0.00693153 0)
(0.987964 -4.79449e-05 -1.1531e-22)
(1.12472 0.109095 -3.22346e-21)
(0.180803 0.000757915 -2.31859e-22)
(0.916317 0.0152469 0)
(1.08231 0.038953 1.27584e-20)
(0.997889 0.000983355 0)
(1.10165 0.0882185 4.4929e-20)
(0.454341 0.080353 1.63772e-20)
(0.287054 0.0215805 -2.63282e-22)
(1.05068 0.0322888 3.18423e-20)
(1.01182 0.00747411 5.03952e-22)
(0.989726 0.000103042 4.26682e-22)
(0.966866 0.0196684 5.04442e-24)
(-0.00343416 0.00582153 3.7378e-20)
(0.818816 0.0109138 0)
(0.801956 0.00542473 2.22226e-22)
(1.02431 0.00547238 3.53288e-23)
(-0.0347447 0.0389661 -1.41653e-20)
(1.02594 0.00394073 6.55658e-21)
(1.01877 0.0198394 2.06867e-21)
(1.02051 0.00242492 1.07847e-20)
(0.469591 0.0815034 0)
(1.07872 0.0948369 2.94746e-20)
(1.02141 0.0266423 0)
(0.797046 0.0154964 -3.07062e-22)
(1.0109 0.00766853 1.4489e-20)
(1.08096 0.0376192 3.74182e-20)
(0.0534002 0.00644311 0)
(1.0314 0.0473231 1.777e-21)
(-0.0511876 0.0176586 7.78869e-21)
(1.00422 0.0066927 0)
(0.992515 0.000651669 -1.76018e-21)
(0.988148 9.68331e-05 3.65406e-23)
(1.03114 0.0482995 0)
(1.06463 0.0934456 8.86284e-21)
(1.00732 0.0559954 -4.7584e-22)
(1.05333 0.0826956 0)
(0.264251 0.0267413 -2.6576e-20)
(1.07666 0.0793274 -9.76943e-21)
(0.646638 0.0618773 6.22701e-22)
(1.02679 0.026658 5.16478e-21)
(0.752319 0.099574 0)
(1.00831 0.00873684 -2.65112e-21)
(1.02133 0.0276836 0)
(1.04022 0.00879637 -7.14293e-21)
(-0.0304363 0.0387696 9.39797e-23)
(0.62051 0.0883047 -6.034e-21)
(0.163785 0.0113328 1.31022e-20)
(0.955288 0.109014 -1.64668e-20)
(0.997592 0.00086977 4.85434e-21)
(0.989264 4.28607e-05 1.09947e-21)
(0.269893 0.0296249 -2.70438e-20)
(0.807568 0.00472222 0)
(-0.0187272 -0.0290134 1.75223e-20)
(-0.0309562 0.0324016 0)
(1.01842 0.0192009 -6.1918e-21)
(1.03051 0.008695 2.21188e-20)
(0.0556739 0.0597445 1.27749e-20)
(1.02267 0.0323313 -1.35687e-21)
(1.09639 0.0753124 6.42996e-21)
(1.04009 0.0200001 0)
(0.0819488 0.0024045 3.53516e-20)
(1.01109 0.00411795 -1.28212e-22)
(0.93921 0.106856 1.1384e-20)
(1.00193 0.000845759 0)
(1.02536 0.000228769 7.79363e-21)
(0.280191 0.0325765 1.96462e-20)
(1.04957 0.0683514 6.14016e-21)
(0.716432 0.0977381 -9.28551e-21)
(0.553439 0.0851296 -4.54033e-22)
(1.01775 0.0055835 -5.7147e-22)
(1.03926 0.00838394 7.17868e-21)
(0.450045 0.0653121 -1.35002e-20)
(1.0276 0.0747955 1.15053e-22)
(1.02451 0.0421053 1.95186e-21)
(0.998482 0.000900913 -1.1261e-21)
(1.01704 0.0159547 9.12059e-23)
(1.02394 0.00631822 -3.66476e-21)
(1.05089 0.0921487 0)
(0.520333 0.0853783 -6.73956e-21)
(0.930894 0.0145453 -6.04931e-22)
(1.03407 0.00764248 -2.56707e-21)
(1.02295 0.0133443 -1.38889e-20)
(-0.0778869 0.0190639 -3.09939e-20)
(0.999873 0.00133476 2.06015e-21)
(1.02366 0.0121017 0)
(0.650655 0.0870062 2.81164e-21)
(0.989592 0.000202025 -4.29697e-24)
(1.04988 0.0435604 -2.2227e-20)
(1.00918 0.00191421 0)
(1.10537 0.107883 7.99962e-21)
(1.01173 0.0123493 -1.82533e-21)
(1.02105 0.0227797 -4.82046e-22)
(0.465571 0.0740359 0)
(0.99469 0.000761354 -2.38636e-21)
(0.235385 0.0545189 0)
(1.06778 0.0251863 -1.93474e-20)
(0.849551 0.10372 -3.07161e-20)
(1.01916 0.00351493 9.99583e-21)
(1.03222 0.0226898 0)
(0.163006 0.0303896 3.61431e-20)
(0.67245 0.0103677 2.2935e-21)
(0.488551 0.0774492 0)
(1.01573 0.00518492 0)
(0.874922 0.0384273 -1.20213e-21)
(1.01148 0.00152981 -1.40589e-22)
(1.03135 0.0169307 -5.74603e-21)
(0.718304 0.0947732 -1.46279e-20)
(0.996286 0.00156658 1.02995e-21)
(1.03461 0.00265357 2.46093e-20)
(1.02416 0.00192331 0)
(1.03499 0.00304171 -2.28844e-20)
(0.494032 0.077296 -2.16223e-20)
(1.01981 0.019472 -2.60223e-21)
(1.05132 0.0308166 -1.0212e-20)
(1.03681 0.0899996 -1.27716e-21)
(0.990626 0.000256702 5.60344e-22)
(0.505321 0.0769246 2.06295e-20)
(1.01726 0.0180282 -2.13086e-21)
(0.0603167 0.0430181 2.04235e-21)
(0.996232 0.0013667 -3.43131e-21)
(1.0238 0.05768 4.97805e-23)
(0.408416 0.0581532 -9.62686e-21)
(0.978022 0.109326 -1.80008e-20)
(0.779799 0.00420913 3.34717e-22)
(1.04731 0.0138815 0)
(0.533326 0.0827228 3.73304e-20)
(-0.0258173 0.0298054 0)
(0.533416 0.0760046 7.45414e-21)
(1.00037 0.00403665 -5.61081e-21)
(1.0217 0.0296373 0)
(1.02213 0.0263655 0)
(1.00509 0.00222376 -5.37324e-22)
(1.00461 0.00211881 5.90505e-22)
(1.01014 0.00762455 0)
(0.290717 0.035665 2.31623e-20)
(0.845728 0.101855 8.37788e-21)
(1.02173 0.0256418 2.79868e-21)
(1.1058 0.0870254 0)
(1.03059 0.0214417 -9.81998e-21)
(1.02089 0.0221611 3.54397e-22)
(-0.0649076 0.00468843 2.90585e-20)
(1.12851 0.112526 0)
(1.04982 0.0301923 0)
(1.09022 0.0266714 2.13969e-20)
(0.822276 0.0552601 0)
(0.791884 0.0992039 -2.0297e-20)
(0.995402 0.000950738 0)
(1.0004 0.00415156 2.83234e-21)
(0.850314 0.102701 0)
(1.02268 0.0317638 1.16398e-21)
(0.553216 0.0772034 -1.37772e-20)
(0.885501 0.104658 3.73797e-20)
(1.02711 0.0427829 -2.10015e-21)
(1.05403 0.0427809 0)
(0.988692 7.35246e-05 -1.00725e-21)
(0.848366 0.00738855 -1.04815e-22)
(0.988856 9.33951e-05 -3.65673e-22)
(0.997341 0.000856852 -2.34649e-21)
(1.09146 0.0746707 -2.47455e-20)
(0.259268 0.0314147 1.40847e-20)
(0.988566 7.04241e-05 -3.36527e-22)
(1.01183 0.0122437 0)
(0.994618 0.000771751 -4.2926e-21)
(0.994407 0.000949386 4.0402e-22)
(1.08708 0.0846519 1.258e-20)
(1.00169 0.00082454 0)
(1.03122 0.00125284 0)
(0.433931 0.0636276 -1.37052e-20)
(0.423853 0.0719008 6.27684e-21)
(1.01548 0.0633066 -4.25801e-23)
(0.829861 0.00545042 -2.49592e-23)
(0.243801 0.0245793 2.4817e-20)
(1.01134 0.00678973 0)
(1.04627 0.0529286 0)
(0.21097 0.0281865 7.9791e-21)
(1.0343 0.0337669 0)
(1.06946 0.0137544 0)
(0.444472 0.0798701 -1.20634e-20)
(0.99857 0.00105112 -6.18498e-21)
(1.10148 0.105257 2.98036e-20)
(0.842539 0.102172 -7.79945e-21)
(1.07581 0.0655842 3.0664e-20)
(0.997895 0.00295189 9.32355e-22)
(1.0255 0.00351264 6.31826e-21)
(1.02019 0.0139436 -8.78074e-23)
(1.02694 0.0254301 0)
(1.0685 0.103612 -6.58205e-22)
(1.0203 0.0143113 -2.10568e-22)
(1.02218 0.0260831 3.44901e-21)
(0.779172 0.00373455 9.02692e-23)
(0.678556 0.00682589 1.14042e-21)
(1.04299 0.0695894 -4.89826e-21)
(1.08794 0.0860387 -4.40598e-20)
(0.995727 0.00105196 -1.04423e-21)
(0.743137 0.100406 0)
(1.02089 0.00352935 0)
(1.03871 0.0524929 0)
(0.125644 0.0305523 0)
(0.303299 0.0616238 -2.13948e-21)
(1.01203 0.00672552 2.67051e-21)
(1.13208 0.0811681 0)
(0.0508936 0.00825482 6.30951e-20)
(1.00484 0.0011576 -1.13821e-22)
(1.04007 0.0400901 0)
(1.03761 0.0368488 -1.83111e-20)
(1.04415 0.026363 -1.27927e-20)
(0.953494 0.108528 1.74357e-20)
(0.745079 0.100344 0)
(1.08795 0.0816736 -2.56244e-20)
(1.01836 0.00552929 -8.74081e-23)
(1.0028 0.000881759 -1.88529e-22)
(1.04208 0.018557 1.34547e-20)
(0.987877 8.05878e-05 -7.45435e-22)
(0.991278 0.000180818 2.23293e-21)
(1.06416 0.0239142 -2.41773e-20)
(1.02029 0.0201352 1.38441e-22)
(0.479022 0.013441 2.11375e-21)
(-0.0567355 -0.00176138 0)
(1.0126 0.00724712 0)
(-0.0337986 0.0254239 0)
(0.529329 0.0264427 -3.60667e-21)
(0.226464 0.0676718 0)
(1.07905 0.0663527 0)
(1.01087 0.00153699 1.30913e-22)
(0.350095 0.0667512 4.3913e-21)
(0.796058 0.099639 3.08821e-20)
(-0.0707601 0.00825047 -1.77233e-20)
(1.00965 0.0211563 -6.15566e-22)
(1.08254 0.0243365 -2.15633e-20)
(1.05472 0.0911849 0)
(0.39432 0.0582722 0)
(1.05625 0.0513815 1.54395e-20)
(0.988951 -4.47927e-05 -6.15765e-22)
(1.02643 0.0245513 0)
(0.988859 6.12077e-05 0)
(0.933736 0.110738 0)
(1.0516 0.0727919 1.48107e-20)
(1.01728 0.0179199 2.71863e-21)
(1.02667 0.0415856 3.44406e-21)
(-0.0859154 0.0179546 -1.08717e-20)
(0.711627 0.100427 0)
(1.00526 0.00104567 -1.15247e-20)