/*--------------------------------*- C++ -*----------------------------------*\
| =========                 |                                                 |
| \\      /  F ield         | OpenFOAM: The Open Source CFD Toolbox           |
|  \\    /   O peration     | Version:  v2012                                 |
|   \\  /    A nd           | Website:  www.openfoam.com                      |
|    \\/     M anipulation  |                                                 |
\*---------------------------------------------------------------------------*/
FoamFile
{
    version     2.0;
    format      ascii;
    class       volVectorField;
    location    "400";
    object      ddt0(U);
}
// * * * * * * * * * * * * * * * * * * * * * * * * * * * * * * * * * * * * * //

dimensions      [0 1 -2 0 0 0 0];


internalField   nonuniform List<vector> 
15335
(
(1.44045e-05 -9.48276e-06 2.47692e-23)
(2.26879e-05 3.09415e-05 -8.27597e-23)
(0.000194616 -0.000133039 0)
(-9.25726e-08 -4.27962e-09 2.48719e-23)
(-1.75916e-06 -3.81884e-07 -2.54973e-23)
(-4.43403e-08 2.39334e-09 -3.40654e-23)
(3.05802e-05 -6.97507e-05 0)
(-8.59544e-08 4.08412e-09 5.1429e-24)
(-4.26321e-08 1.11336e-07 2.37043e-23)
(-1.76062e-07 -5.35573e-07 0)
(4.49084e-09 3.73683e-07 -1.72526e-23)
(-5.30896e-08 -1.2579e-08 0)
(4.86962e-06 -0.000101453 -1.1468e-23)
(1.41571e-05 2.88672e-05 0)
(8.51841e-06 -2.22813e-06 0)
(7.65273e-07 4.28136e-07 6.44917e-25)
(-5.82294e-06 4.03854e-05 3.99603e-23)
(-0.000273477 -0.000103026 0)
(-6.99671e-08 -5.87975e-08 -2.00709e-23)
(3.47137e-06 1.36731e-07 3.70463e-23)
(-6.29204e-08 1.18216e-07 -1.602e-23)
(-0.000293301 0.000697579 -6.621e-23)
(-4.3532e-06 -5.80369e-06 -5.28453e-23)
(-7.17617e-08 1.44932e-07 0)
(0.00016865 -0.000152671 3.09773e-23)
(-1.60839e-05 -1.03972e-05 0)
(8.55769e-05 -4.77639e-06 0)
(-1.44296e-07 5.99775e-08 9.31012e-24)
(1.12343e-05 -5.1303e-07 2.58687e-23)
(0.000181462 -0.00010922 0)
(2.58756e-08 1.41543e-07 -7.26841e-24)
(6.56123e-05 7.74927e-06 0)
(3.55084e-08 1.08499e-08 0)
(-1.04701e-05 2.11358e-05 0)
(5.88886e-05 5.71402e-06 0)
(2.49444e-05 5.23555e-05 -3.81598e-23)
(-2.48405e-07 -5.16763e-07 0)
(2.92091e-05 2.26829e-05 2.52559e-23)
(9.25456e-06 3.01934e-05 1.26914e-23)
(-0.000277456 -6.64159e-05 0)
(-1.16991e-07 -1.95653e-08 3.4831e-23)
(-6.32612e-05 -3.52191e-05 -1.8816e-23)
(-8.51929e-10 6.92327e-08 -4.23259e-24)
(2.28382e-05 -3.47436e-05 -4.60479e-24)
(-4.36662e-05 2.08341e-05 -8.55962e-24)
(-1.24474e-07 3.79923e-08 8.81941e-24)
(-5.98745e-06 -6.67812e-08 5.14696e-23)
(1.38116e-07 2.59801e-08 -7.63268e-26)
(1.51994e-05 1.18347e-06 -5.29476e-23)
(-1.21876e-07 2.3501e-09 0)
(-1.00264e-07 1.45706e-07 -7.8152e-24)
(1.27091e-07 1.45517e-07 1.24653e-23)
(6.73556e-07 -4.53246e-07 7.84221e-25)
(-3.48376e-05 -1.96172e-05 1.93353e-23)
(0.000322881 -0.000263842 7.45038e-23)
(-5.31528e-05 -1.00246e-05 -4.2455e-24)
(0.000172511 -4.81628e-05 0)
(-1.37319e-05 -4.92859e-05 0)
(3.45617e-05 3.00339e-05 2.10479e-23)
(-0.000112971 4.008e-06 9.59961e-23)
(1.64898e-05 3.27946e-05 8.0015e-23)
(1.83511e-06 4.7798e-06 0)
(6.86541e-07 -5.05661e-07 1.26618e-23)
(3.70654e-07 5.50864e-06 -3.26076e-24)
(-1.54635e-06 -3.48338e-07 -2.10049e-23)
(-3.15601e-05 0.000121326 3.01637e-23)
(-1.16516e-05 4.9597e-05 -4.99578e-24)
(7.08952e-08 -5.29262e-08 -4.54527e-23)
(7.60924e-06 1.29112e-05 -1.16182e-23)
(4.41832e-08 6.12894e-08 0)
(3.9974e-06 -1.90647e-05 2.92206e-23)
(-3.58559e-06 -5.38843e-06 3.9494e-23)
(4.69655e-07 -4.93354e-08 -2.97102e-24)
(-9.61945e-07 8.3254e-05 -4.65949e-25)
(-1.52053e-06 -2.15741e-06 3.11989e-23)
(0.000155268 0.00014078 0)
(-7.93977e-06 3.41207e-05 2.32078e-23)
(4.15005e-08 8.46917e-09 -1.10097e-24)
(-5.98403e-08 3.31146e-09 -1.76227e-24)
(2.32948e-05 4.86498e-05 3.59409e-23)
(-3.90434e-05 -5.29912e-05 -9.64923e-23)
(-5.9672e-08 7.15038e-06 3.11649e-23)
(-1.76164e-07 7.81078e-06 0)
(-7.81546e-06 3.51413e-05 -3.96983e-25)
(7.71344e-06 3.24743e-06 -2.77731e-23)
(0.000709119 -0.000354375 -3.18474e-23)
(-6.08509e-07 5.94931e-06 -7.58335e-24)
(8.00723e-05 -2.78416e-06 0)
(-5.50243e-08 -1.06766e-08 2.23412e-23)
(-2.50206e-05 -1.78651e-05 -2.46833e-23)
(5.3935e-05 -3.25963e-06 -2.05647e-25)
(2.80366e-05 -0.000110043 -3.43338e-23)
(2.34498e-05 0.000100112 -8.66218e-25)
(-8.61908e-05 7.40344e-05 5.62249e-23)
(3.08634e-06 1.02357e-07 -3.5904e-23)
(-6.04783e-06 3.58836e-05 -3.13795e-23)
(2.61686e-08 6.14419e-08 0)
(-3.22535e-05 0.000122564 7.67233e-23)
(5.37842e-08 1.34654e-07 0)
(-1.35321e-05 0.000112365 1.06769e-22)
(2.20566e-08 7.01209e-08 4.29848e-24)
(-4.09662e-06 1.13329e-05 3.19759e-23)
(1.01289e-05 4.40943e-05 0)
(9.00273e-07 5.17064e-07 1.70172e-25)
(2.36835e-09 1.43824e-08 0)
(3.31287e-08 6.06924e-08 4.30197e-24)
(3.68611e-05 0.000153932 8.64769e-24)
(3.46181e-06 -2.08166e-06 0)
(-5.38351e-06 -1.05509e-06 -8.16167e-24)
(1.01871e-05 4.30913e-05 0)
(6.64126e-10 1.95957e-09 0)
(1.7466e-05 -2.53765e-05 -6.39627e-24)
(0.00012543 -7.5838e-05 0)
(-8.3094e-08 -1.34879e-09 0)
(-8.14676e-08 1.86216e-09 -1.05553e-23)
(-1.16964e-07 4.07654e-08 -1.82196e-23)
(1.17631e-05 -4.2071e-05 -8.91656e-24)
(-5.46057e-08 3.05503e-10 -6.85692e-24)
(-3.88564e-05 -0.000118751 9.43287e-23)
(9.65941e-05 4.52532e-06 -1.87577e-23)
(-3.86047e-06 9.32502e-06 -2.0192e-23)
(4.81393e-05 -5.88253e-05 -7.77287e-23)
(-9.2844e-06 0.000118728 2.12907e-23)
(-6.09494e-08 -4.69098e-08 0)
(5.45851e-05 1.08986e-05 -1.3646e-23)
(-1.02126e-07 2.54116e-08 -9.1141e-24)
(-6.1893e-09 -1.12966e-07 0)
(-0.000296788 0.000665089 0)
(5.64648e-05 1.63681e-05 1.05391e-23)
(-5.25869e-06 2.13823e-06 6.38107e-24)
(-1.42235e-07 -2.83323e-08 1.58866e-23)
(4.6374e-05 -6.5685e-05 1.04751e-22)
(-3.23431e-08 3.38172e-09 -2.55301e-23)
(2.61351e-05 -1.67457e-07 0)
(3.4086e-07 -3.12567e-07 1.19425e-23)
(1.04735e-05 0.000114073 -1.77975e-23)
(1.33657e-06 5.92407e-07 -6.5321e-24)
(4.47855e-08 6.18165e-08 -4.21995e-24)
(4.84571e-06 3.85134e-05 0)
(-8.77403e-06 1.74503e-05 5.22655e-24)
(7.88314e-08 5.28856e-07 0)
(-8.09136e-05 -0.000466509 -7.0065e-24)
(-9.98434e-08 -1.54273e-08 0)
(-2.67469e-05 -1.60048e-05 1.21146e-25)
(4.736e-05 0.000147431 2.2775e-23)
(4.53711e-08 8.97015e-07 -4.11281e-23)
(5.3125e-05 0.000158711 8.09973e-24)
(2.6317e-05 -3.04515e-05 1.87812e-23)
(-2.5189e-08 8.21884e-08 1.60371e-23)
(2.57403e-05 -4.87972e-05 -1.24084e-23)
(5.87961e-09 1.52381e-08 2.71541e-24)
(0.000259714 0.000547897 1.40114e-23)
(2.8281e-07 6.53772e-08 1.78718e-24)
(1.64255e-06 1.64718e-06 0)
(-8.09909e-05 -0.000367591 -1.61252e-23)
(9.31142e-07 -6.87263e-08 -1.97289e-23)
(-1.20139e-05 3.58287e-05 -1.41837e-23)
(2.6782e-06 -2.2236e-06 0)
(-1.12531e-07 1.09841e-07 0)
(7.39789e-06 2.46622e-06 2.40222e-23)
(-2.36865e-07 -9.50044e-08 2.28964e-23)
(2.5316e-05 3.99163e-06 -1.32935e-23)
(6.07835e-07 -2.48452e-07 3.57785e-24)
(2.01022e-05 -1.28312e-05 0)
(1.22378e-05 -2.67295e-05 -9.8502e-24)
(-9.81101e-08 -1.60285e-08 2.60563e-23)
(-1.01924e-07 1.75516e-07 -7.45463e-24)
(0.00012903 0.00063199 -5.64032e-23)
(-5.59488e-07 -3.7717e-07 0)
(-4.74935e-08 -1.31524e-08 0)
(-3.6567e-07 -2.51184e-07 3.78949e-23)
(-1.24133e-08 3.39627e-08 1.21157e-23)
(-1.44212e-08 4.47623e-07 2.73339e-23)
(9.88161e-07 1.4953e-07 2.33503e-23)
(-1.27028e-06 -1.16565e-05 -9.93582e-26)
(4.07374e-06 2.18417e-06 8.57129e-24)
(-4.62368e-05 -4.99266e-05 0)
(-4.74326e-07 -4.81174e-07 0)
(-2.83383e-06 3.53643e-05 -1.60894e-23)
(-6.62226e-05 0.000138571 1.02e-22)
(4.79153e-08 5.12119e-07 0)
(9.27182e-05 -2.80672e-05 -1.27868e-23)
(-1.00677e-07 8.79067e-09 0)
(-2.3246e-06 -3.6413e-07 2.48725e-23)
(-2.47906e-06 -1.0575e-07 -2.09617e-23)
(0.000104105 -0.000147115 0)
(-9.7538e-06 3.69852e-05 5.48009e-23)
(8.06565e-05 -4.9513e-05 -2.09946e-23)
(-4.494e-08 8.61543e-10 0)
(7.86714e-05 0.000146844 -4.56175e-23)
(8.24529e-08 1.50497e-08 -6.07205e-24)
(-4.2638e-05 0.000127372 -1.05455e-22)
(1.55582e-05 2.62875e-06 7.60837e-23)
(-1.19748e-07 -2.54588e-09 -1.82146e-23)
(1.09796e-07 2.68062e-07 -3.94469e-26)
(-3.84551e-05 -0.000135442 -8.06699e-23)
(2.88979e-08 4.5229e-07 -2.09066e-23)
(2.29448e-06 6.02163e-06 0)
(1.46331e-05 5.55097e-05 -2.03021e-23)
(0.000258237 2.17838e-05 -4.68845e-24)
(6.40377e-06 6.91205e-05 -5.36764e-24)
(3.68509e-07 -1.25853e-05 -7.59455e-24)
(-1.53021e-07 4.6956e-08 1.54573e-23)
(4.19018e-05 -5.57552e-05 0)
(-9.79314e-06 0.000111956 -1.42235e-22)
(-4.03881e-06 9.89258e-06 -1.36752e-23)
(-0.000142512 -0.000169655 8.5356e-23)
(-5.36007e-08 -5.14799e-08 -1.93366e-23)
(6.94904e-05 3.41207e-06 -8.24023e-24)
(2.50684e-05 1.11215e-05 -1.16775e-22)
(-1.18482e-05 4.22281e-05 0)
(-6.20953e-05 -2.14649e-05 6.25632e-23)
(-1.3174e-07 -1.30169e-08 1.62352e-23)
(3.48984e-05 3.72389e-06 1.38745e-23)
(-2.75611e-05 3.68747e-05 -4.98864e-23)
(2.25996e-06 -9.01996e-06 2.96449e-23)
(-8.39921e-08 -5.16107e-10 0)
(9.68423e-06 1.42165e-05 -1.76269e-23)
(-8.1243e-08 3.98007e-09 1.8879e-23)
(6.08176e-05 0.000305909 -3.90163e-24)
(4.60965e-06 2.42355e-06 -7.51173e-24)
(2.4025e-05 -2.75054e-05 1.93e-23)
(-8.71987e-05 -0.000175858 3.44565e-24)
(-4.20412e-06 3.45587e-05 0)
(-9.37552e-08 6.28992e-09 0)
(-0.00024351 2.80741e-05 8.51978e-24)
(-6.56117e-05 4.88258e-05 0)
(-7.83314e-07 -1.53863e-06 -1.69753e-23)
(2.81766e-05 -6.23199e-05 0)
(1.6e-05 4.25408e-05 0)
(-1.60901e-06 -7.52567e-06 -2.7622e-23)
(9.27259e-05 -0.000157703 0)
(-0.000419856 -6.83133e-05 0)
(5.42321e-06 -3.11101e-06 -4.31024e-23)
(5.60492e-07 1.25015e-07 0)
(5.97052e-07 1.58796e-06 1.99107e-23)
(-1.20037e-07 1.18782e-06 2.23043e-23)
(-9.74814e-05 0.000441592 0)
(7.65762e-05 1.6474e-05 -3.90715e-23)
(-5.78986e-07 -2.72261e-06 2.38418e-26)
(2.82787e-05 -3.89636e-05 5.70706e-24)
(-7.7464e-08 3.41785e-08 2.63124e-24)
(1.83483e-05 5.17902e-06 -1.02438e-23)
(1.62704e-07 -3.39828e-07 -3.0193e-23)
(3.93072e-06 1.70424e-05 9.52526e-23)
(-4.02803e-06 6.38884e-07 -1.2982e-23)
(-2.22429e-05 9.47983e-05 2.80685e-24)
(1.17684e-06 -9.7162e-06 0)
(0.000157217 -0.000516334 0)
(-9.38386e-05 7.49969e-05 -2.37172e-23)
(1.6687e-06 1.33183e-06 -2.76928e-23)
(-2.61419e-07 2.22766e-07 -7.51032e-26)
(0.00010236 8.47483e-05 2.3728e-23)
(1.55786e-05 -1.05591e-05 0)
(-1.24285e-07 7.02381e-09 0)
(-0.000242438 0.000643769 1.32196e-23)
(-1.25288e-06 -1.74759e-06 1.57562e-23)
(-2.98034e-08 -7.77602e-09 -8.37878e-25)
(-0.00011549 -0.000158551 -2.12546e-23)
(-1.02316e-07 1.19856e-08 0)
(-7.00877e-05 2.42928e-05 0)
(-0.000143693 0.00026723 5.16124e-24)
(9.80573e-05 1.89719e-05 -1.80741e-23)
(0.000282867 3.89487e-05 -9.69809e-24)
(2.72315e-05 0.000176142 0)
(-0.000428309 -1.84256e-05 -4.99739e-23)
(-0.000129723 -0.000352996 -1.71589e-23)
(3.18699e-09 -1.5649e-09 -1.03549e-23)
(-3.46854e-05 4.16992e-05 5.13759e-23)
(-1.22584e-08 3.37813e-07 -2.14748e-23)
(-0.000178217 -3.25139e-05 -1.08646e-22)
(4.04668e-07 2.05556e-07 1.4629e-24)
(-3.92976e-05 -6.28449e-05 1.04953e-22)
(4.8393e-07 -4.01412e-07 -1.2305e-23)
(1.90927e-06 1.86834e-07 1.2078e-23)
(-0.000437866 -5.64433e-05 -7.59868e-24)
(-0.000157798 1.86105e-05 0)
(1.68901e-05 2.91989e-05 0)
(1.19492e-07 2.46867e-07 3.65346e-23)
(6.96744e-06 9.97167e-05 8.47717e-23)
(-1.48272e-07 3.5132e-08 4.55228e-24)
(-6.15087e-09 -1.12734e-07 2.55816e-23)
(1.75299e-06 -7.33575e-07 -8.12536e-25)
(-4.63471e-08 1.72531e-07 1.91832e-23)
(-0.000168136 -5.29282e-05 -2.96465e-23)
(-5.63439e-08 8.61999e-08 -3.31225e-23)
(8.47913e-06 3.357e-06 0)
(-8.69849e-08 -1.21728e-08 -1.38048e-23)
(0.000216957 2.01515e-05 0)
(1.87233e-06 1.78828e-06 -3.18891e-23)
(0.000100666 7.73349e-05 0)
(-1.05652e-06 6.5017e-07 0)
(-7.1324e-08 1.63771e-07 2.18109e-23)
(-4.45801e-08 7.95389e-08 -2.8643e-23)
(-6.3761e-05 3.56351e-05 8.29593e-23)
(2.6542e-06 -9.54339e-07 8.31052e-24)
(1.69649e-07 -2.33575e-07 -6.05164e-23)
(-1.21859e-07 1.49693e-07 -7.73299e-24)
(-9.45806e-09 3.30865e-07 2.05272e-23)
(1.80752e-06 -8.83892e-07 -1.22407e-23)
(0.000170864 -0.000113268 4.47805e-24)
(-3.97117e-05 3.41694e-05 0)
(-5.13788e-05 0.000421831 -1.95519e-23)
(8.57076e-05 -9.3345e-05 1.16618e-23)
(0.000586784 0.00055749 5.63416e-23)
(-1.5933e-07 2.11716e-08 -6.0355e-24)
(-1.56885e-07 5.27371e-08 0)
(0.000201668 5.97935e-05 -7.9862e-25)
(-0.000460773 -1.83884e-05 0)
(-6.01203e-05 6.16657e-05 0)
(-0.000130075 5.1403e-05 1.78121e-23)
(3.21486e-07 7.69506e-07 5.04592e-25)
(-0.000150113 -1.98359e-05 -4.79328e-23)
(-3.328e-05 -5.83e-05 -1.07422e-22)
(-1.2253e-07 3.94811e-08 1.74999e-23)
(1.27503e-05 -1.53768e-05 0)
(-7.21705e-07 7.48109e-07 -9.35227e-24)
(-8.45956e-07 7.07792e-08 -1.1657e-23)
(-6.04696e-09 3.89409e-07 -4.98591e-24)
(-1.12283e-07 9.54975e-10 -1.013e-23)
(-4.9645e-08 -2.26359e-08 1.57871e-23)
(-8.95855e-08 2.39169e-09 0)
(-0.000510605 0.000502397 0)
(-4.32826e-05 -0.000247694 -6.39141e-24)
(2.66971e-06 -1.34182e-06 0)
(-1.06654e-05 0.000117984 -6.77293e-23)
(-0.000256676 -5.20247e-05 0)
(-8.75107e-07 -9.52231e-08 -1.22556e-23)
(5.02153e-08 1.08326e-06 -1.85944e-23)
(7.91324e-07 1.08306e-06 -4.64455e-24)
(-1.17857e-07 1.70858e-08 0)
(-0.000382878 0.00058922 -3.2576e-23)
(-5.21522e-05 0.000276507 -8.24449e-23)
(-5.54598e-05 -3.59535e-05 5.9724e-23)
(-2.06013e-06 1.50575e-05 -3.42751e-24)
(3.49572e-08 5.56758e-08 -4.42559e-24)
(-4.35113e-08 -3.33204e-09 -2.6043e-23)
(1.458e-06 1.2006e-06 0)
(1.85879e-05 3.2885e-05 0)
(-0.000100652 8.06447e-05 0)
(6.45987e-06 9.06806e-06 2.29555e-25)
(-2.36344e-06 -3.79134e-05 0)
(-0.000132282 -4.66702e-05 8.87422e-23)
(6.15485e-06 1.02718e-05 2.40357e-23)
(1.19194e-08 4.74764e-09 1.10084e-24)
(-6.56099e-05 -5.65353e-05 0)
(8.00231e-06 5.16819e-05 1.97184e-23)
(0.000162188 -0.000506081 0)
(-2.90252e-07 -5.35376e-07 -1.97344e-23)
(3.31138e-07 1.09608e-06 8.46163e-23)
(-6.69065e-05 -8.68906e-05 1.64791e-23)
(-8.91824e-07 5.96782e-07 0)
(-7.92158e-08 4.96392e-09 6.51726e-24)
(9.20491e-05 -0.000530912 2.01316e-23)
(-0.000106566 0.000622431 2.22761e-23)
(3.42217e-07 -3.85774e-07 4.22435e-24)
(1.18261e-05 -4.15595e-06 0)
(2.85324e-07 1.00194e-06 0)
(-4.53431e-08 9.12259e-09 -2.83742e-23)
(0.000154663 9.13581e-05 -1.98219e-23)
(-6.13602e-08 -1.83823e-08 -1.19723e-23)
(-1.14636e-07 1.45527e-08 0)
(-1.32578e-06 -2.96641e-06 0)
(-5.05479e-08 1.50001e-09 0)
(-2.16282e-05 9.83083e-05 9.8395e-24)
(-2.93199e-07 -1.74883e-05 -1.01416e-23)
(5.69312e-08 9.63023e-07 2.16199e-23)
(-1.8163e-08 4.36809e-07 3.04412e-23)
(1.62547e-05 -2.96569e-07 -4.10765e-23)
(-1.51522e-08 1.20557e-08 -2.30166e-23)
(8.63814e-06 -4.79606e-06 0)
(-1.84042e-08 9.32683e-09 0)
(4.66698e-06 -2.89642e-06 0)
(-8.24227e-08 -1.68879e-08 -9.20751e-25)
(6.55822e-08 6.70188e-08 0)
(-1.18512e-07 4.18971e-08 8.38605e-24)
(2.69574e-07 -2.57447e-09 -5.16328e-25)
(2.92356e-07 5.35604e-08 -6.11607e-25)
(-3.77742e-08 -5.92781e-08 -1.79888e-23)
(-8.57789e-05 -8.2119e-05 -6.37286e-23)
(4.23662e-05 -0.000515069 -2.62373e-23)
(5.28341e-05 1.99867e-05 -2.96866e-23)
(-1.84825e-05 4.67328e-05 1.48838e-23)
(1.72464e-05 9.30433e-06 -3.93219e-24)
(-0.000275361 4.05061e-05 7.16905e-24)
(7.71191e-06 1.13593e-05 -1.34771e-23)
(-1.4038e-07 -3.8173e-11 -3.3918e-23)
(-0.000239343 0.000123853 8.90569e-23)
(-3.93394e-07 7.68719e-07 3.6888e-23)
(-1.17902e-07 1.01775e-07 -1.63048e-23)
(-8.19565e-09 3.43478e-07 1.2239e-23)
(1.67231e-05 -1.24775e-05 0)
(8.79001e-08 1.65959e-07 0)
(2.8321e-07 1.02312e-06 -8.00507e-23)
(-0.000190089 0.000379838 0)
(-3.18351e-06 -4.49429e-06 3.77482e-23)
(-4.20487e-08 -1.50191e-08 0)
(2.77737e-07 3.20071e-08 0)
(-3.18873e-08 -1.48545e-09 3.99444e-26)
(-0.000241966 0.000120005 -1.07309e-22)
(8.90636e-06 -3.21957e-06 -5.27236e-23)
(-6.67241e-06 9.17447e-05 1.05432e-24)
(1.41031e-05 -1.29097e-05 0)
(-1.81451e-07 1.18548e-08 0)
(3.75574e-08 -2.24827e-08 2.62012e-23)
(3.07187e-05 -2.04087e-05 7.30229e-23)
(-2.97044e-08 1.32426e-08 1.08099e-23)
(4.71916e-09 2.6139e-07 4.26409e-23)
(0.000140584 -7.61872e-05 0)
(-4.95621e-09 1.61175e-08 2.46425e-23)
(-1.93731e-07 3.97566e-08 -4.62851e-26)
(1.88512e-07 1.60335e-07 3.55598e-23)
(-6.0336e-08 -1.46005e-08 2.60967e-25)
(2.15033e-07 -1.8532e-07 3.29387e-23)
(-4.24361e-05 2.6206e-05 -2.55134e-23)
(-1.19795e-07 4.14346e-08 9.3195e-24)
(-1.85302e-08 1.71634e-09 4.7146e-23)
(-3.80941e-06 8.96111e-08 0)
(6.60969e-07 -1.00594e-07 2.04561e-23)
(-2.91187e-06 -6.02424e-06 3.84305e-23)
(8.90787e-06 2.33933e-05 0)
(-1.91125e-07 7.91969e-09 3.11727e-23)
(-3.94084e-05 8.17529e-05 0)
(-3.01485e-08 -5.46996e-08 -7.39385e-24)
(6.68017e-06 2.54653e-06 -1.15091e-23)
(5.33042e-05 2.96388e-05 -9.04549e-24)
(-8.6922e-08 -5.62993e-08 -6.38344e-24)
(5.91837e-07 -2.47698e-07 -3.42917e-23)
(-1.15906e-07 1.4708e-08 -8.91944e-24)
(-5.1384e-05 8.26396e-05 0)
(-7.52038e-05 1.63117e-06 0)
(2.61287e-06 -6.20852e-05 -8.49317e-24)
(1.35539e-07 1.29979e-08 1.59017e-24)
(4.16059e-06 7.81991e-05 1.06846e-23)
(2.26445e-07 4.60364e-08 0)
(-4.03469e-08 1.21112e-08 0)
(-4.51283e-05 -4.96134e-05 -4.65558e-23)
(7.14453e-06 2.31e-05 6.98518e-25)
(-1.99182e-07 1.74529e-08 -1.57825e-23)
(1.04205e-05 -4.85262e-06 4.3847e-25)
(8.02535e-09 6.52047e-08 -4.42616e-24)
(-4.8554e-07 -4.5087e-07 1.4592e-25)
(-7.28903e-08 7.81488e-09 -8.1638e-24)
(-0.000449534 -4.53604e-05 9.79177e-24)
(5.11252e-07 -3.77851e-07 -5.02444e-24)
(-8.93077e-05 -0.000213979 0)
(-1.67409e-05 -3.26938e-06 -1.84717e-23)
(-5.91092e-08 -1.15943e-08 3.61119e-23)
(2.54131e-06 3.79073e-07 0)
(-1.7408e-05 0.000107844 0)
(-6.90626e-06 5.347e-06 1.47398e-23)
(-5.3519e-05 -5.73128e-05 1.40755e-22)
(-8.54183e-08 -6.00727e-08 0)
(4.21577e-05 2.19488e-06 -8.06552e-23)
(-7.21634e-08 8.94792e-09 9.82826e-24)
(7.8456e-07 -3.81869e-06 0)
(3.71199e-06 8.2262e-06 0)
(-8.44156e-05 5.2581e-05 -2.10881e-23)
(-9.37169e-06 -1.43796e-05 0)
(-3.45382e-08 4.18896e-08 3.65657e-23)
(2.35136e-06 -3.15107e-06 3.41498e-23)
(-6.40919e-06 6.70296e-07 -5.88474e-23)
(-6.89043e-06 -3.32802e-05 0)
(-8.77035e-07 6.59989e-07 0)
(-7.57818e-05 2.67337e-05 0)
(8.30405e-05 -0.000132671 -3.37706e-24)
(-1.08738e-07 9.45785e-10 1.05522e-23)
(1.73172e-06 3.39661e-05 -2.19755e-23)
(5.67073e-07 -3.00259e-07 1.75092e-23)
(1.24581e-07 -8.82477e-08 3.21284e-23)
(-2.22568e-07 -1.15997e-07 -5.21892e-23)
(-2.32392e-05 -4.3591e-05 -5.24391e-23)
(4.28043e-07 7.81603e-07 4.00379e-23)
(5.33922e-05 -0.000212951 -7.67927e-25)
(-9.82982e-08 -2.88914e-07 -3.86393e-24)
(-1.25184e-07 1.78523e-07 0)
(-2.2632e-08 -1.00241e-07 2.69229e-23)
(1.18702e-06 1.8284e-06 0)
(0.000104614 5.29316e-06 1.68971e-22)
(-3.33584e-08 9.84083e-09 0)
(-4.48049e-06 2.53528e-06 3.33856e-23)
(4.38814e-07 -1.05542e-06 -3.01226e-23)
(-5.49721e-07 -1.49314e-06 1.09752e-23)
(-9.36226e-08 -1.29587e-08 -2.58431e-23)
(-7.277e-08 -7.90274e-09 -1.66357e-25)
(6.47691e-05 -0.000518234 0)
(-1.32299e-06 -3.691e-06 -2.70498e-23)
(-4.30667e-07 -4.95741e-07 0)
(-1.73339e-07 6.17128e-08 -7.88449e-24)
(2.12056e-07 -3.50494e-06 -1.16353e-23)
(5.76231e-05 -8.19265e-05 -4.06263e-24)
(3.68571e-05 -9.32008e-05 -3.15434e-24)
(-9.35437e-08 -4.83322e-09 0)
(2.50466e-07 2.79767e-08 -5.04359e-25)
(-1.08034e-05 -3.33345e-05 1.05141e-22)
(5.33593e-05 6.06336e-05 8.87374e-24)
(6.0985e-05 -1.97027e-06 7.10896e-23)
(5.37651e-06 4.93817e-06 7.58335e-24)
(1.05168e-05 -1.50802e-06 0)
(-0.000101176 -4.91681e-05 0)
(5.29312e-06 -2.77004e-05 0)
(-0.000211443 0.000664299 1.80682e-23)
(5.24008e-08 -7.09434e-08 0)
(2.71978e-05 -2.66786e-05 0)
(3.97569e-08 5.57232e-08 -8.42472e-26)
(1.23281e-06 -1.34508e-06 0)
(5.53083e-06 4.31016e-06 0)
(-8.4542e-05 3.32338e-05 0)
(-1.17944e-07 6.47412e-09 2.666e-23)
(-1.13696e-06 -1.25887e-06 3.21777e-23)
(-2.10103e-06 -3.68777e-06 1.83834e-23)
(1.93223e-05 -3.46442e-05 1.36437e-23)
(-2.07196e-06 -0.000156 1.98485e-24)
(-0.000146688 -5.45445e-05 5.89922e-23)
(9.3467e-05 0.00022392 2.1419e-24)
(-5.90255e-09 7.64807e-08 9.36924e-24)
(7.0378e-08 1.75964e-07 1.35832e-23)
(6.1898e-08 2.12505e-08 -7.4605e-26)
(3.31432e-05 4.24426e-05 9.21334e-24)
(-0.000260382 -3.26522e-05 3.50794e-23)
(-0.000158233 6.44244e-06 -7.31511e-23)
(-9.00907e-06 0.000109782 9.59012e-24)
(5.21402e-07 -9.04901e-08 5.05749e-24)
(7.72859e-08 3.98731e-08 0)
(-8.43719e-05 -0.000205275 4.28678e-23)
(-1.0085e-06 -2.08589e-06 -1.09667e-23)
(-6.969e-05 -0.00011827 -8.94737e-24)
(-1.22424e-06 -3.18113e-06 8.84884e-24)
(-4.22017e-08 1.81318e-07 -1.45155e-23)
(-3.04726e-06 -3.92852e-07 2.21439e-23)
(-1.41975e-08 8.04498e-07 -1.12515e-23)
(1.41729e-05 -4.64894e-05 5.33366e-23)
(-5.97856e-05 -1.95978e-05 1.08188e-22)
(-1.2477e-06 -1.653e-06 0)
(-7.34435e-05 -7.4332e-05 5.41371e-23)
(9.04255e-06 9.04299e-06 1.79862e-23)
(0.000164246 -0.000580585 0)
(7.48372e-05 -2.80859e-05 0)
(-1.0322e-07 2.64116e-07 -4.81555e-24)
(1.20314e-06 1.6576e-06 1.20093e-23)
(-0.000138639 -5.78864e-05 0)
(-6.23472e-05 1.23223e-05 -5.38515e-23)
(-2.60367e-08 -3.3526e-09 0)
(-0.00030941 8.65328e-06 -3.20334e-23)
(-3.52453e-08 -4.92889e-08 -9.85188e-25)
(1.00811e-05 -0.000272811 -3.01616e-24)
(-2.44088e-05 6.00169e-05 -2.62458e-23)
(-2.20866e-08 2.79936e-07 0)
(2.45966e-05 2.11586e-05 2.2935e-23)
(-1.79646e-05 -5.43581e-06 2.07347e-23)
(2.71743e-06 1.48186e-05 -8.54303e-24)
(-8.32655e-08 -6.26735e-08 0)
(3.10691e-08 4.8306e-08 0)
(1.17787e-07 1.06325e-07 -2.21706e-23)
(-4.50879e-05 3.06182e-05 -4.61923e-23)
(-0.000323813 2.81215e-05 -2.89207e-23)
(-1.20374e-07 -2.17514e-09 -2.70253e-23)
(-2.29284e-06 -4.35533e-06 -1.88916e-23)
(-7.03244e-08 2.23542e-08 1.94922e-23)
(-0.000465407 -1.64664e-05 0)
(-1.6911e-05 1.24142e-06 0)
(-9.02116e-08 -2.95308e-07 2.56035e-23)
(9.22272e-06 -1.43711e-06 0)
(3.13156e-08 -4.7678e-08 -5.11184e-23)
(0.000451396 -0.000227819 -4.67107e-23)
(5.9259e-07 1.40025e-06 -1.80827e-23)
(-6.8633e-07 6.77283e-06 -1.48739e-24)
(-5.11938e-06 6.39638e-08 0)
(-4.45953e-05 -6.05199e-05 -9.76728e-23)
(-0.000292788 3.87655e-05 8.13169e-23)
(-0.000388991 -8.71882e-05 0)
(-6.01911e-08 -4.13477e-08 -9.57216e-24)
(-6.53768e-08 2.46801e-08 -1.89707e-23)
(3.40669e-05 -1.86971e-05 -8.43428e-23)
(5.87953e-07 4.29078e-08 -2.71113e-23)
(-6.33186e-08 2.56921e-08 1.85783e-23)
(-9.69966e-08 -3.95274e-08 0)
(-7.73805e-08 4.6302e-09 -4.45478e-25)
(9.37214e-08 1.06848e-07 -2.7437e-23)
(-0.000232004 0.000142679 0)
(5.84242e-05 -0.0003127 -1.13175e-23)
(-0.000423133 -3.05845e-05 0)
(8.2841e-06 1.4549e-05 2.02854e-23)
(1.28879e-05 -3.76477e-05 -1.5288e-23)
(1.06026e-05 5.05346e-07 -2.91994e-23)
(-9.53433e-06 0.000157797 -9.59515e-24)
(0.000105653 1.82915e-06 -8.65687e-23)
(-9.09221e-05 0.000148491 2.5472e-23)
(4.59775e-06 -1.98273e-06 -1.2827e-24)
(-1.02828e-07 1.27575e-07 0)
(-1.06239e-07 -1.29056e-08 -1.68846e-23)
(-3.3816e-06 -5.05266e-06 2.62413e-26)
(0.000116096 9.85265e-05 -7.63501e-23)
(-9.92753e-08 -5.2635e-09 -2.80749e-23)
(-1.27676e-07 -2.24113e-08 0)
(0.000230283 -0.000148648 1.70463e-22)
(1.76416e-06 -1.14168e-05 8.4173e-24)
(-0.000108516 0.0002757 5.34178e-23)
(-1.03855e-07 1.58496e-07 -1.21325e-23)
(0.000130296 9.25647e-05 0)
(-3.21978e-06 1.42941e-07 2.18451e-23)
(4.34513e-06 5.47937e-06 6.29821e-25)
(6.44589e-06 1.96377e-05 1.31073e-23)
(-0.000272889 -3.20931e-06 -2.32645e-23)
(-3.12519e-06 -1.24115e-05 2.6356e-23)
(-1.24959e-07 8.11951e-09 0)
(6.34617e-06 3.36761e-05 -1.67357e-23)
(1.72484e-06 8.57406e-07 7.07e-24)
(-0.000164163 0.000306313 -1.09185e-23)
(3.9296e-06 1.52392e-05 -1.57374e-23)
(-0.00021178 0.000299233 0)
(9.52606e-05 -7.15238e-05 7.55445e-24)
(6.84454e-05 0.000140932 -1.73641e-23)
(-1.33805e-07 5.34846e-08 -8.95634e-24)
(1.1834e-07 6.71294e-07 3.36684e-25)
(8.65903e-06 -8.03549e-06 1.01176e-23)
(6.65184e-06 -4.14797e-05 2.34022e-24)
(-0.000195758 0.000290244 1.20651e-23)
(-1.75742e-07 7.21416e-07 -3.80372e-23)
(-6.61117e-09 -1.64089e-08 6.68809e-24)
(-1.98926e-08 9.86845e-09 1.32852e-23)
(-6.53887e-07 -4.25199e-07 -4.4692e-23)
(6.0779e-08 -5.04467e-08 1.41136e-23)
(-1.43418e-07 1.93815e-06 -1.51398e-23)
(3.89384e-05 -7.14751e-05 0)
(-1.62283e-07 -1.61896e-09 -1.24234e-23)
(-6.96688e-08 1.74705e-08 7.81051e-26)
(3.69516e-07 1.78484e-07 3.7697e-25)
(-1.07474e-05 -1.72269e-06 8.3068e-26)
(6.64883e-06 6.56714e-06 -2.34193e-23)
(-3.33137e-08 -1.43198e-09 0)
(9.15267e-05 -1.71233e-06 0)
(-1.32864e-07 4.10342e-08 -1.67132e-23)
(-2.98974e-06 -2.75723e-07 2.43816e-23)
(2.17418e-05 -1.82377e-05 0)
(-7.16135e-05 0.000139716 -1.74819e-24)
(0.000203069 7.94465e-07 0)
(8.76577e-08 8.51216e-08 -2.21515e-23)
(5.35792e-07 2.75175e-07 -7.69796e-24)
(6.32539e-06 3.16671e-06 3.40599e-23)
(2.51893e-05 1.87485e-05 -2.24544e-23)
(-2.9254e-08 -9.17165e-08 0)
(-6.62818e-08 -1.19357e-08 0)
(0.000301918 -7.28444e-05 -7.33612e-23)
(-5.96064e-08 4.14482e-09 -5.54012e-23)
(1.29729e-05 -1.02278e-05 0)
(-3.36306e-06 1.53945e-05 4.26006e-24)
(-3.16775e-08 1.17755e-07 9.20274e-24)
(-8.56682e-08 -9.70471e-10 -9.02819e-24)
(5.60245e-05 1.22319e-09 -3.11402e-23)
(7.34525e-05 -6.19854e-05 -2.13305e-23)
(-4.62783e-08 -3.08614e-08 0)
(-1.29075e-07 1.08465e-07 1.19118e-23)
(-6.41893e-08 1.49869e-07 1.22142e-23)
(4.57845e-05 7.03644e-05 1.61458e-23)
(1.37099e-07 3.56095e-08 -2.55502e-25)
(-0.00039123 0.000278128 1.31209e-22)
(1.8585e-07 1.73382e-07 -1.5703e-23)
(-2.72513e-07 1.77435e-06 1.55442e-23)
(5.73346e-07 -2.19423e-08 3.9341e-23)
(-7.07511e-08 6.3999e-07 -2.30164e-23)
(3.46429e-06 7.5099e-06 0)
(-0.000115141 -5.82071e-05 0)
(-0.000159025 0.000584103 3.05727e-24)
(4.77762e-07 1.96558e-07 7.39736e-24)
(-4.08318e-05 -8.74962e-05 1.47555e-24)
(-5.52068e-09 2.59021e-07 4.30414e-23)
(-5.13881e-08 1.20548e-07 0)
(-8.61248e-05 4.86484e-05 0)
(-1.09006e-06 2.50827e-07 0)
(-3.08717e-06 -1.08028e-05 2.68637e-23)
(2.93113e-07 -4.33028e-07 0)
(2.87519e-06 4.48029e-07 0)
(-1.28732e-07 -2.65544e-08 0)
(-2.1135e-06 -4.23779e-05 0)
(-4.04731e-08 1.02688e-08 6.48729e-24)
(-4.48376e-08 5.29434e-10 0)
(-6.4695e-08 -5.90574e-08 0)
(-7.04838e-08 -4.45045e-09 1.8919e-23)
(5.80771e-05 -3.89578e-05 -5.94727e-24)
(-1.56794e-07 1.73799e-07 -2.47272e-23)
(0.000100133 -3.84825e-05 4.09011e-24)
(4.29914e-08 1.12923e-08 1.13387e-24)
(-1.79591e-07 1.28302e-07 -5.16229e-24)
(3.72564e-05 -0.000482999 0)
(2.24256e-05 1.69543e-06 0)
(1.3061e-05 6.25831e-05 0)
(-7.46961e-08 1.68725e-07 -2.53583e-23)
(2.18518e-06 1.80609e-06 9.1407e-24)
(-4.60721e-08 -8.50364e-08 0)
(-6.57061e-05 -4.91631e-05 4.11106e-23)
(2.37862e-05 2.90369e-05 3.09072e-23)
(-8.63686e-08 -4.49868e-08 1.83668e-23)
(5.5937e-06 2.9256e-06 -1.18847e-23)
(-3.12355e-08 6.43142e-09 2.01426e-23)
(3.57832e-05 2.5809e-05 0)
(-2.52775e-06 1.33309e-05 1.41075e-23)
(-1.31686e-09 2.0008e-08 -1.27815e-23)
(-1.12053e-07 4.96137e-10 -2.77044e-24)
(-0.000109204 8.38805e-05 -8.6471e-24)
(-5.85281e-07 -5.02118e-07 3.19208e-23)
(-5.23897e-05 -2.22959e-05 -2.3432e-23)
(-0.000519304 0.000207737 -1.43812e-22)
(-1.02623e-07 6.43633e-09 0)
(1.31371e-08 7.19801e-08 -9.11402e-24)
(-0.000176027 4.00418e-06 0)
(2.26651e-05 1.38892e-05 -1.63475e-23)
(1.01752e-05 7.87811e-06 -1.21958e-23)
(-5.1277e-07 6.1698e-06 -3.10401e-23)
(-2.07428e-05 0.000287664 5.78276e-24)
(-9.24055e-08 -4.66562e-08 1.84816e-23)
(-5.4083e-08 1.49314e-09 2.41021e-23)
(0.000206641 2.21827e-06 0)
(-1.26503e-06 2.98304e-07 0)
(-1.12642e-07 1.21265e-08 0)
(-6.72521e-05 -2.59658e-05 -1.09672e-22)
(5.97372e-05 3.14993e-06 0)
(-5.82789e-05 4.69502e-05 -6.10603e-23)
(1.40077e-06 -1.63454e-06 1.52084e-23)
(4.09629e-07 -2.3999e-07 0)
(-2.01068e-07 2.26044e-07 0)
(-2.91823e-07 -5.71066e-08 -8.74386e-24)
(1.58332e-07 1.98347e-07 1.43596e-23)
(1.49127e-06 -3.12324e-06 -3.52891e-23)
(8.46134e-06 -1.19187e-06 2.2672e-23)
(3.97379e-06 4.88509e-06 3.3356e-23)
(3.48093e-05 -9.03424e-06 3.25353e-25)
(-0.000198103 4.23339e-05 1.03629e-22)
(5.85255e-06 1.33858e-05 -1.35201e-25)
(-9.73511e-05 0.000134519 -1.49154e-25)
(-5.0162e-05 -2.3388e-05 0)
(2.46512e-06 3.60898e-05 -4.30119e-24)
(-1.73827e-06 9.42335e-07 0)
(-2.37731e-07 7.26303e-08 7.62776e-24)
(-1.11398e-07 1.614e-08 -9.72395e-26)
(-1.64373e-07 3.4221e-07 -2.53851e-23)
(-1.05875e-07 6.61935e-08 0)
(-6.45533e-07 -3.09118e-06 -3.0528e-23)
(-4.73736e-08 -4.82585e-08 9.5946e-24)
(3.75596e-06 -6.16375e-07 1.20986e-23)
(4.478e-06 -1.01133e-07 0)
(-3.79927e-08 1.19889e-08 -2.20383e-23)
(-0.000295934 2.11511e-05 7.15381e-23)
(-6.43095e-05 1.70889e-05 -1.4167e-22)
(-2.68892e-08 -6.18512e-08 0)
(1.11724e-06 3.73177e-05 1.98428e-23)
(-3.73911e-08 -2.66537e-08 -3.19427e-23)
(-0.000114873 0.000155758 0)
(4.05805e-06 -1.89777e-06 1.2238e-24)
(-8.67848e-05 -7.11729e-05 -9.86674e-23)
(-9.37049e-08 -1.42452e-08 0)
(1.52499e-05 -1.81759e-06 7.60289e-23)
(8.16087e-07 3.33315e-07 3.63772e-23)
(8.31205e-06 -8.20239e-06 8.33312e-24)
(7.83995e-07 2.83463e-07 -3.39062e-23)
(2.47844e-06 3.92786e-06 -5.02564e-25)
(-0.000467568 -2.19013e-05 0)
(3.09419e-05 7.85839e-06 1.40609e-23)
(1.0271e-05 1.26712e-05 -2.00069e-23)
(-9.66212e-05 0.000176684 4.52613e-23)
(4.85364e-08 9.10563e-09 -2.56587e-24)
(-5.35952e-05 -6.80894e-05 9.29595e-23)
(-2.54463e-07 -7.0636e-08 1.43958e-23)
(0.000134521 0.000155092 1.63163e-23)
(-1.42085e-07 1.05735e-07 1.56167e-23)
(-5.68787e-05 1.96336e-05 0)
(-4.29718e-08 -3.4392e-08 -2.62888e-23)
(-3.62696e-08 1.4162e-08 -1.22013e-25)
(1.7631e-07 3.27248e-06 -7.99877e-24)
(4.62603e-05 2.13459e-05 0)
(1.69858e-05 -7.41648e-06 -3.2645e-23)
(-3.06827e-08 -1.75544e-08 2.70086e-23)
(2.43912e-05 -1.36917e-05 0)
(-3.18405e-05 -5.00958e-05 0)
(2.50739e-05 2.26543e-05 1.47346e-23)
(1.69254e-06 -9.83314e-07 0)
(8.74795e-06 -9.04145e-06 0)
(6.71648e-06 4.28696e-05 0)
(5.73376e-08 -6.18747e-09 0)
(4.56188e-05 0.00023035 0)
(-0.000277237 8.16036e-06 -5.68255e-23)
(5.57098e-08 7.3958e-08 2.07131e-23)
(-1.74789e-07 1.0533e-07 2.25287e-23)
(-9.14259e-08 1.35267e-07 -9.93772e-24)
(-6.85772e-05 1.71373e-06 1.06724e-22)
(-3.89334e-05 -3.02604e-05 -3.88388e-23)
(8.65657e-08 1.76496e-08 7.90671e-24)
(1.45497e-05 5.30152e-05 5.11632e-23)
(-4.74018e-05 6.11165e-05 1.63081e-23)
(6.13977e-06 -3.02354e-06 0)
(0.000197126 -0.000255498 -7.68423e-24)
(6.44775e-06 -2.12837e-06 1.85755e-23)
(-2.68369e-06 -2.75985e-07 -2.25232e-23)
(-6.88632e-05 -3.51028e-05 -4.06408e-23)
(-2.96677e-08 8.548e-08 0)
(-0.000131561 0.000164466 -9.52637e-23)
(-5.60105e-06 1.64803e-05 2.37921e-23)
(-5.88996e-08 -2.58784e-07 4.96988e-23)
(-0.000304299 -0.000115376 4.02527e-23)
(2.96277e-06 2.87319e-06 -1.52293e-23)
(1.7079e-05 5.55334e-05 -6.04761e-23)
(5.643e-06 2.82181e-06 -9.18418e-23)
(3.32458e-07 -3.30517e-07 0)