/*--------------------------------*- C++ -*----------------------------------*\
| =========                 |                                                 |
| \\      /  F ield         | OpenFOAM: The Open Source CFD Toolbox           |
|  \\    /   O peration     | Version:  v2012                                 |
|   \\  /    A nd           | Website:  www.openfoam.com                      |
|    \\/     M anipulation  |                                                 |
\*---------------------------------------------------------------------------*/
FoamFile
{
    version     2.0;
    format      ascii;
    class       volScalarField;
    location    "400";
    object      ddt0(omega);
}
// * * * * * * * * * * * * * * * * * * * * * * * * * * * * * * * * * * * * * //

dimensions      [0 0 -2 0 0 0 0];


internalField   nonuniform List<scalar> 
15335
(
-0.000886531
0.00108206
0.00265975
-3.63584e-11
-2.95126e-08
4.08697e-10
4.51705e-06
-2.79358e-09
3.87335e-10
1.68627e-08
1.10439e-09
-4.76875e-11
2.95592e-05
7.38986e-06
-1.83602e-07
1.34614e-09
0.000962565
-0.000179314
7.82109e-10
-5.83387e-08
2.58079e-10
0.000101459
-3.86089e-08
2.23338e-10
0.00236261
-0.000864036
-3.35476e-05
-2.09465e-10
-3.41558e-07
0.000180105
-9.60318e-10
3.95315e-05
6.24232e-10
7.39996e-07
2.83547e-05
-3.28746e-05
1.6071e-08
6.58666e-09
6.82976e-06
5.81863e-05
-5.84239e-10
0.00464753
4.17035e-10
3.99018e-06
-1.89204e-05
-6.59801e-10
-1.94504e-07
-3.14197e-09
-7.54079e-07
-1.50124e-09
7.04746e-11
1.19351e-10
3.81578e-08
-9.58887e-07
0.021298
-1.40093e-05
0.000150759
-1.13374e-05
4.05617e-07
0.00153385
0.00093176
-7.94338e-10
3.90969e-08
4.1179e-09
-4.14577e-08
-0.000589472
-3.00765e-05
5.60841e-09
9.36456e-07
-3.16724e-11
-1.80742e-07
-1.53324e-08
3.03658e-08
-7.59655e-06
6.55712e-08
0.00329006
0.000598025
9.67405e-10
-5.84664e-10
-4.36867e-05
-0.000693436
-6.05544e-07
-5.83782e-07
3.32402e-05
2.11602e-07
0.00581289
4.96022e-08
-2.54964e-05
2.90386e-10
-3.60902e-08
-8.19013e-05
-8.81959e-05
6.61818e-06
-0.00637001
-3.18794e-08
2.4132e-05
1.24999e-10
-0.000698998
-4.53843e-10
-0.000770278
2.67837e-10
2.68455e-07
0.000125202
-3.65805e-10
1.50352e-09
-7.3292e-11
-0.00556091
-6.89551e-08
-5.28068e-07
9.36701e-06
3.26844e-09
-7.74826e-06
-8.6072e-05
-3.93316e-09
-3.41086e-09
-1.38754e-09
-1.17103e-05
-7.22752e-10
-0.0336811
0.00135151
1.95243e-07
1.24881e-05
-0.000136539
8.15176e-10
1.18232e-05
-1.48618e-09
3.16097e-10
0.00330942
-2.75897e-06
-6.1176e-08
-2.5441e-09
8.6766e-06
1.39603e-09
-0.000938659
3.82921e-09
3.03694e-05
-2.01783e-08
-3.47405e-10
7.39455e-06
5.29294e-07
5.67204e-09
-0.00580356
-1.76242e-10
-0.000831232
-0.000556901
-7.60252e-09
0.00291159
3.81623e-06
3.07612e-09
-3.00585e-05
1.07949e-09
0.016406
-7.93425e-11
-1.02944e-07
0.00122118
-9.6692e-09
8.42369e-05
-4.73305e-08
-1.8579e-09
2.58464e-07
-1.19645e-09
-2.09184e-06
3.06159e-08
-6.82362e-06
6.59557e-06
-6.02345e-11
-2.60176e-09
0.0145175
-5.16817e-10
-1.62813e-10
1.70619e-08
2.04805e-10
7.93684e-10
-1.16438e-08
-8.40722e-08
8.91241e-08
-0.000678375
3.9288e-11
-2.17508e-05
-0.000563307
3.34411e-09
-6.55544e-05
-3.01919e-09
-4.99941e-08
-5.6821e-08
-0.000211269
8.08053e-05
-6.91908e-05
1.25504e-09
-0.0013674
-1.11369e-09
-0.000495771
-9.12168e-07
-5.25171e-10
7.95841e-09
-0.0176581
3.73118e-09
-2.1367e-08
4.82098e-06
0.000233507
7.70866e-06
-1.90282e-07
-2.32327e-09
5.98064e-05
-0.000581086
1.34512e-06
0.00235821
2.54957e-10
3.29372e-05
-0.000942096
0.00134835
4.03987e-06
-4.79415e-10
-5.68565e-08
-0.000482091
-9.24134e-08
-2.45043e-09
-1.47981e-06
-2.26477e-09
9.65908e-05
9.27259e-08
9.21655e-07
0.00103903
-7.98805e-06
-4.7991e-09
-0.00789134
-2.95811e-05
4.91695e-08
-8.96896e-07
0.00043769
8.63178e-09
-0.000247906
-0.000838414
6.75161e-08
3.01838e-08
-2.58271e-08
-1.39385e-08
-0.000884697
0.00339237
7.52663e-08
-2.14814e-05
1.41609e-09
-1.88974e-05
2.389e-08
-0.00102748
-1.50775e-07
0.000172555
-8.75423e-08
-0.000103709
-0.00633674
-8.33849e-08
-2.80281e-09
-0.000594276
-6.9717e-07
-4.4427e-10
-0.000889679
5.62494e-08
2.1929e-09
0.00115866
-5.20269e-10
0.000454211
0.00635747
0.00295405
0.000719153
-0.00174373
-0.00493216
0.000903839
1.28022e-09
0.00075773
3.53827e-09
-0.000356175
1.1342e-10
-0.000597336
2.78684e-09
9.48267e-08
-0.00222142
-0.00438913
2.43111e-06
7.90114e-09
-0.000781814
-3.83752e-10
9.63466e-10
1.03772e-07
3.30129e-09
-0.000337962
3.21777e-09
3.77877e-07
4.99455e-11
0.000273849
-1.31847e-07
-0.000706728
-6.30793e-08
-2.32329e-09
3.22405e-11
0.0038597
4.47052e-08
1.77313e-08
-2.46544e-09
4.50124e-09
1.06886e-07
0.00011507
-9.11725e-06
0.000545821
-6.16109e-05
5.14484e-05
-3.10231e-10
-1.29782e-10
0.000932707
-0.00324788
-1.6411e-05
-0.00363033
-2.35018e-08
-2.74985e-05
-0.000663566
-8.78368e-10
-9.4693e-07
-3.49783e-09
-6.03555e-09
2.68393e-09
-3.81387e-09
1.47882e-09
-1.26153e-09
-0.000165713
0.00139461
6.84871e-08
-0.000449447
-0.000163592
-5.50639e-09
1.63102e-09
-4.66886e-08
-3.42802e-10
-0.000401046
0.00985839
2.01424e-06
-2.93117e-06
-1.67301e-10
8.54315e-10
-5.9322e-08
1.32549e-05
0.000288724
3.47289e-07
-7.89295e-06
-2.95194e-05
2.76656e-07
2.85859e-09
-0.00168046
6.04075e-06
-0.000217705
2.66464e-08
-3.45517e-08
4.59167e-05
-2.18658e-08
-1.90817e-09
-0.00794929
0.00698489
3.01483e-08
-5.69146e-08
8.55464e-09
1.91673e-10
-0.000221297
-7.28025e-11
-3.88468e-10
7.45192e-08
1.22043e-10
0.000397791
1.02255e-07
-1.51635e-08
1.11974e-09
-4.03191e-07
1.49139e-09
-6.79019e-08
8.68924e-10
3.95867e-08
1.95121e-10
8.23892e-10
-1.12618e-09
9.50685e-11
3.9887e-11
9.94084e-10
3.9982e-05
0.000555661
-1.92188e-06
1.01239e-05
-1.87861e-05
-0.00390518
9.9788e-07
-4.41137e-10
-8.94822e-05
-7.39507e-09
2.22694e-10
-2.45294e-09
-1.44998e-06
-7.88543e-10
-3.67522e-08
-0.000829416
1.05615e-07
2.53266e-09
-4.21441e-11
5.81458e-11
0.000103061
-1.51404e-07
0.000318162
1.24728e-05
-1.05713e-09
1.66492e-09
-1.62465e-06
5.44648e-10
5.37905e-09
3.62601e-05
2.33769e-09
-7.58395e-10
1.19417e-08
8.23431e-10
2.10998e-08
-1.08246e-05
-1.4331e-09
1.54589e-09
-1.246e-07
-6.31889e-09
1.26347e-07
1.21031e-05
-1.17001e-09
0.000311115
9.06083e-10
1.85028e-07
-0.000634915
8.76379e-10
-4.24199e-09
-2.31857e-09
-6.69836e-05
0.00138101
-1.41159e-05
-4.44961e-09
0.000366752
-3.89305e-11
4.20167e-10
-0.000539345
1.35547e-05
-1.0305e-09
-2.78795e-07
2.98044e-10
1.50987e-08
-6.9425e-10
-0.00372715
3.513e-08
0.00151944
-1.58091e-06
1.38098e-09
-3.48893e-08
0.000153893
4.93702e-07
-0.000338852
4.78773e-10
0.000957173
-8.66498e-10
-2.91151e-08
-6.89474e-07
0.00250138
3.27859e-07
2.95643e-09
-5.06884e-08
-2.17904e-07
5.05134e-06
-5.26796e-08
-2.13229e-05
6.70945e-05
-5.24956e-09
0.00108164
3.73615e-08
1.7075e-08
-1.02514e-09
-0.000702469
-3.19183e-08
0.00348526
8.04123e-09
-2.92295e-09
1.02746e-09
-1.1395e-08
0.00130239
2.45126e-09
1.19525e-07
4.45686e-08
4.81693e-08
-1.42387e-10
1.76994e-10
0.000379823
8.18284e-08
1.68629e-08
-2.52175e-09
-5.62214e-09
2.55714e-06
2.35988e-05
4.19439e-10
1.59562e-10
-0.00080608
0.0017334
-7.80838e-05
-5.38199e-07
-2.40208e-07
6.74635e-06
4.88547e-06
-0.00297138
5.52032e-09
1.7417e-06
-2.64271e-10
1.04728e-07
-4.82549e-07
-3.10854e-05
-2.64951e-10
4.39654e-08
9.15373e-08
-1.65802e-06
0.00385889
-0.000147301
3.02066e-05
4.30763e-10
7.0011e-09
5.80183e-10
-4.11481e-05
0.00112641
0.0028586
-0.00257814
3.21628e-08
1.06934e-09
0.00274969
2.00122e-08
0.00304424
8.3464e-08
-2.24843e-09
2.9535e-08
-1.06087e-08
-1.18068e-05
-0.00076645
1.60157e-08
-3.68446e-05
9.2999e-07
-0.00373024
-2.38303e-05
-6.79547e-10
4.11986e-09
-5.23753e-05
-1.86886e-05
1.23971e-09
0.00142278
7.34784e-10
0.00113628
-0.00118428
4.74183e-09
1.35463e-05
-1.12335e-06
6.90585e-08
8.75462e-10
-3.1114e-10
3.88808e-10
0.00430327
-0.000176578
-2.93519e-10
8.78242e-08
1.41034e-09
-0.001509
-2.09972e-06
8.60283e-09
-2.16226e-07
4.27814e-09
0.00476689
-9.22619e-09
-5.53068e-07
-1.41208e-07
-0.000407939
0.0018803
-0.000855528
1.68261e-10
-1.21253e-10
-5.19188e-06
3.11028e-08
-1.49596e-10
1.00767e-09
4.35457e-10
7.51134e-09
-9.18249e-05
0.000804736
-0.00782171
-1.84511e-06
-1.858e-06
-3.30589e-07
0.00397798
0.00109723
-0.000622708
9.27037e-09
-2.14904e-09
-1.62456e-09
9.06265e-08
0.203077
-2.88276e-09
-3.446e-10
-0.00468816
-1.99531e-07
0.00701508
-2.8648e-09
-0.000170223
-1.14894e-07
-5.88432e-07
0.00484273
0.000917046
-7.94725e-08
-3.5742e-10
6.22393e-06
-2.68826e-08
-0.000390407
4.97857e-07
-0.00017627
7.95617e-05
0.0104616
-4.0258e-10
5.12907e-09
1.19694e-05
-8.31132e-06
-0.000181183
-2.7075e-08
1.19255e-09
1.09515e-09
1.69547e-08
5.20635e-09
-9.25465e-08
1.21266e-05
-2.59005e-09
-5.56697e-11
5.61812e-11
-7.1294e-07
5.69424e-08
1.70517e-09
-4.11512e-05
-5.58987e-10
-8.0196e-08
4.29681e-07
-0.000571818
0.000294249
7.18573e-09
4.82012e-09
-4.01788e-07
8.04359e-06
6.83953e-10
4.67242e-11
0.00468669
1.38255e-09
1.37656e-05
-1.14306e-06
5.82456e-10
-2.82802e-09
-0.000257884
1.42797e-06
1.42597e-09
-2.06449e-09
-2.17242e-09
0.00136439
-2.82798e-09
-0.0125897
1.21815e-08
-9.00037e-08
3.22743e-08
-8.28113e-09
-6.6892e-07
2.80425e-05
0.000896217
2.69672e-09
-0.025631
1.08898e-09
2.01832e-09
-8.37028e-05
-1.26633e-09
-5.38948e-07
2.98774e-08
-5.56311e-08
-3.21865e-10
-6.23853e-06
1.97475e-10
7.24037e-10
2.02523e-10
-5.11339e-09
-1.96204e-05
-2.91048e-09
5.73205e-05
9.61842e-10
-1.26539e-09
-0.00495095
-0.000908215
-1.19216e-07
-2.60755e-09
2.11608e-08
2.36747e-10
9.72503e-06
1.593e-05
4.21616e-10
1.02909e-07
1.15134e-09
0.00405666
-0.0030424
2.62907e-09
-4.6529e-09
-0.00163599
1.79956e-08
-0.000215025
-0.0127836
-2.26635e-09
4.16412e-10
0.00171803
7.35476e-07
8.17043e-07
-5.36073e-07
0.000400803
-1.0635e-10
1.7753e-09
0.000588977
-2.5207e-10
-4.1245e-09
-0.000715649
-3.49727e-05
0.00017216
1.1559e-07
-2.41425e-09
-1.80327e-09
-1.87789e-09
1.04735e-08
-2.72421e-08
1.22483e-07
-4.8667e-07
-4.34497e-07
0.00272215
8.35879e-07
0.00454851
-0.000793184
-6.92531e-06
3.94786e-09
-3.76704e-09
-3.9459e-10
-6.28162e-09
-3.41343e-10
7.30816e-08
6.56146e-11
-1.96078e-07
-5.02289e-07
3.20041e-10
0.00175912
-0.000891009
1.4238e-11
-4.02881e-05
1.07239e-09
-0.00062905
4.67985e-08
-2.33468e-05
-1.81215e-10
-2.34736e-07
3.44735e-08
-5.06563e-07
3.63977e-08
-1.6538e-08
-0.00420141
2.33681e-07
-1.06195e-06
0.00458739
1.17996e-09
-0.000355677
-1.39023e-09
0.0110191
-5.14238e-10
0.00463793
9.75371e-10
1.93507e-10
-3.15183e-07
-3.54692e-05
-2.19662e-06
1.81823e-09
-2.89936e-06
-1.60917e-05
-1.54985e-06
8.51449e-08
-5.8144e-07
0.000712966
1.38366e-09
0.000714954
0.000109114
4.84353e-09
-2.48407e-09
1.44857e-09
-0.000833121
-2.3442e-06
-1.37825e-09
3.36795e-05
-1.23767e-05
3.00018e-07
-0.00110196
-1.4762e-05
1.59878e-08
9.83552e-06
1.81386e-09
-0.000859551
4.35982e-07
6.82657e-09
0.000615651
-1.61555e-08
1.26957e-05
-3.35917e-07
-7.84845e-10
-5.33123e-09
-0.000145046
5.25206e-10
2.1124e-08
-1.97954e-09
-9.97166e-09
-3.01255e-05
-3.30891e-07
1.3419e-05
5.77558e-06
1.29307e-07
3.29806e-08
0.00111035
-4.49749e-10
-2.19992e-09
9.97494e-09
-1.73509e-05
3.08792e-08
-9.58745e-08
-6.51108e-11
-1.02959e-05
3.01762e-09
-2.01794e-09
-5.53857e-10
-7.5503e-07
0.00100201
4.05258e-08
0.00018307
-1.10582e-06
-4.04294e-07
-9.75956e-09
0.00141423
-1.45293e-09
-1.60968e-11
-8.32512e-10
-7.56038e-12
9.89171e-08
-3.73541e-05
-1.1892e-08
-5.59843e-07
2.73691e-11
4.38814e-09
-2.70167e-10
1.23322e-09
-0.000357468
6.73953e-07
3.44278e-07
5.11439e-10
1.74869e-10
8.57267e-10
-1.96879e-07
-7.3624e-08
2.22067e-09
-1.70097e-09
6.3905e-05
-1.08992e-10
0.00466341
-3.58255e-10
-1.37256e-09
-5.46713e-06
7.13663e-10
-4.79668e-06
0.00228327
-0.00286467
-0.00111
3.71994e-09
8.47048e-06
8.09196e-05
-6.00689e-06
-1.34838e-08
-2.25709e-09
0.000228285
8.78022e-07
5.62219e-08
1.65089e-07
-5.60862e-10
-8.78207e-05
6.28676e-07
-0.000213623
-1.47957e-08
1.01105e-11
2.86062e-09
4.87637e-09
-2.28376e-06
4.42684e-10
-7.66465e-05
0.00371005
4.39642e-10
-2.66067e-07
8.6811e-10
2.28103e-09
-1.82743e-08
-3.26881e-09
0.00289396
-2.59656e-09
-0.000135174
-0.00490611
-3.33667e-10
-0.000221519
3.49632e-10
7.88509e-09
2.9825e-05
1.78709e-09
-1.69028e-06
-8.07128e-09
0.00280346
-6.62592e-09
-1.00278e-06
2.06245e-09
0.00135313
8.86005e-08
6.98425e-08
-2.91273e-08
-1.92196e-06
-6.54896e-10
2.34138e-05
-2.57213e-08
-2.05342e-09
-6.25033e-10
1.8768e-09
0.000905494
-0.00562974
-1.07615e-08
0.000594673
0.00315779
-5.44476e-07
-6.77218e-05
0.000113808
-0.000264603
-3.77e-05
-0.131982
9.29449e-05
1.3554e-09
-7.09109e-10
-3.63814e-07
1.77276e-09
-6.56935e-10
-8.45819e-06
-4.55403e-07
-0.000972967
2.70259e-10
0.00118092
-1.68942e-08
-3.35518e-05
-0.000626857
-4.52307e-07
-2.38466e-09
0.000254843
-4.3188e-08
4.56053e-08
-0.000381108
-8.71406e-08
4.32656e-09
-6.13306e-10
0.00034487
1.23173e-09
-4.58428e-06
1.92053e-09
-2.41616e-06
-8.947e-07
-3.60758e-06
0.000428842
1.40749e-07
-0.000462624
-3.71099e-06
9.82681e-10
0.00024267
4.40017e-08
7.27676e-06
1.79323e-09
-1.64313e-07
-0.00588785
-0.000347654
3.19754e-09
0.000698945
0.00116113
1.5771e-09
-0.00194286
3.45186e-09
-4.16478e-09
-0.000814145
0.00320133
-1.41915e-10
-0.000138507
7.07605e-05
0.00162072
2.87619e-07
1.89436e-08
6.64055e-08
-1.44974e-09
-0.000615725
-1.61818e-10
3.16686e-07
2.80668e-09
1.42638e-07
8.5928e-09
8.79045e-09
-0.00179127
-0.000437747
1.58008e-09
9.56383e-06
-1.92124e-07
0.000765331
6.92841e-08
3.81747e-09
-1.47511e-05
7.87099e-11
2.75812e-10
3.91546e-08
3.85517e-09
4.1001e-09
6.02042e-07
-1.72342e-09
1.02365e-08
5.13878e-08
-8.94074e-09
-0.000803876
2.43383e-09
6.98845e-10
-4.38853e-10
-1.83886e-09
0.00223254
1.17353e-10
-4.51209e-10
0.000391055
-0.00819007
1.05274e-10
-0.00095156
3.25329e-08
0.00504028
-1.31416e-06
-0.00629763
9.77649e-06
1.10524e-08
-0.000392588
-1.25616e-09
0.000143632
3.98008e-09
8.16798e-06
-7.1759e-09
-1.78056e-05
4.11468e-06
5.52091e-10
0.00834036
2.88276e-06
0.0143304
-0.000112629
-1.30078e-07
4.79844e-08
-5.03409e-10
8.40852e-06
2.56458e-08
0.288506
0.0130648
3.38495e-11
-5.84614e-07
-5.90197e-10
-1.03147e-10
3.50636e-11
-3.7538e-08
-7.15947e-10
1.91045e-05
-0.000802204
-5.17998e-08
-3.77841e-10
7.7987e-09
-2.62965e-08
9.70995e-10
-7.01704e-10
-0.000978668
1.67524e-07
-0.0503397
0.00429165
-7.28157e-05
-5.65442e-07
1.92168e-08
0.00267188
1.67001e-07
3.95949e-08
0.000500501
0.0068388
4.89498e-10
4.33509e-08
-6.69721e-08
1.20271e-07
-7.15188e-06
3.54503e-08
-4.01673e-10
-0.00433827
-0.00110928
-2.99944e-06
-3.04462e-10
0.000414117
0.0172982
-5.5015e-09
-5.8632e-08
-1.57831e-11
-8.24219e-08
5.23108e-09
6.73151e-10
1.37716e-09
0.000400592
8.07321e-10
7.28305e-09
7.07385e-07
-3.76224e-10
0.00146846
5.13881e-10
-5.5141e-11
2.66438e-09
4.5138e-09
7.14051e-08
1.15921e-05
-2.74533e-08
3.03936e-08
9.73094e-05
-1.36987e-09
1.32134e-09
-8.84066e-09
1.30592e-07
0.0004876
0.000924704
9.37281e-09
5.47001e-08
0.0142835
-8.54045e-07
-4.12626e-10
-4.34095e-11
5.45427e-10
4.45177e-10
9.00721e-07
-6.37801e-08
-1.60208e-10
7.47058e-10
4.90488e-08
0.0100121
-8.44531e-06
8.01397e-10
-7.75781e-06
0.000305537
2.42098e-07
2.89617e-05
7.61239e-06
0.0014211
0.000625902
0.000429833
1.38243e-09
-0.001078
0.00204584
-8.39954e-05
-0.000596395
0.00170225
-5.89557e-09
0.000225848
-2.80254e-08
-0.00114855
-0.000822139
-0.0015226
-0.00778411
2.36647e-09
-0.00255169
1.78847e-09
-2.35025e-10
-1.31317e-06
0.00237469
4.96751e-07
-3.06699e-06
7.59336e-09
-3.10521e-10
-3.73329e-08
2.08776e-08
1.69913e-07
-1.11226e-08
-1.61437e-05
-6.09533e-06
-5.24157e-07
8.03933e-06
-6.26097e-10
7.47285e-07
-6.6271e-10
-1.66741e-07
4.02817e-09
-3.89227e-08
-7.90285e-09
1.92515e-09
4.87122e-08
1.80867e-08
-1.50006e-09
2.35635e-09
3.6232e-05
1.06652e-10
6.01102e-07
-0.00136724
0.00261421
-7.18454e-05
0.000489293
-5.55706e-10
-0.000400265
-2.68441e-06
0.000968728
-2.89866e-09
2.17788e-09
1.62388e-09
-6.38623e-05
-3.6758e-10
2.71082e-09
0.00237947
-0.00123845
0.000907803
-0.000818465
-0.000181321
0.0133492
2.39274e-09
6.12268e-09
-8.09232e-05
-0.00291572
1.24838e-09
3.33145e-09
3.38169e-09
0.00205037
3.93629e-08
0.00448531
-0.00209857
-0.000902991
0.00183595
-1.35215e-07
-2.73697e-07
0.0024501
-0.000262253
-0.000518747
4.48285e-09
0.00332301
3.21195e-09
-2.47732e-05
2.67906e-09
2.63716e-09
4.08637e-09
2.23296e-10
-0.000308423
5.78841e-10
-0.000101501
6.53098e-05
0.000400432
6.95557e-09
7.03626e-08
-8.53701e-08
0.00122477
-0.000984997
-2.746e-07
1.8412e-05
0.0162451
3.88323e-10
3.32099e-09
-1.51012e-07
8.06169e-09
8.49683e-06
-3.89508e-05
1.40873e-09
-1.12523e-06
0.0116301
-1.91284e-09
3.65744e-09
0.00925748
-0.00660429
-5.50987e-08
7.38459e-10
-5.87617e-10
0.00100253
-3.73675e-08
-0.000107262
-1.81132e-10
-1.49741e-06
2.32636e-10
0.00167257
0.00141012
1.8597e-08
-9.93362e-09
1.41348e-09
0.000294801
2.38245e-08
-9.97342e-08
5.69104e-08
-9.74658e-10
-0.000796241
3.54942e-06
-6.31899e-06
2.26315e-09
-1.94219e-08
1.03606e-09
-0.00517249
-6.89535e-05
7.37644e-07
0.000698924
-0.0144878
0.0108614
-4.29271e-08
0.000205454
-0.00521349
4.43405e-09
1.26099e-06
1.46532e-05
-0.00208879
-3.73627e-10
3.05414e-10
0.00730632
-7.4639e-05
-9.11021e-11
9.98707e-09
2.05241e-09
-1.06495e-05
-0.000676601
2.13664e-08
0.00119934
-0.00159597
-8.12503e-10
8.92692e-09
4.48276e-11
2.48412e-10
-4.09462e-10
-3.73335e-09
-0.000311633
-4.5374e-10
1.02734e-09
-6.7703e-05
-0.0065057
6.91756e-09
0.000136293
-1.4197e-09
2.38254e-10
2.3235e-09
-5.18616e-10
-4.75972e-08
-5.18177e-09
4.1978e-08
-0.0123041
0.00169835
-7.50106e-06
-0.00203485
0.00252667
7.18497e-07
-7.68154e-09
0.00438938
1.44794e-09
-2.9981e-09
7.31366e-08
-0.00360675
0.00758485
0.000871784
0.000257833
-0.00087817
-1.09807e-08
-0.00303323
-3.64678e-07
0.00856037
-0.000625611
2.32225e-09
4.05518e-07
-2.24058e-07
-1.76076e-09
9.52388e-10
-2.53102e-09
-0.000253346
-3.43735e-08
-4.83424e-07
-1.37639e-09
0.00153662
3.16342e-11
-0.000921261
3.21807e-10
3.50853e-06
-0.00132734
1.12454e-05
-1.68028e-09
2.25445e-07
-1.82759e-06
-9.69241e-05
-0.000198409
-3.33969e-09
-7.69969e-12
-1.40421e-05
-4.91154e-06
-8.65582e-05
4.46965e-06
0.00153173
-5.31959e-08
-7.11619e-08
1.34905e-09
-1.17543e-08
3.74201e-07
2.46425e-09
-7.98653e-10
1.372e-07
1.49317e-09
8.35138e-11
1.50015e-06
0.0130647
2.50729e-09
-2.28471e-10
0.0093088
-0.00095227
9.35888e-09
2.88122e-05
-0.000243141
1.39961e-09
9.26971e-08
-0.000663316
5.57921e-09
0.00198873
-0.000533175
1.68534e-09
6.23695e-08
0.00150536
9.48916e-10
-5.26433e-09
0.000106722
-3.43677e-05
-7.6712e-10
4.06186e-05
0.00313225
-8.23328e-07
-3.71463e-08
4.32138e-05
-0.000926234
4.1134e-10
-6.61615e-10
4.97615e-09
2.13308e-08
-0.000736536
9.69532e-05
0.000975747
0.00141211
-0.00127772
-5.43988e-09
8.63487e-09
0.00160082
-1.18691e-08
-4.22589e-07
4.07285e-07
-2.78015e-07
-2.86814e-09
-2.29631e-06
1.17976e-07
1.96169e-08
0.00252613
-0.000659178
-2.1409e-06
-0.00262574
7.35055e-08
-5.18923e-09
0.00102521
-0.000848687
-1.3504e-05
-0.000492112
8.1095e-08
0.00093697
0.00127226
2.11083e-07
1.10372e-09
0.00471848
3.68704e-08
0.00083779
-1.40814e-09
-9.63782e-07
1.02799e-07
2.48553e-05
7.90196e-09
-3.20744e-05
7.24819e-09
-4.49028e-10
2.12439e-08
-0.00205655
-0.0127688
3.86352e-08
-2.15696e-06
0.000456548
-0.00051619
-3.38585e-10
-2.32077e-09
-1.03794e-08
-0.000654141
2.3538e-08
-1.53201e-09
6.99979e-09
-3.47608e-09
-0.000114513
-7.71869e-08
-0.000225144
-1.57101e-08
-4.84524e-08
-0.000857938
8.48744e-10
1.91632e-08
-1.45419e-06
1.20714e-08
8.09783e-09
6.49678e-09
-4.16664e-09
-4.49319e-07
4.05136e-05
-2.46745e-07
-9.42541e-07
5.11903e-08
-1.11354e-10
2.76413e-08
-9.59516e-09
0.00998462
-4.06997e-08
-0.000809704
1.91168e-08
4.23104e-10
3.586e-06
8.24485e-09
2.79363e-08
-1.08071e-10
5.19796e-10
9.29813e-10
1.45702e-09
-0.00111875
2.60708e-09
-1.60773e-07
-1.41205e-09
-0.00148851
0.000844826
0.000988352
1.54905e-09
0.00546308
-1.79419e-08
-7.94961e-07
-4.10911e-11
1.71087e-11
-0.00147508
-1.43521e-06
1.52425e-08
-1.21464e-05
-0.000912994
-9.38528e-07
0.000593455
8.66881e-07
0.0102511
0.000275218
8.19706e-09
2.8116e-10
2.0405e-08
6.05692e-06
-4.55889e-10
4.76601e-11
1.14662e-07
-0.000574781
0.000138112
-2.8307e-05
4.27671e-09
3.54522e-08
0.000395626
0.000213331
0.000280734
-0.000736773
0.000320837
-4.07202e-07
0.00104401
6.07782e-07
-1.33123e-06
0.00166387
-2.39911e-10
8.31465e-09
-1.03152e-06
9.22692e-05
-9.16859e-05
-0.000722906
-3.50278e-10
2.3188e-07
-2.14075e-09
-2.31715e-05
-0.000116786
1.85427e-07
3.2617e-07
7.17327e-07
-5.94537e-08
-2.44101e-07
-3.57299e-10
-0.000880896
-0.000642662
-1.30195e-06
2.90124e-08
-5.26633e-10
-0.00152933
-0.000569255
-1.35891e-07
-1.0524e-08
-1.76049e-10
-1.19802e-08
6.27714e-10
0.00128864
0.000125523
-2.12156e-09
2.71016e-06
1.25503e-08
7.78005e-08
4.69469e-08
6.30244e-10
2.30062e-10
1.75215e-05
3.24223e-06
3.83593e-06
-2.16651e-09
4.41058e-05
2.41142e-10
-8.79911e-10
-2.05967e-09
3.58193e-09
-3.72433e-10
6.21021e-10
0.00110508
3.53372e-10
-0.00036233
0.000104149
3.36887e-05
-2.92075e-06
4.81084e-10
-0.00120181
-0.00116357
2.4206e-08
-0.00702606
-2.32281e-09
0.000170389
-6.1793e-10
0.000108063
-2.76447e-07
-4.44491e-10
3.18434e-06
1.04119e-07
0.00214069
1.12545e-09
8.49249e-10
-1.0342e-09
-7.38564e-06
3.71338e-08
-3.2794e-10
4.50692e-05
7.83084e-08
-2.20129e-09
7.63087e-09
0.000101807
2.36541e-09
0.000155393
-4.25848e-08
-0.000131766
3.12402e-05
0.0005581
-0.0120513
2.17361e-09
1.47681e-09
5.97976e-09
3.94045e-08
-0.000423334
-0.000666439
5.02808e-08
-3.08092e-10
0.00228808
-1.32216e-08
2.81224e-10
-5.02593e-10
4.29784e-05
-1.99221e-09
-4.02305e-05
-0.000966721
-6.98282e-10
0.00130797
-0.00056364
-1.12781e-05
-3.51466e-05
-0.00010655
-0.00109613
-9.82918e-05
-9.34668e-07
-0.000246313
-1.13926e-08
-7.86409e-07
-0.000279651
-5.19136e-08
1.55739e-08
1.18893e-09
-0.0330084
0.000546775
0.000649627
-6.27398e-07
9.20093e-10
0.00161804
-1.30581e-08
0.00163012
2.45715e-10
-0.000443401
7.96998e-05
-2.45826e-09
-1.59145e-09
-0.00217156
9.36346e-08
-3.55e-05
6.35185e-08
6.63074e-08
-5.80101e-09
0.000510592
4.92698e-09
-2.0215e-07
-0.0019508
-0.000439117
-0.00104038
0.000161361
-8.64998e-10
2.91216e-06
1.11297e-10
-1.53537e-07
8.69786e-08
0.0067343
1.89913e-08
-2.28323e-06
9.61472e-09
1.94659e-09
-2.1184e-05
-0.000957847
0.000144963
1.25062e-06
8.33953e-05
0.00215157
-1.87335e-09
5.88864e-11
8.95438e-10
1.30707e-07
0.000155735
2.63557e-08
1.12251e-08
-0.0014488
1.08183e-08
-7.54903e-05
0.00126079
-8.05302e-06
4.40793e-10
3.38195e-07
-6.26513e-07
0.00141266
-1.1858e-06
4.20595e-09
7.32065e-10
1.88315e-09
-2.59749e-06
-0.000368785
0.000662295
-5.6414e-10
-9.66675e-05
-3.95247e-10
0.000107216
0.000546013
4.36335e-06
1.85564e-08
-5.94686e-06
6.35096e-05
-3.42314e-09
8.1504e-08
1.82943e-05
2.23946e-09
-0.00100247
-9.64927e-05
-2.5886e-10
0.00125398
-1.57859e-05
2.83736e-09
4.82363e-10
-5.53977e-10
1.43924e-10
3.33621e-07
-2.91469e-08
1.67547e-08
-3.83217e-10
6.5813e-08
9.77329e-09
4.85134e-08
1.27362e-09
-0.000323324
1.54275e-08
-1.091e-09
-8.52804e-05
0.00036121
-0.000820987
-1.16759e-09
-1.37962e-10
9.9141e-08
-5.6625e-06
2.73164e-09
2.20769e-09
-4.01887e-05
-0.000330659
2.21764e-09
1.15967e-09
9.4556e-10
-1.12477e-08
-6.15205e-06
4.8739e-09
-1.66816e-09
-0.000136796
3.02683e-08
1.98859e-09
0.00037817
0.000656322
-0.000662015
3.71441e-07
9.46853e-10
-1.83231e-07
0.000310686
-3.73807e-09
2.58925e-09
-4.93199e-08
3.80322e-08
-0.00230976
-7.25821e-07
3.79646e-10
-1.45197e-09
-1.86544e-08
-0.000495237
-5.2101e-10
-3.23545e-09
4.20265e-05
-0.00139213
-0.000565575
1.53668e-10
-0.000893872
-2.98279e-10
6.21223e-07
-5.48656e-11
-0.000987795
-5.08003e-10
-1.70157e-07
8.87505e-08
3.22111e-07
9.61363e-08
-2.39576e-06
5.08197e-09
-0.0024854
2.22827e-07
0.00068615
3.93221e-09
-1.78153e-07
0.00607354
-2.64172e-07
-4.0969e-06
-9.22158e-10
-2.70778e-10
8.48712e-08
-4.16018e-07
-2.16393e-07
-0.000607188
2.68743e-05
-7.18618e-10
-3.10339e-09
-0.000175341
2.03795e-09
9.56418e-05
-0.000695172
-0.000624603
-0.000108326
-0.00947183
-4.40508e-05
2.06064e-10
-0.00271127
-5.24602e-07
0.00186969
-1.951e-07
3.77856e-05
0.00597587
5.03974e-09
-2.11998e-09
-8.63902e-09
4.48752e-10
-0.000124868
1.01881e-05
-4.47427e-07
0.00163287
1.01933e-10
-8.69558e-10
-9.80833e-05
-0.00143303
1.09158e-09
-6.41835e-08
-1.16673e-09
1.87332e-09
-2.15835e-07
-0.000500928
-0.00462559
2.89906e-09
2.57006e-05
-1.0372e-08
2.94022e-10
-8.12445e-06
7.61092e-09
-1.62885e-07
-0.0697763
-1.97231e-09
0.00212514
-7.09881e-11
-8.39917e-09
1.37109e-08
-1.01717e-06
-0.000773588
0.00047514
-4.26408e-07
-1.34053e-09
4.27266e-10
6.69597e-08
-7.53172e-08
1.40273e-09
9.5195e-09
3.02855e-07
8.24786e-06
-0.000237454
-7.44398e-06
5.33306e-06
-5.68114e-07
-0.00126123
-0.000293685
-3.00894e-07
1.28741e-09
3.58715e-07
-4.11705e-06
0.0140982
8.84655e-08
2.20243e-05
-1.92676e-08
-2.35785e-08
1.43015e-05
-1.7714e-09
4.85673e-05
1.6412e-08
-7.42568e-08
-1.97152e-06
0.000754638
2.73064e-09
6.95543e-08
0.00285948
5.73428e-05
0.000316814
1.9158e-08
2.2727e-05
-6.19496e-05
3.32598e-07
1.11638e-09
0.000911602
-2.20351e-06
-9.26069e-06
-2.37109e-05
5.34165e-12
-0.00106144
1.26256e-07
-7.93408e-09
3.39826e-07
1.22308e-09
-0.0023794
1.03746e-07
-4.06459e-06
0.00109137
-8.78158e-07
0.00541249
-1.69066e-05
-5.71005e-05
0.00144878
5.87275e-10
5.25925e-09
2.60163e-09
-0.000645248
0.00161593
0.000437996
0.000445555
-0.000219635
-0.00050726
4.45882e-09
3.96835e-09
1.24298e-09
0.00894313
0.00938202
8.44483e-08
-0.000601119
4.42524e-10
-0.000663892
1.69685e-08
3.93296e-09
0.000788353
-7.41286e-07
2.54128e-08
-0.000150447
-1.45932e-07
-3.53226e-08
4.39387e-08
-2.00431e-08
-1.25453e-05
5.08856e-05
1.99157e-09
9.93361e-10
-0.000128322
2.47314e-06
-0.00794691
-2.00277e-10
1.85157e-09
-1.38092e-06
-3.56316e-10
1.71337e-06
-0.00028454
3.12731e-07
-7.90603e-10
4.5078e-05
-6.23231e-10
-0.00693847
-1.57672e-06
2.90775e-06
9.31861e-10
-1.93423e-08
-0.00106462
4.70233e-05
1.19261e-08
5.02716e-10
2.32811e-09
-2.51709e-09
-1.88315e-06
2.65613e-09
2.50498e-09
-5.30716e-06
-4.85754e-07
2.48529e-07
1.75204e-09
8.68603e-09
0.0010359
-5.82393e-10
-0.00523091
-1.75034e-05
6.35052e-07
1.50347e-07
-0.000340381
0.000491026
-3.63161e-07
0.00325476
0.0111096
-5.34518e-05
0.00213943
1.36136e-09
0.000537372
1.63152e-10
5.15179e-05
-5.05916e-10
0.0036805
1.16913e-09
-0.00129252
-0.000335465
-1.7656e-05
3.94393e-10
0.000155776
-0.000182261
0.00241629
1.43216e-08
-2.13001e-05
3.64209e-06
0.000659367
-1.3879e-06
0.00995535
7.48291e-09
1.27818e-10
-6.91679e-07
-0.000312418
-0.000880009
3.81962e-07
2.12216e-08
-0.000266448
9.73516e-07
2.01757e-07
4.39591e-09
-4.50933e-10
0.000892544
6.75111e-09
-6.62041e-12
2.32168e-09
0.00448353
-0.000223615
-7.41942e-09
0.0107236
0.00149167
1.21281e-11
1.14192e-08
9.88647e-08
-2.2804e-08
-0.0084721
-1.58592e-10
0.000353268
-0.00510168
-3.6279e-10
-1.82362e-07
-0.000520321
-5.4336e-07
4.41429e-09
4.48277e-10
0.00142431
-4.35492e-10
-1.46086e-10
-1.6005e-05
-0.00111668
2.10148e-09
0.0242968
3.28368e-08
-0.000909411
-1.21054e-07
0.000977616
1.24273e-08
1.97419e-09
0.00175689
-1.10367e-07
4.96444e-09
0.00171182
0.00148518
0.000437563
-0.000187512
0.00069104
-0.00144
6.79462e-07
6.86825e-08
-6.78719e-10
1.05312e-09
1.13598e-07
0.000243251
0.00393887
-0.000238808
-2.0055e-09
0.000154666
4.41602e-05
3.45966e-08
3.56983e-09
1.26703e-09
8.83891e-08
-0.00650199
-3.91491e-09
0.0032603
-1.93704e-07
2.40777e-08
1.081e-08
-6.91605e-06
-0.0684486
1.38226e-07
-4.87109e-09
-0.00114419
0.00054072
0.00022004
-9.45291e-06
9.24627e-09
2.10982e-09
0.0162938
-3.37352e-07
0.000172092
-2.81319e-10
3.84294e-10
-0.000901873
-8.46972e-11
2.88797e-06
-4.57204e-05
-6.45834e-05
6.77654e-10
-1.86947e-10
0.000945835
2.79515e-08
2.50651e-09
-9.3401e-10
2.53248e-06
1.3234e-05
0.000314732
-9.33133e-08
5.04647e-07
-5.5464e-07
-0.00195414
1.05013e-08
0.00349147
2.326e-10
2.01059e-09
3.45605e-07
5.44661e-05
-5.56623e-11
-2.11042e-09
2.48884e-08
1.13949e-09
-2.17874e-07
-5.54214e-07
4.22755e-09
1.69578e-10
-0.00109284
0.00371716
-1.15935e-09
-2.45401e-09
-5.74794e-05
0.000416798
-3.71632e-07
1.18626e-07
0.000362649
1.91808e-05
-2.68508e-08
-9.10437e-06
-3.97055e-08
9.42896e-09
8.73819e-09
7.71899e-10
6.56093e-09
1.1427e-09
-3.89439e-10
6.49878e-08
4.36539e-09
5.42428e-07
1.07065e-07
3.1289e-11
-5.49107e-09
-7.78288e-05
0.000246488
-5.25489e-06
2.2749e-09
-0.0311709
1.44373e-08
1.18284e-07
5.5158e-09
8.19245e-09
6.37038e-06
-1.63692e-06
2.56486e-09
-1.02021e-06
-2.99828e-09
-1.24608e-06
4.78108e-09
-0.002382
0.000840959
0.00119362
0.014412
-9.30534e-11
0.000121311
0.000162073
-0.000148524
1.6347e-06
-0.000463743
-6.00147e-08
5.85513e-09
-0.0012639
1.06236e-09
4.14332e-09
1.41382e-09
-2.67584e-07
9.61421e-10
1.13891e-09
0.000641239
1.66301e-07
4.32053e-06
1.34754e-08
-7.75974e-06
-2.70486e-09
2.34318e-09
-6.82255e-10
-5.61523e-10
6.65803e-09
1.49644e-08
2.09041e-08
-9.94933e-06
0.00125671
-3.94986e-10
0.000500637
0.00167702
-2.35652e-10
9.45506e-08
0.00066251
-0.00610428
5.56263e-10
6.96842e-11
0.000877417
4.52888e-09
4.45009e-09
-1.49472e-05
4.1119e-10
-9.12959e-11
4.25328e-10
1.59171e-09
0.000505929
-0.00124804
2.82862e-08
8.60035e-10
3.45969e-09
-9.4998e-09
5.14484e-07
-3.24142e-09
2.09875e-09
2.07093e-10
0.000781159
-0.00154902
2.3581e-08
7.49625e-06
-0.0109374
9.34434e-11
0.00127215
5.82002e-08
1.49259e-08
-9.77483e-10
-3.13026e-10
9.39643e-08
5.94268e-08
-0.000919879
6.68635e-09
2.27255e-06
0.00796903
-0.000519607
-0.000452203
9.3884e-10
8.67017e-08
-4.03505e-08
0.00017536
1.33516e-07
3.35654e-08
2.01655e-07
6.61784e-05
4.87623e-09
8.79575e-09
5.63268e-05
-0.00262447
-4.117e-06
1.0747e-07
1.04047e-07
0.00025748
-0.000662463
0.0013337
1.39955e-09
-3.13247e-09
-3.47176e-10
-0.00407841
1.49751e-05
4.18984e-09
-2.65968e-07
-0.000198767
0.00108447
-1.87653e-07
4.65518e-11
3.66506e-05
4.97382e-09
-1.75734e-10
6.92731e-08
1.72584e-08
0.104871
-2.75831e-10
-2.83975e-07
-1.35966e-09
0.000154388
-0.0040869
9.4426e-06
0.000820241
-7.91735e-05
0.0054479
0.000498956
6.56439e-08
-9.47117e-07
7.39281e-09
-0.00139663
8.34029e-10
-5.6323e-05
4.78838e-08
-2.48356e-05
-2.50648e-06
-0.000166925
-0.000208466
1.01132e-07
-1.6243e-09
0.00021206
0.00199666
2.264e-11
0.000898525
-7.28089e-08
2.64905e-09
-6.42702e-08
-0.0011841
-9.14325e-10
-1.5568e-05
2.84559e-07
7.81191e-12
0.00347806
-1.25676e-06
3.18151e-06
6.62136e-09
-1.02634e-05
-0.00176444
-1.706e-07
5.7152e-05