/*--------------------------------*- C++ -*----------------------------------*\
| =========                 |                                                 |
| \\      /  F ield         | OpenFOAM: The Open Source CFD Toolbox           |
|  \\    /   O peration     | Version:  v2012                                 |
|   \\  /    A nd           | Website:  www.openfoam.com                      |
|    \\/     M anipulation  |                                                 |
\*---------------------------------------------------------------------------*/
FoamFile
{
    version     2.0;
    format      ascii;
    class       volScalarField;
    location    "400";
    object      ddt0(k);
}
// * * * * * * * * * * * * * * * * * * * * * * * * * * * * * * * * * * * * * //

dimensions      [0 2 -3 0 0 0 0];


internalField   nonuniform List<scalar> 
15335
(
-3.22867e-06
4.94166e-07
1.6169e-06
-1.83726e-12
-6.44881e-10
5.58153e-12
-9.15592e-09
-2.23591e-11
5.60236e-12
1.8778e-10
-3.36302e-11
-2.18408e-12
1.56126e-08
5.53425e-09
1.69423e-09
1.81831e-11
4.54885e-07
-3.89165e-07
1.00356e-11
8.01162e-10
1.41333e-12
9.30301e-05
5.92448e-10
-5.22433e-13
1.7418e-06
-1.09215e-05
1.46593e-08
3.89346e-12
1.20944e-09
5.78995e-07
-1.76384e-11
-2.78012e-08
3.15823e-12
6.38072e-09
-1.4544e-10
3.4882e-08
1.81317e-10
-5.06063e-09
9.18637e-10
-3.04536e-07
-7.47556e-12
-1.7677e-05
5.29871e-12
-4.58201e-08
8.89475e-07
-5.13525e-12
-2.10061e-09
-2.74566e-11
8.28134e-10
-1.01581e-11
-3.85177e-12
-3.72145e-12
4.14471e-10
8.35897e-09
1.7538e-05
3.74727e-08
-6.61375e-08
1.52879e-08
-1.03498e-08
8.71986e-07
4.96041e-07
-2.35491e-10
4.19334e-10
-3.3401e-10
-5.64205e-10
1.93269e-05
1.89261e-06
7.16855e-11
-9.01698e-10
-1.69447e-13
-8.25494e-09
6.72505e-10
3.23322e-10
5.08622e-06
6.60871e-10
6.74542e-06
4.33883e-07
8.87594e-12
-3.13537e-12
5.54666e-08
-1.26332e-05
-1.7895e-09
-1.80285e-09
9.39618e-09
3.45725e-09
-3.85859e-06
2.00033e-10
-1.8416e-08
4.41557e-12
1.05675e-09
-2.89605e-06
4.05335e-08
7.25027e-06
-1.50461e-06
8.16764e-10
1.45368e-09
1.47028e-12
1.87905e-05
-1.10887e-11
1.57448e-05
3.85942e-12
1.83519e-09
3.04394e-07
2.25369e-12
1.34717e-11
-1.05268e-12
3.05427e-06
-8.91929e-10
-3.83132e-09
6.40573e-10
2.92717e-11
-2.35331e-08
-3.69457e-07
-3.46534e-11
-3.24961e-11
-1.37651e-11
-5.52918e-09
-5.02139e-12
-3.83403e-06
1.99828e-07
1.66553e-09
2.76232e-08
2.61227e-06
1.09979e-11
1.51742e-08
-1.91688e-11
3.77737e-12
0.000152416
2.06634e-08
-2.38286e-09
-3.01509e-11
-2.25471e-09
1.98657e-11
-1.91814e-06
7.21892e-11
8.56238e-06
-2.79052e-10
-4.17758e-12
-1.80036e-09
5.21386e-09
-5.41684e-12
-2.69663e-05
-2.6617e-12
-1.1851e-05
1.3126e-06
-1.63618e-10
1.96163e-05
9.98784e-08
3.44672e-11
-6.62769e-11
9.09753e-12
7.39006e-05
-2.8231e-13
-6.87896e-11
-9.88867e-06
-1.53997e-10
4.60278e-08
-5.72993e-10
-2.02241e-11
4.07947e-09
-1.42969e-11
2.10019e-09
3.30309e-10
-3.40518e-08
3.22148e-08
-1.95564e-12
-3.57284e-11
9.47684e-05
-5.56107e-11
-2.71121e-12
1.49501e-10
-5.35289e-12
-4.53561e-11
-1.46826e-10
-1.35997e-09
1.55923e-09
-1.33445e-05
-4.81174e-11
-1.38548e-08
2.21289e-05
-3.03369e-11
-1.11046e-07
-1.89474e-11
-6.92024e-10
-8.503e-10
-6.85538e-08
4.24032e-08
-1.26743e-07
1.32699e-11
3.28765e-06
-1.34218e-11
2.06158e-05
4.96951e-10
-6.32106e-12
8.00383e-11
-1.48473e-05
-1.86872e-11
7.76068e-10
1.72999e-09
-5.14995e-07
9.90977e-09
-1.61957e-09
-2.95733e-11
-1.01178e-07
1.62675e-05
-2.99172e-09
3.09732e-06
3.00292e-12
-2.00324e-08
-8.0087e-07
3.26117e-07
-1.64531e-09
-8.52081e-12
-1.27898e-08
1.63593e-07
-1.26709e-09
-1.69948e-11
-1.06077e-09
-1.71948e-11
-2.17772e-06
1.68622e-09
-4.04904e-08
2.51272e-05
-1.09766e-08
-2.72243e-11
-1.59932e-06
-7.48082e-08
4.66825e-10
-1.60411e-10
3.48214e-07
-1.35255e-10
-4.99643e-08
6.50226e-06
2.22843e-09
3.00502e-10
-3.17854e-10
-1.80109e-10
4.5532e-05
2.36545e-06
6.99207e-10
-9.81671e-09
1.79389e-11
-6.05873e-08
3.21468e-10
-7.66997e-07
-1.79061e-09
8.66023e-06
-1.1062e-09
-4.64857e-05
-8.92604e-07
4.46044e-11
-3.04683e-11
-8.80844e-07
-7.02741e-09
-3.77508e-12
4.86921e-05
5.50519e-10
3.20408e-11
2.37589e-05
-4.65299e-12
1.86524e-05
1.90659e-05
1.74439e-06
-1.39482e-07
-3.38418e-07
3.46881e-06
-1.03886e-05
1.51105e-11
-3.32728e-08
6.34569e-12
-2.41691e-07
3.17912e-12
-1.13489e-05
6.21829e-11
9.23584e-10
3.69714e-06
-1.40177e-06
1.00828e-08
8.61456e-11
1.30635e-05
-3.5841e-12
1.28323e-11
1.02143e-09
3.91693e-11
-2.63323e-07
3.77781e-11
4.17109e-09
-9.0315e-13
1.32591e-07
-1.20314e-10
-4.10315e-07
-6.77069e-10
-3.06387e-11
-6.70815e-12
7.42959e-06
1.18316e-09
2.32533e-10
-2.98381e-11
1.66565e-11
1.04237e-09
-1.56481e-07
-3.12594e-08
7.45744e-05
-1.95036e-07
-1.90732e-05
-4.78107e-12
1.28103e-12
4.37453e-07
6.97909e-06
-6.84369e-08
-1.10501e-06
-1.92595e-11
1.39686e-07
-1.16503e-05
-8.37147e-12
-1.18204e-08
-1.47399e-10
-1.9973e-11
-6.97009e-12
-2.34082e-11
1.83839e-11
-4.3293e-12
0.000105288
1.17311e-05
1.34811e-09
2.82335e-06
-2.77454e-07
-1.28124e-10
7.04114e-11
3.32961e-10
-4.55424e-12
0.000111231
4.82997e-06
-5.83861e-09
4.06013e-11
-2.50247e-12
6.12389e-12
9.54335e-11
1.17506e-08
9.76874e-07
-7.13553e-10
-7.73275e-09
-1.74842e-07
-1.49574e-09
2.59868e-11
-1.39276e-05
1.08681e-09
-4.02009e-05
2.19888e-10
-9.00726e-11
8.26208e-08
-2.31256e-10
-1.70673e-11
-8.17122e-05
0.000119344
4.46851e-10
1.02612e-08
3.32663e-12
2.36436e-13
3.08657e-05
-2.36909e-13
-4.45183e-12
7.90379e-10
1.48765e-12
6.22151e-06
-1.43141e-08
-2.43158e-10
-3.9074e-11
1.03303e-09
1.84755e-11
5.49382e-10
1.07151e-11
2.04964e-09
-1.55198e-12
6.01185e-12
-1.18406e-11
2.57601e-12
1.38119e-12
1.39307e-11
4.52922e-08
-4.96006e-05
2.13205e-08
-1.14936e-07
-5.29729e-08
-1.61644e-06
-2.64756e-10
-1.00343e-11
4.3305e-05
-1.04441e-10
-3.93155e-12
1.17779e-11
-2.19785e-08
-1.65168e-11
-1.69682e-10
5.96714e-05
1.127e-09
3.24584e-11
4.92607e-13
3.51994e-13
4.82586e-05
2.14071e-09
1.06314e-06
7.70778e-08
-1.00922e-11
2.17011e-11
2.73621e-09
7.03303e-12
3.20944e-11
-1.35303e-07
3.04646e-11
-1.22299e-11
1.47277e-10
1.61183e-12
2.59582e-10
-3.68336e-08
-1.95716e-11
1.8702e-11
-1.46457e-09
-6.67084e-11
-8.47393e-10
-8.01947e-10
-1.43569e-11
-9.9451e-07
1.10345e-11
3.1206e-09
-8.66444e-07
1.14668e-11
-6.3778e-11
-2.84934e-11
-1.59851e-06
1.43222e-05
-3.41901e-09
-3.97953e-11
9.48233e-07
1.04722e-12
5.15255e-12
-9.153e-06
-1.81487e-09
-1.35113e-11
2.29567e-09
3.44043e-12
1.6254e-10
-4.48857e-12
4.12483e-06
4.47559e-10
1.37357e-05
-6.42716e-09
1.73846e-11
6.21483e-10
9.62013e-06
-4.0322e-09
-1.10927e-05
6.25995e-12
5.45351e-07
-5.76023e-12
-2.43744e-10
-1.70478e-09
-3.70967e-06
-9.59684e-09
3.37793e-11
-5.91031e-10
-2.56416e-09
1.77253e-08
-5.98382e-10
-6.823e-08
2.06509e-06
-3.57243e-11
5.21758e-07
4.47006e-10
1.94415e-10
-1.34575e-11
-6.72037e-06
-1.77953e-11
3.43709e-05
1.02794e-10
-3.64685e-11
1.35011e-11
-1.59281e-10
1.11828e-07
3.19849e-11
1.19063e-09
4.56684e-10
4.72927e-10
-2.34381e-12
6.70802e-13
-4.89207e-05
7.64827e-10
1.80775e-10
-2.90115e-11
5.79933e-11
1.5026e-08
-3.16122e-08
4.62097e-12
3.40223e-12
-5.78856e-06
8.6202e-06
-2.49728e-06
-9.18156e-10
1.5758e-09
-8.73304e-08
2.10579e-08
-1.87347e-05
7.15117e-11
-5.69828e-10
-3.4816e-12
1.09195e-09
-6.6443e-10
-8.50591e-08
-3.58571e-12
4.21494e-10
8.77564e-10
-1.61315e-08
4.43108e-05
-2.06039e-07
-1.93095e-06
5.44909e-12
8.33255e-11
6.64717e-12
9.17525e-09
2.93822e-05
5.74587e-07
2.35605e-06
3.60001e-10
1.26121e-11
4.05514e-06
1.14632e-10
4.9872e-05
7.74851e-10
-3.29807e-11
4.06484e-10
-1.90931e-10
-4.53772e-09
-1.41389e-05
1.52257e-10
-6.51699e-08
1.95593e-09
-0.00010812
-1.27404e-07
-8.52089e-12
-1.33908e-11
1.17749e-08
-5.13997e-08
1.64508e-11
8.51298e-06
9.24195e-12
1.28566e-05
4.8128e-06
2.03181e-11
3.16718e-09
-5.94604e-09
-1.25253e-09
9.02967e-12
-5.01503e-12
9.94444e-13
6.06664e-06
1.18922e-05
-3.97601e-12
8.58829e-10
1.75894e-11
1.09837e-05
-7.52018e-09
1.12369e-10
1.55955e-09
5.59725e-11
5.39083e-05
-1.64369e-10
-1.73372e-09
-1.82854e-09
-1.07063e-05
1.51754e-05
6.1299e-06
1.71663e-12
-1.34877e-12
4.33065e-09
3.25999e-10
-1.62643e-12
1.13261e-11
-2.99088e-12
9.91163e-11
4.61541e-05
8.0724e-06
1.18541e-06
-8.91294e-10
-1.75163e-08
9.69712e-10
9.4406e-07
-6.9454e-07
2.48498e-05
1.77972e-09
-2.35759e-11
-2.91224e-11
9.88951e-10
-4.16681e-06
-2.45051e-11
-4.21595e-12
-1.14043e-06
-2.13e-09
4.41258e-05
-3.3833e-11
-1.28257e-06
-1.31168e-09
-1.26533e-09
3.28693e-06
3.16477e-05
-2.09088e-10
-5.17463e-12
-1.20186e-09
-3.95391e-10
3.11951e-05
-1.23527e-09
4.17262e-05
3.33666e-06
7.2918e-06
6.53468e-13
-2.95052e-11
5.31905e-08
-6.45809e-09
-4.06079e-05
-1.07828e-10
1.59334e-11
1.3636e-11
1.7107e-10
6.78749e-11
-9.43081e-10
-1.12705e-08
-3.70214e-11
-6.69539e-13
1.02003e-12
-4.92459e-09
4.28806e-10
1.10233e-11
7.47005e-08
-3.71023e-12
-1.03345e-09
2.50059e-09
2.29655e-05
3.97913e-08
9.44904e-11
-5.05081e-11
-1.92625e-10
5.14125e-09
8.66135e-12
-1.78659e-12
1.88894e-06
1.80368e-11
7.28689e-08
4.69043e-10
6.61671e-12
-1.68909e-11
-2.25064e-06
-2.46513e-05
1.77922e-11
-2.13795e-11
-2.97209e-11
1.0019e-05
-3.12704e-11
-1.4937e-05
1.50537e-10
-9.35044e-10
3.34552e-10
-1.14169e-10
-1.66048e-09
-1.0981e-07
0.00010779
2.76187e-11
-2.70973e-06
3.05101e-11
2.19467e-11
-5.90354e-07
-8.18645e-12
-8.98068e-10
4.22973e-10
6.09494e-10
-4.32436e-12
-9.77002e-09
5.75762e-12
8.96795e-12
2.34359e-12
-4.08779e-11
-1.43235e-07
-3.24866e-11
3.45496e-06
1.00355e-11
-1.6799e-11
-0.000104507
-6.93688e-06
-5.34119e-10
-3.44487e-11
4.36762e-10
3.39984e-12
3.3983e-08
1.77707e-08
5.39421e-12
1.9827e-09
1.64007e-11
3.74976e-06
-1.24769e-06
3.37574e-11
-3.11924e-11
-9.42872e-07
1.87921e-10
-4.72518e-06
-5.99211e-06
-1.19312e-11
6.05416e-12
1.42386e-07
3.34323e-09
3.19093e-09
-1.69609e-09
1.95785e-06
-1.36448e-12
1.74744e-11
3.12288e-07
6.88116e-12
-2.70203e-11
-1.42102e-05
-1.47173e-07
-6.02753e-07
1.22804e-09
-3.01123e-11
-2.21718e-11
-2.42274e-11
1.31272e-10
-2.61321e-10
6.97481e-09
-1.01014e-09
7.27463e-07
1.21587e-05
-2.0281e-09
6.59133e-06
-1.38429e-05
1.60319e-08
8.40974e-11
-4.5329e-11
-4.66004e-12
-4.57968e-11
-4.73117e-12
7.38944e-10
7.69602e-13
-5.11261e-10
8.90817e-11
3.2717e-12
9.14066e-06
-9.77663e-06
-5.22255e-13
5.94864e-09
1.51665e-11
2.8063e-05
1.72656e-09
-6.27748e-08
-2.60346e-12
1.44589e-09
3.45163e-10
-4.09531e-09
3.4853e-10
-6.00226e-10
6.04216e-06
-9.51022e-09
-1.26279e-09
7.42306e-06
1.19548e-11
-1.26482e-05
-1.85389e-11
1.26519e-06
-1.0512e-11
4.41085e-06
1.24283e-11
1.94322e-12
-9.67859e-10
-2.052e-07
2.52545e-09
2.32413e-11
-2.28089e-08
-3.0114e-08
1.02481e-08
1.03426e-09
-4.78742e-09
3.13936e-07
1.78418e-11
4.34217e-07
-2.69261e-07
6.22426e-11
-3.21558e-11
6.78334e-12
-1.21943e-05
3.27158e-09
-1.64776e-11
4.75837e-08
-6.55459e-08
3.02321e-09
-4.15542e-05
1.92158e-07
2.65899e-10
3.23743e-08
1.90825e-11
2.99304e-05
4.439e-09
9.04996e-11
-5.32275e-07
3.07182e-10
3.23841e-08
-8.8979e-11
-1.4113e-11
-4.44557e-11
8.82465e-07
-2.50334e-12
-5.00391e-10
2.41412e-11
-6.86403e-10
6.88515e-07
9.03426e-10
-1.04378e-07
3.63587e-08
2.43686e-09
3.57793e-10
3.23166e-07
-5.7559e-12
-1.4955e-11
1.21548e-10
-5.90977e-08
3.05926e-10
7.31232e-09
-7.23349e-13
-4.12941e-08
2.23084e-11
-1.66389e-11
-7.17858e-12
-1.48304e-08
3.03134e-05
4.2012e-10
-2.92097e-07
-6.41466e-08
4.56631e-10
2.78574e-10
1.90081e-05
-2.38557e-11
-1.20791e-15
-5.14698e-12
4.14377e-13
9.5845e-10
-4.29701e-08
-1.49726e-10
-1.7129e-09
4.95762e-13
5.74721e-11
-3.76075e-12
2.68737e-11
-3.19076e-06
6.96365e-09
-9.89233e-11
6.59512e-12
-2.93115e-14
1.18978e-11
-3.04605e-10
-8.58398e-10
2.80926e-11
-1.42492e-11
-2.12756e-05
4.84738e-12
5.47025e-06
-6.87591e-12
-5.11611e-13
-2.60015e-07
1.03612e-11
-2.12348e-07
2.75588e-06
-3.60413e-06
2.34521e-06
3.01697e-11
-1.02102e-08
7.14789e-08
-5.83465e-09
-2.06411e-10
-1.92462e-11
-2.33047e-07
-3.91236e-09
5.81124e-10
1.71623e-09
-4.89782e-12
-7.70734e-07
8.06063e-09
8.83115e-07
-3.19986e-10
1.00884e-12
3.50238e-11
6.34043e-11
-1.82831e-08
5.64302e-12
2.22526e-07
0.00013385
1.04538e-12
1.65765e-09
1.08265e-11
2.74954e-11
-4.78771e-11
-2.79342e-10
7.0994e-06
-3.27387e-11
4.44383e-05
-1.68884e-05
-4.55568e-12
1.81927e-05
-1.02101e-11
1.00166e-10
6.44928e-08
4.91659e-11
2.07592e-09
-1.17023e-10
8.58324e-06
-8.38321e-11
-6.93451e-09
1.98072e-11
1.27839e-05
8.77173e-10
6.65465e-10
-1.06139e-09
2.58624e-09
-8.69211e-12
5.13189e-08
-5.91324e-10
-2.4411e-11
-8.25642e-12
1.60949e-11
-2.15277e-06
4.72958e-06
-1.37763e-10
3.51383e-05
7.86106e-06
-1.77752e-09
-3.21969e-06
9.58594e-06
-1.61049e-05
-4.81096e-08
9.72698e-06
1.38737e-06
1.3973e-11
-9.06111e-12
5.83352e-10
2.21786e-11
-4.38266e-12
-1.6178e-08
-1.36915e-08
1.34219e-05
6.30835e-12
2.83161e-05
-2.70454e-10
2.16564e-08
1.11569e-05
-4.6394e-10
-2.82014e-11
1.31417e-07
-2.02599e-10
4.51286e-10
-1.71008e-05
-1.02346e-09
4.16096e-11
-8.19454e-12
3.87312e-05
1.50158e-11
-2.6957e-05
2.41187e-11
-5.32667e-10
3.28955e-08
-2.99815e-08
-1.23956e-06
1.46282e-09
-1.34848e-05
-2.40295e-10
9.28096e-12
-4.83967e-08
4.43775e-10
1.84179e-08
1.90347e-11
-2.56048e-10
3.73207e-06
3.66637e-05
3.22076e-11
3.27661e-07
-9.21965e-07
1.35555e-11
-2.62985e-05
3.17784e-11
-6.36677e-11
-3.72382e-06
4.54527e-06
-1.65989e-12
1.84704e-06
3.06806e-08
5.2352e-07
2.69282e-09
1.85756e-10
5.87722e-10
-2.23325e-11
-5.74901e-05
-1.89117e-12
-2.33572e-09
2.99162e-11
1.47732e-09
2.4095e-10
3.28055e-11
-2.15101e-06
-5.23137e-06
2.03628e-11
-1.01996e-09
3.66204e-10
-5.45912e-06
6.67661e-10
-4.83113e-11
1.68386e-07
-1.56724e-12
3.49108e-12
4.15248e-10
-2.9786e-11
3.96009e-11
2.4949e-09
-1.96167e-11
-1.8608e-10
5.2545e-10
-1.38029e-10
-5.62378e-06
3.2456e-11
9.11443e-12
-1.45416e-12
1.48134e-11
1.43908e-05
1.40224e-12
-6.24454e-12
-3.88764e-07
7.50557e-06
1.20663e-12
-2.40352e-08
3.42766e-10
9.16727e-05
3.06849e-09
3.3049e-06
2.52422e-08
1.36539e-10
-2.18217e-05
-8.6602e-12
-1.07875e-07
5.25733e-11
-8.06192e-09
-1.05322e-10
-4.74595e-08
3.42149e-08
5.88098e-12
2.50952e-05
1.87379e-08
1.79025e-05
-1.27285e-07
1.42554e-09
4.52497e-10
-6.12109e-12
4.17309e-08
2.43926e-10
-5.17662e-06
-1.75002e-05
2.06472e-12
-2.97413e-09
3.12901e-11
-1.44334e-12
7.3055e-13
1.91809e-10
-8.93324e-12
5.21847e-08
-2.60936e-05
-3.63022e-10
-4.09061e-12
4.03638e-11
-1.17767e-10
2.37151e-11
-8.34319e-12
-7.17999e-06
1.80622e-09
-8.02435e-06
6.41714e-06
-1.17043e-07
-4.51013e-09
1.89888e-10
4.10765e-05
1.4716e-09
4.10633e-10
-9.90314e-07
4.26998e-06
4.20453e-11
1.3685e-09
-3.86259e-10
1.13811e-09
9.08758e-09
1.65337e-09
-5.16211e-12
-1.69645e-05
4.33844e-06
2.15431e-09
-7.22065e-14
-4.64997e-05
1.75047e-05
-3.85255e-11
-2.66969e-10
2.97567e-13
-2.85358e-10
-3.27782e-11
7.47276e-12
1.55463e-11
4.1169e-07
2.60606e-12
8.94729e-11
6.41717e-09
-5.0743e-12
2.18459e-05
6.39217e-12
-5.85089e-13
-3.7222e-12
3.80065e-11
2.12411e-09
2.64418e-08
-3.98635e-10
3.31416e-10
5.66964e-08
-1.71779e-11
1.93866e-11
-1.23259e-10
1.21819e-09
7.23283e-05
0.000150772
6.57776e-11
6.91077e-10
1.9619e-05
1.32354e-09
-6.91207e-12
8.39248e-13
6.68341e-12
5.82634e-12
3.81693e-09
-1.12209e-09
-1.93603e-12
8.48584e-12
5.02954e-10
2.9179e-05
-3.56532e-08
9.67808e-12
-2.99051e-08
-6.71116e-06
2.4723e-09
2.74762e-07
-8.44235e-10
1.22491e-05
5.31914e-07
-9.64244e-07
1.76744e-11
1.38626e-06
0.000243296
-1.36195e-07
1.39076e-05
7.13817e-07
-1.35961e-10
-5.73434e-07
-3.43485e-10
3.03955e-06
-1.06769e-05
-7.16232e-05
-4.38594e-05
3.89745e-11
1.64368e-06
1.92645e-11
-3.7102e-12
-1.17588e-09
1.3231e-06
2.35104e-09
3.70472e-08
9.6085e-11
-4.07123e-12
-4.16754e-10
1.87665e-10
1.59137e-09
2.15942e-10
8.79653e-07
3.34188e-09
-4.05861e-09
1.7773e-08
-7.59403e-12
4.81442e-09
-5.50083e-12
2.1714e-09
4.59701e-11
-4.05824e-10
1.05268e-10
1.6111e-11
4.99956e-10
2.11384e-10
-1.98864e-11
6.47809e-11
6.5836e-08
1.58971e-12
4.00637e-10
1.61247e-05
2.34458e-05
-1.26491e-07
-7.43682e-08
-6.47903e-12
-1.41897e-05
-3.13008e-09
0.000167281
-4.26896e-11
2.75582e-11
2.05145e-11
-3.59889e-07
-2.27211e-11
3.07686e-11
1.59195e-06
2.84605e-07
-1.4185e-05
-1.33571e-05
4.2441e-07
6.88625e-06
2.88194e-11
5.14486e-11
8.25671e-06
-1.42585e-05
1.55318e-11
4.40692e-11
4.18114e-11
2.10626e-06
4.1521e-10
-7.41668e-06
8.0389e-07
-9.63378e-06
1.74129e-05
-1.23181e-09
-8.40109e-10
4.28826e-07
-1.85132e-05
1.49422e-05
4.27704e-11
4.47888e-06
4.31393e-11
-2.26412e-07
5.59148e-11
3.3838e-11
5.38823e-11
-1.8139e-12
-1.57378e-05
8.248e-12
3.56596e-08
7.88167e-08
-9.80677e-06
8.88291e-11
7.41176e-10
2.52454e-09
2.64511e-05
3.71198e-06
1.30626e-10
7.47949e-08
-1.44879e-05
3.69056e-12
1.1385e-10
5.32138e-12
3.93141e-11
1.56816e-08
-1.11237e-07
1.74742e-11
-1.33223e-09
3.67973e-05
-2.70475e-11
4.47961e-11
3.42869e-05
-1.03945e-06
7.44558e-10
3.45672e-12
-5.70115e-12
4.44088e-06
-5.20599e-10
-4.89012e-07
-3.25349e-12
1.07813e-09
3.40407e-12
4.49417e-06
2.03218e-05
2.1882e-10
-5.34164e-11
1.79886e-11
-9.22777e-07
3.43827e-10
2.70101e-09
5.64522e-10
-6.44259e-12
-1.13177e-05
-4.72287e-09
-5.89393e-09
1.05282e-11
-2.54375e-10
1.05392e-11
-5.71187e-06
-1.24575e-07
1.33876e-09
-1.22295e-06
-1.61486e-05
6.65087e-06
-5.12852e-10
-5.69778e-07
-1.16995e-06
4.73812e-11
-2.39864e-09
-1.11117e-07
-1.811e-06
-5.56085e-12
6.9694e-12
2.64299e-05
-1.11703e-07
-1.63835e-12
6.40455e-09
2.78628e-11
1.18221e-08
-5.97296e-07
-2.47429e-10
-7.76483e-06
-6.66858e-06
-1.0316e-11
1.02307e-10
-1.12223e-12
3.353e-12
-5.3836e-12
-2.80051e-11
-3.31651e-06
-6.00984e-12
4.971e-12
-1.00872e-07
-8.60722e-05
1.47407e-11
-1.35751e-06
-2.25478e-11
3.19727e-12
6.34716e-11
-6.78271e-12
-6.17165e-11
-4.11504e-11
3.91084e-10
-2.00047e-05
1.34518e-06
-7.38593e-09
7.55204e-06
-3.86303e-05
-1.54927e-08
-1.018e-10
2.63678e-06
-1.40395e-10
-4.17286e-11
6.98743e-10
-9.32023e-06
6.13109e-06
7.29771e-05
0.000150338
-1.14711e-05
-1.32291e-10
6.99155e-06
-6.56249e-09
2.24338e-05
-1.24416e-05
3.02626e-11
-1.68771e-09
-6.51873e-10
-2.479e-11
3.65968e-13
-2.57222e-11
-1.45608e-05
-2.99581e-11
-1.1535e-09
-2.19568e-11
1.61909e-05
2.11181e-13
6.34645e-06
3.5235e-12
-2.04385e-08
1.11172e-05
-2.11957e-09
-1.18183e-11
2.25127e-09
3.05669e-09
-1.85032e-07
1.52143e-07
-4.27073e-11
-4.27132e-13
-3.58049e-07
-3.80739e-09
1.17802e-06
1.90118e-08
-7.33101e-06
-6.1272e-10
-4.34938e-11
1.67841e-11
-1.56067e-10
1.12379e-09
3.32748e-11
-1.0976e-11
-4.03038e-10
1.87331e-11
6.90047e-13
-3.43204e-09
2.71031e-05
3.23747e-11
-1.94981e-12
2.38282e-05
-1.33467e-06
7.70987e-11
4.73283e-08
1.20632e-05
2.42969e-12
9.75246e-10
-3.34981e-07
6.4265e-11
1.68896e-05
7.55907e-06
2.0571e-11
9.03115e-10
1.73075e-05
1.14504e-11
-4.30127e-11
6.52227e-09
-8.7832e-08
-9.8169e-12
-3.92895e-05
1.87493e-06
-9.94972e-09
-4.5386e-10
5.23213e-08
-1.38904e-06
4.78883e-12
-8.39418e-12
6.33075e-11
2.23128e-10
-9.12979e-06
-6.20691e-05
1.96921e-05
-2.70064e-06
9.36275e-06
-4.48305e-11
4.005e-11
1.48366e-06
5.05125e-11
-5.55011e-09
2.12694e-09
-6.87955e-10
-3.04527e-11
1.9671e-09
2.03829e-10
-6.99744e-10
2.94018e-05
2.54378e-05
3.70702e-08
8.33341e-06
7.31439e-10
9.64926e-11
4.1509e-07
2.12774e-05
3.39632e-07
3.28178e-06
7.92345e-10
6.81093e-07
-1.80498e-05
2.52969e-09
8.59312e-12
2.4249e-06
1.38509e-09
6.79023e-07
-1.02336e-11
-1.05932e-09
1.33413e-09
2.81067e-08
9.93862e-11
1.30682e-07
3.93781e-11
-5.24104e-12
2.08448e-10
-5.95085e-06
-8.52647e-06
1.06195e-09
2.41436e-09
1.88791e-05
-6.20803e-06
-4.62999e-12
-2.02443e-11
-1.117e-09
-2.47342e-07
2.42316e-10
-1.83301e-11
5.88085e-11
-3.77189e-11
1.29681e-05
-8.39837e-10
-5.44453e-07
-2.09225e-10
-6.64768e-10
-7.46366e-05
1.01701e-11
2.22083e-10
-1.283e-09
5.99076e-10
1.0153e-10
8.44144e-11
3.17794e-11
2.35352e-09
2.40179e-07
-5.70607e-10
-1.32738e-08
4.88391e-10
-6.37703e-13
2.9953e-10
-1.53932e-10
6.37034e-06
-4.87018e-10
-5.01232e-06
2.07389e-10
1.38822e-11
3.07108e-10
9.97785e-11
3.97549e-10
-6.76527e-11
7.62982e-12
1.27356e-11
1.81147e-11
1.08381e-05
3.52373e-11
-7.32314e-09
-1.09368e-11
-2.39166e-05
4.41741e-05
5.87678e-05
2.12037e-11
2.26513e-05
-6.73567e-10
-4.81606e-09
-2.84112e-13
2.70304e-13
5.69397e-06
2.71507e-09
1.60755e-10
-3.46734e-08
-7.46667e-06
-9.37606e-09
3.94375e-05
1.11918e-09
2.23359e-05
-1.03134e-05
1.01844e-10
3.71023e-12
2.36431e-10
3.41339e-08
-5.74215e-12
-4.1009e-13
7.92647e-10
-1.20835e-05
-1.70381e-07
-1.33867e-07
5.62401e-11
3.31943e-10
-6.55428e-06
1.11842e-05
-1.47052e-05
1.50914e-05
0.000109658
-6.96818e-12
6.52756e-06
4.54722e-09
-1.00535e-08
3.06249e-06
2.20881e-11
1.00687e-10
-4.51958e-09
3.5526e-05
-5.63043e-08
-9.59916e-06
-4.81054e-12
2.4311e-09
-1.91114e-11
1.23491e-07
1.07186e-05
2.49077e-09
2.34879e-08
8.78559e-09
1.10593e-10
-2.58281e-09
-5.53321e-12
2.0949e-07
2.32369e-06
-2.66011e-09
3.48414e-10
-1.46592e-10
-3.03886e-07
2.61053e-05
-1.24102e-09
-1.28911e-10
-2.35599e-12
-1.54584e-10
1.10361e-11
1.8444e-05
4.59025e-08
-2.68706e-11
-5.81567e-09
1.41437e-10
5.86495e-10
4.59913e-10
8.08238e-12
2.86501e-12
-2.96753e-06
1.31401e-08
1.19332e-08
-2.84062e-11
7.25287e-08
3.27699e-12
-1.13946e-11
-3.10791e-11
4.08484e-11
-1.00039e-11
5.62964e-12
1.89325e-05
2.93203e-12
1.94476e-05
-5.31032e-05
-7.00025e-10
-1.32616e-08
6.58734e-12
1.24401e-05
3.82208e-05
2.42416e-10
1.60385e-06
3.64779e-12
4.61971e-06
-6.71647e-12
-3.11651e-06
1.89117e-09
-6.0546e-12
2.55058e-08
1.02467e-09
5.53679e-07
1.45764e-11
1.09178e-11
-1.36641e-11
-1.41874e-08
3.69343e-10
-4.30553e-13
-5.64997e-08
1.1441e-09
-2.92585e-11
1.01386e-10
5.9689e-06
3.10291e-11
4.12739e-05
-4.51568e-10
-4.92444e-07
3.13106e-09
6.19231e-06
-6.11455e-05
1.30188e-11
1.80864e-11
7.82171e-11
3.97332e-10
4.12673e-05
1.31228e-05
7.06131e-10
-6.81743e-12
-0.000178586
-3.55087e-11
1.16686e-11
-1.23148e-11
2.4458e-07
-1.77267e-11
-8.38374e-08
1.68262e-05
3.78477e-11
3.35769e-07
1.01807e-05
-2.26221e-08
-4.89796e-08
-1.54382e-07
1.09134e-05
-3.94103e-06
-3.71291e-09
-4.48293e-06
-3.10351e-11
2.6153e-09
-1.70605e-05
1.75569e-10
1.87263e-10
5.6692e-12
8.286e-06
6.1434e-06
0.000191536
-3.9731e-09
5.23819e-12
-1.37354e-06
-1.81341e-10
-3.90176e-07
3.29002e-12
-1.74627e-06
4.96419e-08
-3.48589e-11
-1.86971e-11
-8.34185e-05
8.732e-10
4.58764e-06
-4.43117e-10
7.23184e-10
-3.79651e-11
-1.28339e-07
6.23827e-11
-5.70034e-10
1.17554e-06
1.62916e-05
-3.34349e-05
-6.06184e-05
-1.11893e-11
9.4851e-06
1.36357e-12
-1.41125e-09
8.55446e-10
2.80101e-06
-1.86267e-11
-7.34608e-09
1.14193e-10
2.25644e-11
-4.23565e-08
-9.26702e-06
4.56957e-05
5.36457e-09
-5.09092e-08
6.79972e-06
-2.42493e-11
1.55385e-12
1.17814e-11
-7.12897e-10
7.00059e-07
2.48573e-10
1.34796e-10
-3.45763e-05
1.32903e-10
1.49505e-05
1.6943e-05
-5.01979e-09
2.24639e-12
-2.71532e-10
-1.75898e-09
7.82716e-07
-3.75557e-09
4.35629e-11
1.28642e-11
2.47225e-11
-3.53098e-09
-2.42138e-06
-3.53057e-08
-3.78766e-12
-1.72334e-05
-5.23648e-12
1.77365e-07
1.00758e-05
1.93828e-09
2.19441e-10
-1.975e-08
-6.39863e-07
-3.78194e-11
1.57193e-10
9.08132e-09
2.90835e-11
-7.73132e-06
-1.18115e-08
-3.21247e-12
-4.20622e-06
-2.76797e-08
3.30414e-11
6.2677e-12
-1.06654e-11
1.78019e-12
-1.596e-09
1.45096e-10
2.02196e-10
-4.89361e-12
8.07517e-10
-7.09935e-11
4.98526e-10
1.64799e-11
-2.98052e-05
1.74247e-10
-1.00694e-11
-1.2393e-06
1.90436e-07
3.4336e-05
-1.41154e-11
-2.07545e-12
1.09687e-09
-9.2819e-09
2.3814e-11
2.90606e-11
-1.08284e-07
-2.30324e-07
1.28758e-11
1.52078e-11
1.2288e-11
1.03608e-10
-1.59369e-08
3.35235e-11
-2.4976e-11
1.74724e-07
3.27443e-10
1.8071e-11
1.90417e-06
8.94593e-06
-1.03591e-05
5.07384e-09
1.22869e-11
-1.37249e-09
1.67717e-05
5.73038e-11
3.33106e-11
-1.59631e-12
5.59857e-10
9.16758e-06
-1.94177e-09
5.92797e-12
-1.88856e-11
-2.3271e-10
2.78295e-06
-6.78205e-12
-4.25456e-11
2.10359e-05
2.91415e-05
4.09159e-05
2.10669e-12
-7.40326e-06
-3.61277e-12
1.53693e-08
-9.68285e-13
2.22671e-05
-1.1424e-11
-2.07478e-09
9.99725e-10
4.19619e-09
1.04019e-09
2.59021e-09
5.07062e-11
5.55473e-06
2.81542e-09
-5.75267e-07
4.62892e-11
-5.33506e-10
-1.3138e-05
-2.65294e-09
-2.1705e-09
-1.21655e-11
-3.39013e-12
8.02862e-10
-9.76617e-10
-7.25483e-09
-9.8996e-06
-2.6631e-05
-7.88825e-12
-7.2155e-11
-1.27613e-05
2.67631e-11
-2.02656e-07
3.79744e-05
3.09138e-06
-6.71257e-06
8.28177e-07
-3.0914e-05
2.7421e-12
-1.20783e-05
-1.63797e-09
5.62226e-06
-3.38654e-09
1.23799e-08
2.1953e-06
4.58601e-11
-3.28034e-11
-9.50789e-11
5.3545e-12
-6.46809e-06
2.02331e-06
-8.18131e-10
2.32141e-06
2.99848e-11
-1.57692e-11
-3.03205e-07
-6.67515e-07
1.4075e-11
-7.09762e-10
-1.50165e-11
2.51666e-11
2.46129e-10
1.31907e-05
2.18692e-06
4.0397e-11
-4.03285e-09
-1.26927e-10
4.57922e-12
-2.6603e-08
-1.05581e-10
-4.7033e-10
-3.46382e-06
-2.12062e-10
4.8884e-05
-7.19812e-13
-1.27458e-10
1.57605e-10
3.41495e-09
6.90912e-06
3.88065e-05
-5.94891e-10
-7.72559e-12
5.47195e-12
6.46053e-10
-8.83072e-10
1.93079e-12
4.39396e-11
3.63104e-09
-2.88019e-07
-1.62573e-07
-1.27834e-08
-5.53681e-09
-1.67214e-09
-5.83162e-05
-5.8541e-08
-8.57328e-10
1.00686e-11
4.53603e-09
-7.21628e-09
2.70712e-05
8.8398e-10
-2.09602e-07
1.15632e-09
-2.78008e-10
2.14683e-08
-2.25639e-11
2.16311e-08
1.90434e-10
-1.04795e-09
-6.16671e-09
9.71758e-06
3.45792e-11
6.95112e-10
9.73398e-06
-2.47879e-09
3.78284e-07
1.44127e-09
-1.87165e-07
-6.11768e-06
3.56688e-09
1.42509e-11
2.07222e-05
3.95732e-09
-2.83073e-08
-6.75933e-06
1.44587e-12
2.33582e-05
1.64991e-09
-8.57339e-11
-1.40624e-09
1.61434e-11
3.15835e-07
1.08053e-09
5.40868e-09
2.22782e-05
-1.59236e-09
4.93394e-05
-5.90576e-08
-5.72471e-05
-2.07046e-07
7.18308e-12
6.74864e-11
3.42138e-11
-1.39775e-05
1.82262e-05
-1.3207e-07
1.70746e-06
3.67242e-05
-4.43151e-06
4.73704e-11
4.69251e-11
2.37668e-13
8.39549e-05
5.92616e-06
1.17046e-09
-6.22652e-05
7.98022e-13
-4.91627e-06
2.02396e-10
4.41563e-11
1.75085e-05
1.03585e-08
2.81741e-10
-3.14503e-07
-4.50999e-10
-3.99795e-10
4.24381e-10
2.15542e-11
-5.26277e-08
4.9744e-05
2.59335e-11
5.95037e-12
-1.07527e-08
-1.37912e-07
-4.53499e-05
-2.8956e-12
1.24307e-11
1.30637e-09
-4.36963e-12
7.65747e-09
2.11762e-06
4.73602e-09
-1.0105e-11
-6.42797e-07
-9.00307e-12
-1.82706e-05
1.93021e-09
-2.86105e-08
1.21824e-11
-2.56694e-10
7.03861e-06
-1.31968e-07
1.29947e-10
-4.35918e-11
3.10286e-11
-2.71303e-11
-6.85768e-10
4.50351e-11
3.5292e-11
2.68811e-08
-1.53073e-09
3.00287e-09
1.02552e-11
9.0709e-12
5.26182e-08
-8.7768e-12
-8.05107e-06
1.28642e-08
6.27541e-09
4.45045e-10
-5.31974e-05
7.36157e-07
-6.26255e-10
2.41662e-06
2.67797e-05
2.23491e-08
1.45643e-05
1.80588e-11
7.64719e-07
2.26833e-12
2.959e-06
-5.51207e-12
-4.53536e-06
1.64139e-11
1.40967e-05
-9.86905e-06
-2.51224e-08
4.61088e-12
-1.98044e-06
-1.54228e-05
9.46407e-06
1.71798e-10
-7.2653e-08
1.71487e-08
3.84651e-05
-1.02897e-09
5.30239e-05
9.47134e-11
1.46264e-12
-6.32798e-09
1.51214e-07
-3.8782e-05
5.33958e-09
2.70796e-10
4.36313e-08
-3.89122e-10
2.32387e-09
-4.42257e-11
-5.89975e-12
3.30007e-05
6.83493e-11
6.53011e-15
2.68055e-11
1.47558e-06
9.52323e-08
-5.12848e-11
3.83065e-05
1.97965e-05
8.18296e-13
1.22438e-10
-3.36006e-11
-2.94903e-10
-9.62145e-06
-2.57738e-12
-4.19145e-07
-5.47467e-06
-4.50015e-12
-1.90068e-09
-8.12904e-06
1.81429e-09
5.63501e-11
5.21869e-12
-5.21409e-07
-6.11143e-12
-1.64868e-12
-3.22651e-08
1.14109e-05
1.80722e-11
-1.07015e-05
3.35764e-10
1.23441e-05
-1.1859e-09
1.72517e-07
1.15181e-10
2.60646e-11
1.66703e-05
2.19831e-09
5.74354e-11
2.25572e-06
-2.45166e-06
4.25947e-05
1.55942e-05
1.30883e-07
7.31161e-06
7.71236e-09
8.72061e-10
2.35828e-12
1.40359e-11
1.26337e-10
1.47031e-06
5.06625e-05
-1.15747e-05
-2.35556e-11
-3.85935e-07
-1.82432e-07
3.73436e-10
4.14047e-11
3.07417e-11
-6.62429e-10
-2.91593e-05
-3.81666e-11
5.53027e-05
-1.87083e-09
2.66847e-10
1.20971e-10
-1.91264e-08
1.58288e-05
1.88693e-09
3.58687e-11
1.36333e-05
2.63608e-06
1.21233e-07
-3.1955e-08
2.22266e-10
2.80782e-11
2.3725e-05
1.87034e-09
2.07071e-06
-3.69034e-12
4.95182e-12
2.28772e-05
-8.46142e-13
1.29686e-08
-5.41447e-08
-3.60053e-06
-3.19828e-11
-2.47741e-12
1.56489e-05
2.7761e-10
3.32914e-11
-4.29473e-11
1.44893e-08
-1.26597e-06
-2.94473e-05
-4.42935e-12
2.35203e-09
2.74389e-09
-5.62549e-06
1.39003e-10
4.89797e-05
2.86956e-12
1.57018e-11
3.04056e-10
-5.27951e-06
-1.78227e-12
-2.84043e-11
2.05319e-10
1.44403e-11
2.23231e-09
-5.84171e-09
9.04443e-11
2.47952e-12
1.82475e-05
5.57127e-05
-1.55786e-11
-2.53198e-11
-2.68969e-07
-1.36792e-06
-4.30883e-09
1.05946e-09
-5.62308e-05
-1.04221e-07
-3.74683e-10
2.7585e-05
-8.76592e-10
7.32516e-11
4.27668e-11
9.54899e-12
8.09532e-11
1.47001e-11
-5.23026e-12
1.01311e-11
5.82812e-11
2.2012e-09
1.04111e-09
5.88037e-13
-9.68822e-11
-9.59901e-08
5.27537e-07
-5.08672e-09
2.48482e-11
-1.50385e-05
1.75128e-10
6.81298e-10
5.66996e-11
1.04582e-10
2.00432e-08
2.2274e-08
3.28505e-11
4.93903e-09
-1.64433e-11
3.24203e-08
6.34996e-11
-3.50947e-06
1.34873e-05
4.09729e-06
7.32612e-06
-9.3494e-13
-2.4444e-06
-6.33584e-05
-2.20864e-07
2.68609e-09
-1.37663e-05
-1.20798e-09
5.06266e-11
6.36251e-07
1.00905e-11
4.35892e-11
1.82502e-11
-3.00201e-09
1.25451e-11
1.53561e-11
5.71367e-06
-1.22628e-09
1.19358e-08
1.30911e-10
-1.60368e-08
-1.6462e-11
3.1098e-11
-6.14375e-12
-1.03305e-11
6.72753e-11
1.8161e-10
2.3892e-10
-2.48921e-08
5.45452e-06
-5.47246e-12
-2.49803e-05
1.35492e-06
-3.32904e-12
6.93852e-10
-7.67515e-08
-3.55077e-06
7.25826e-12
6.81926e-13
3.27944e-05
5.83856e-11
5.75436e-11
1.47296e-08
9.14324e-12
-2.50617e-12
5.54887e-12
2.24279e-11
-6.09949e-06
1.01348e-05
2.70369e-10
1.06794e-11
4.52385e-11
-1.25449e-10
6.68341e-09
-4.56441e-11
2.79029e-11
-1.62283e-12
3.54605e-05
-4.96388e-05
2.63624e-10
3.03369e-08
-7.74897e-06
4.63816e-11
-7.66539e-08
1.0989e-09
1.21659e-10
-1.31956e-11
-3.57978e-12
1.64428e-10
5.69875e-10
-2.99963e-07
8.70582e-11
2.60239e-08
3.50528e-06
2.17006e-05
-1.20991e-05
1.20358e-11
8.40059e-10
1.81776e-10
1.18072e-07
2.12704e-09
6.00972e-10
2.04721e-09
5.0259e-08
5.83025e-11
6.39195e-11
1.96016e-07
-4.14359e-06
-7.7841e-09
1.3279e-09
7.52771e-10
4.76527e-05
-4.92974e-06
1.88569e-06
1.7843e-11
-4.06183e-11
-4.52263e-12
2.13912e-06
-6.04577e-06
-1.93849e-10
2.15181e-09
-1.68202e-07
-6.53868e-06
4.24854e-09
-2.12505e-12
-6.07185e-08
8.2234e-11
-2.00344e-12
1.27841e-09
1.68649e-11
4.36194e-06
-3.45584e-12
-2.7511e-09
-1.5282e-11
-3.72517e-07
1.65826e-05
-7.29785e-09
3.3634e-05
-2.37078e-05
4.47586e-05
8.86637e-07
6.56148e-10
-1.04051e-08
9.58477e-11
-1.02456e-05
1.06251e-11
-2.06545e-05
3.21117e-10
1.92128e-05