/*--------------------------------*- C++ -*----------------------------------*\
| =========                 |                                                 |
| \\      /  F ield         | OpenFOAM: The Open Source CFD Toolbox           |
|  \\    /   O peration     | Version:  v2012                                 |
|   \\  /    A nd           | Website:  www.openfoam.com                      |
|    \\/     M anipulation  |                                                 |
\*---------------------------------------------------------------------------*/
FoamFile
{
    version     2.0;
    format      ascii;
    class       surfaceScalarField;
    location    "400";
    object      ddtCorrDdt0(phi);
}
// * * * * * * * * * * * * * * * * * * * * * * * * * * * * * * * * * * * * * //

dimensions      [0 3 -2 0 0 0 0];
oriented        oriented;


internalField   nonuniform List<scalar> 
22766
(
1.38149e-06
-8.2125e-07
-5.61334e-07
3.19122e-06
-2.14716e-06
-1.04119e-06
4.46148e-05
-2.70201e-05
-1.75955e-05
-5.97534e-08
2.51581e-08
3.44982e-08
-1.5396e-07
-1.48329e-07
3.03254e-07
-1.9173e-08
1.72097e-08
2.04424e-09
-9.14812e-06
4.96993e-06
4.17961e-06
5.17105e-08
-4.38769e-08
-7.43274e-09
-3.80398e-08
-2.68502e-08
6.48136e-08
-7.15673e-08
1.8713e-07
-1.15858e-07
1.09519e-07
-7.40589e-08
-3.59404e-08
1.25754e-08
-3.71561e-08
2.45609e-08
3.93828e-05
-1.56308e-05
-2.37518e-05
1.4636e-06
-6.32256e-06
4.85703e-06
1.42109e-06
-1.0193e-06
-4.01125e-07
-2.28288e-07
5.41218e-07
-3.12972e-07
-1.73787e-06
-1.63697e-06
3.37743e-06
-4.05326e-05
1.98475e-05
2.06863e-05
2.37136e-08
-4.72123e-08
2.35695e-08
3.11495e-09
-4.73757e-07
4.7047e-07
-9.64764e-08
5.85605e-08
0.000115955
-7.16924e-05
-4.42622e-05
-6.15041e-07
1.20383e-06
-5.85996e-07
-2.30063e-08
-7.3401e-08
4.05196e-05
4.09464e-06
-1.49672e-06
1.05522e-06
4.41813e-07
-5.07592e-06
-2.28158e-06
7.35811e-06
9.56441e-08
-3.7958e-08
-5.76661e-08
1.30847e-06
-1.53105e-06
2.23026e-07
-6.61419e-05
-3.17143e-05
9.78561e-05
-6.65098e-09
-5.99685e-08
6.66165e-08
-7.48772e-07
6.84296e-06
-6.09211e-06
2.28993e-08
-2.45937e-09
-2.0443e-08
7.9287e-06
-5.72053e-06
-2.20833e-06
-6.00386e-06
5.25513e-06
4.98552e-06
-6.2e-06
1.21323e-06
-1.5004e-07
7.83348e-08
-1.22806e-05
1.40421e-05
-1.76175e-06
-3.64973e-06
5.11225e-06
-1.44913e-05
-2.60419e-05
-6.4138e-08
6.25481e-08
1.60814e-09
5.63036e-06
-1.11418e-06
-4.5146e-06
-8.71797e-09
-2.91083e-08
3.77497e-08
-1.10441e-05
1.39846e-05
-2.94072e-06
-1.04166e-05
2.44777e-05
-1.40609e-05
-8.10333e-08
4.68358e-08
3.41407e-08
-1.08707e-06
1.81134e-07
9.06239e-07
5.20693e-10
-7.51735e-08
7.45753e-08
-2.10071e-06
2.11572e-06
-1.44945e-08
-5.182e-08
7.32191e-08
-2.14077e-08
8.15935e-08
-1.04553e-07
-3.90497e-08
1.07422e-07
-6.83478e-08
2.84923e-07
-1.70577e-07
-1.14045e-07
-3.50936e-06
1.90209e-05
-1.55113e-05
-1.59867e-05
2.42712e-05
-8.29131e-06
2.0661e-05
-3.10776e-05
3.55305e-05
-1.75286e-05
-1.80026e-05
3.02697e-05
-2.45532e-05
-5.71661e-06
6.9026e-06
-1.91835e-05
7.33965e-06
-7.33982e-06
2.90961e-06
2.82475e-07
-3.34991e-06
3.209e-06
1.40892e-07
1.50099e-07
1.348e-07
-1.5365e-06
-1.77264e-07
1.71374e-06
1.36764e-07
-2.90285e-07
7.64034e-06
-1.11087e-06
-6.53183e-06
4.06881e-05
-1.62104e-05
3.64996e-08
-3.04861e-08
-6.12158e-09
2.92506e-06
-6.28372e-07
-2.29532e-06
-4.88861e-08
2.347e-08
2.54193e-08
-6.79718e-06
1.17494e-05
-4.9522e-06
-9.38839e-07
3.24189e-07
1.82781e-07
-1.59157e-08
-1.66821e-07
8.42547e-06
3.22627e-05
-5.77937e-07
9.37587e-07
-3.59833e-07
-4.32404e-05
2.83918e-05
1.48479e-05
8.60257e-07
-2.5985e-06
2.25453e-08
3.41316e-10
-2.28941e-08
-1.1933e-08
3.47467e-08
5.64725e-06
-6.62241e-07
2.94546e-06
-4.9789e-06
2.03202e-06
-1.16014e-06
5.40402e-07
6.21278e-07
-6.51462e-07
-5.07328e-07
-2.3334e-06
-1.24879e-06
3.58314e-06
1.97359e-06
-9.63208e-07
-1.01052e-06
-6.04753e-05
4.44882e-05
-2.50691e-06
9.70443e-07
1.96977e-06
-7.04529e-06
-2.75016e-08
8.37614e-09
8.31979e-06
-1.18293e-05
3.41813e-06
-2.65159e-06
-7.6671e-07
3.0353e-05
9.02982e-06
5.98356e-05
-5.14101e-05
-7.20356e-06
-1.04494e-07
7.30704e-06
-3.66103e-07
3.69158e-07
1.03707e-06
-3.37044e-06
-4.39378e-08
1.21719e-08
3.17443e-08
-1.23944e-06
8.8794e-06
-7.12796e-08
6.46247e-08
-4.00916e-06
-2.94418e-06
6.95226e-06
-2.33224e-09
-4.16248e-08
5.08505e-06
-1.97595e-06
-3.10921e-06
-3.64507e-06
7.26706e-08
3.57214e-06
4.59824e-07
-6.88117e-07
-3.27348e-09
5.28797e-09
-2.03714e-09
4.40122e-08
-3.18415e-08
3.70688e-06
5.43174e-06
-9.14124e-06
4.44287e-08
1.34985e-06
-1.3943e-06
-3.22386e-06
2.60973e-06
6.1423e-07
7.46495e-06
-8.32242e-06
8.56457e-07
2.77297e-09
-2.80778e-09
9.57331e-06
-7.91747e-06
-1.65608e-06
-6.95498e-05
3.40786e-06
4.32508e-08
-4.9181e-10
-4.27559e-08
9.24483e-09
3.39959e-08
3.33558e-08
-7.37283e-08
4.04001e-08
6.57319e-06
-2.66509e-06
-3.90815e-06
-3.25129e-08
9.59174e-09
2.7739e-06
4.37021e-06
-7.14371e-06
5.84762e-06
-4.97179e-06
-8.76127e-07
2.17156e-06
2.91345e-06
1.05337e-05
-7.15258e-06
-3.37914e-06
8.1842e-06
-4.14097e-06
-4.0442e-06
-9.42144e-09
3.31832e-08
-5.73434e-06
-2.67056e-07
-6.51695e-08
3.7035e-08
2.81484e-08
5.09738e-08
-4.78928e-08
-3.08648e-09
6.43674e-05
5.15866e-05
-6.30566e-06
5.71294e-07
-2.85316e-06
-3.7071e-07
6.88477e-08
-8.10918e-08
1.23023e-08
3.26754e-06
7.26725e-06
-4.73951e-10
-1.29335e-08
1.34097e-08
1.3914e-06
-1.02517e-08
2.72697e-07
-2.44419e-07
-2.83579e-08
5.06042e-05
9.23131e-06
-2.25147e-07
5.63657e-07
-3.38545e-07
-1.78933e-08
-3.10034e-08
6.45193e-06
1.01137e-06
4.53077e-06
3.39789e-06
-1.27286e-07
4.02868e-09
1.23359e-07
0.000102708
-7.65194e-05
-2.61877e-05
6.42622e-08
-5.66146e-08
-7.46711e-09
-9.81172e-07
-5.15612e-07
7.12345e-06
1.05845e-06
-2.2245e-07
6.56912e-08
1.56787e-07
-4.63778e-05
3.13774e-06
-1.4928e-05
2.42208e-05
-9.29279e-06
-1.43515e-08
2.21193e-08
-7.85175e-09
1.94477e-05
-1.32893e-05
-6.15834e-06
-8.32575e-09
5.01668e-09
-5.73881e-05
-2.58834e-05
8.32709e-05
1.39404e-07
5.10896e-09
-1.44595e-07
3.71846e-07
-2.64175e-07
-1.0772e-07
3.66438e-05
-1.06891e-05
-2.59565e-05
-3.76199e-07
-5.82398e-08
4.34423e-07
-2.79671e-06
-9.39034e-07
3.74079e-06
1.0817e-06
-1.03734e-06
-8.69106e-08
1.62844e-08
7.05679e-08
4.55479e-07
1.51806e-06
1.33005e-07
-1.19219e-07
-1.36509e-08
1.64362e-06
-1.01321e-05
8.48855e-06
1.38754e-07
4.40526e-08
-5.72087e-06
7.96264e-06
-2.24194e-06
-1.13125e-05
-3.61548e-06
-1.90458e-08
-4.07146e-08
2.37746e-08
9.73679e-08
-1.21216e-07
6.97922e-06
3.57412e-07
-2.64827e-07
-9.26338e-08
-1.93933e-08
3.18159e-08
8.70082e-08
-3.38631e-08
-5.37192e-08
-1.29595e-08
1.03868e-08
2.78225e-09
1.14565e-07
-1.26985e-08
-1.0182e-07
-6.08648e-08
-3.15331e-07
2.84409e-06
2.54706e-07
-3.09853e-06
-3.98591e-07
-5.23158e-07
9.20992e-07
-1.50622e-07
3.09548e-06
-2.40809e-08
3.81458e-07
2.53686e-06
6.91852e-07
-3.22922e-06
-6.07486e-06
-4.07355e-06
1.01478e-05
-4.45064e-09
-1.22693e-07
6.21963e-05
-3.60339e-05
-2.61623e-05
3.19357e-08
-6.16303e-08
2.98523e-08
-5.45122e-07
3.97142e-07
-1.98875e-07
-3.45988e-07
1.15894e-05
-1.60908e-05
4.50118e-06
-4.04521e-06
6.22027e-05
-6.32347e-09
-2.53232e-09
2.54763e-08
-2.27138e-08
-8.09074e-06
1.18e-05
4.98893e-08
-8.34816e-09
-4.15279e-08
-7.18583e-06
-1.46022e-06
-6.40082e-07
-1.75023e-08
-4.66509e-08
8.68889e-08
-5.0332e-08
-3.60957e-08
-4.88528e-06
7.65893e-06
1.1036e-07
-1.41801e-07
-3.20809e-06
9.03142e-06
-1.08001e-05
1.76832e-06
-1.74808e-05
-4.23215e-06
2.17179e-05
4.04149e-05
-1.12075e-05
-2.92074e-05
-1.20071e-06
4.04457e-06
-1.09097e-07
5.9138e-08
5.00041e-08
-2.26547e-07
1.96743e-05
-5.24882e-06
4.18722e-06
-6.93385e-06
2.74672e-06
8.41348e-06
-3.65095e-05
2.80957e-05
-1.69771e-08
3.83558e-08
-2.08147e-08
5.85016e-06
9.9324e-07
1.47941e-06
-8.84138e-08
-3.62377e-06
1.98592e-06
2.39839e-05
-1.97761e-05
-4.20638e-06
-2.82316e-08
-5.61875e-08
8.44224e-08
1.8433e-05
-1.67894e-05
-3.67309e-06
5.48384e-08
1.14556e-06
1.37894e-06
-2.52484e-06
3.24196e-08
1.94166e-08
-8.59574e-07
2.20969e-06
-1.34704e-06
-4.49831e-08
1.15374e-09
0.000176028
-3.77912e-05
-0.000138237
7.42061e-07
-1.14222e-06
-1.4707e-06
1.35949e-05
-1.50287e-05
1.4301e-06
3.57388e-06
4.97769e-08
-1.77498e-08
1.38664e-05
-8.92034e-06
-4.94489e-06
-1.15757e-05
2.09961e-06
9.47564e-06
-5.08607e-08
-5.03844e-07
5.54475e-07
-2.97733e-06
-6.17027e-06
-7.34949e-07
-3.61825e-06
4.63108e-06
-1.01272e-06
-6.41809e-06
1.80068e-05
5.78302e-06
-2.75216e-05
2.17395e-05
-4.83641e-07
-4.81314e-07
9.65445e-07
1.51184e-07
-2.8877e-10
-1.51037e-07
3.78528e-07
-9.77335e-08
-2.80861e-07
-4.6808e-07
6.25973e-07
-1.57703e-07
0.000208024
-0.000108287
-4.13163e-06
-5.07596e-07
4.63934e-06
9.57376e-07
-8.39098e-07
-1.18354e-07
6.95421e-07
-2.63857e-08
-5.42111e-06
1.32595e-07
5.28834e-06
-5.80886e-08
1.56787e-08
4.28676e-08
3.40805e-07
1.13838e-06
7.19119e-07
-2.85616e-07
-4.33258e-07
5.71966e-05
-3.03476e-05
-2.6849e-05
3.09191e-06
-1.9467e-06
-1.86986e-05
4.50812e-05
-2.63804e-05
-7.81018e-06
6.06041e-07
2.11493e-07
1.60282e-07
-5.48979e-09
1.82424e-07
-1.76863e-07
6.63465e-06
2.13142e-06
-8.76305e-06
9.02087e-06
-6.86393e-06
-2.15697e-06
-1.43675e-08
-6.05012e-08
7.48516e-08
-9.88343e-05
2.71419e-05
-6.93097e-07
1.15058e-07
-1.31333e-08
1.26839e-08
1.28825e-05
7.11478e-07
-4.70049e-08
3.26328e-08
-5.60548e-06
3.39966e-06
2.20683e-06
2.38488e-05
-2.62706e-06
-2.12186e-05
-4.81645e-06
6.84829e-07
-2.19987e-05
4.52055e-06
1.08832e-05
-3.7619e-06
-1.93317e-05
2.05044e-05
-1.17325e-06
2.30868e-05
1.35529e-05
1.45558e-09
-4.22289e-09
2.77897e-09
-4.29291e-06
6.18152e-07
9.09096e-08
-3.70484e-08
-5.4525e-08
2.28827e-05
-2.09206e-05
-1.96179e-06
7.7022e-08
1.96748e-07
-2.7378e-07
4.41806e-06
-3.60293e-06
-8.14099e-07
3.96773e-07
-1.23987e-07
4.59188e-07
-4.07546e-08
-4.18874e-07
2.64233e-05
-2.06412e-05
-8.9143e-06
1.11626e-07
8.80173e-06
2.48669e-06
1.08027e-05
-1.32892e-05
5.4055e-08
3.28882e-08
6.80482e-06
-4.28094e-06
-2.52461e-06
9.62892e-08
-5.24303e-08
-4.3851e-08
4.40954e-08
-1.1358e-08
-3.24854e-08
5.9566e-07
-4.2974e-07
-1.6649e-07
2.96729e-08
7.52585e-09
-3.69529e-08
6.82957e-06
1.60564e-05
4.22062e-09
2.54596e-08
1.07054e-06
-2.03361e-06
-3.65911e-08
-9.20163e-09
4.58812e-08
1.40751e-05
-1.8302e-05
-4.22788e-07
1.58636e-07
-4.75956e-06
1.13944e-05
1.64898e-07
-2.88241e-07
1.23335e-07
-6.93602e-08
9.31396e-08
2.91981e-08
-4.21731e-08
1.98547e-06
-4.87562e-06
2.89004e-06
5.11857e-07
-2.06673e-07
-3.0537e-07
-4.08061e-08
-1.78991e-08
9.01805e-08
7.16623e-09
3.42272e-08
5.65727e-08
2.31654e-07
3.6377e-07
-6.27414e-05
-4.36857e-05
0.000106427
9.84244e-06
-8.1186e-06
-1.72284e-06
9.85115e-05
8.41268e-05
-0.000182638
-5.38658e-07
-5.55818e-05
0.000121008
-6.54261e-05
6.29123e-08
3.33922e-08
4.32101e-08
9.53881e-05
-7.28713e-05
-2.25167e-05
2.45117e-07
-1.95766e-05
-1.06117e-06
-1.05151e-05
-1.26572e-06
-7.64924e-06
-1.57594e-07
1.40382e-07
1.73245e-08
5.86395e-05
-3.89243e-05
-1.97173e-05
1.68857e-06
2.72862e-06
-4.21425e-08
-3.89192e-08
-2.29162e-06
5.22088e-07
1.97169e-07
-7.19246e-07
5.59208e-07
-1.48219e-07
-4.11007e-07
7.26021e-08
-6.62789e-08
1.43751e-08
-1.87425e-08
1.87414e-08
-9.38763e-11
-3.95691e-08
5.20614e-08
-1.24378e-08
-0.000333066
0.000220962
0.000112105
1.64622e-05
-2.13099e-05
4.85548e-06
2.38892e-07
2.72951e-07
-4.87686e-06
7.35585e-07
-2.17614e-05
7.26973e-06
2.52191e-07
3.06971e-07
1.00977e-08
-5.39545e-07
5.2948e-07
-2.37045e-07
-4.61381e-07
6.98597e-07
2.18895e-08
4.82674e-08
-7.01746e-08
-0.000124201
-0.000208866
1.15507e-05
1.22951e-05
-8.2778e-07
2.48122e-05
-6.81837e-07
-1.11668e-06
1.79893e-06
2.72503e-08
1.67576e-08
1.04611e-08
-2.64712e-08
1.60391e-08
-1.09091e-07
3.20726e-07
1.45208e-06
-7.77733e-06
-4.7359e-06
-3.07476e-06
-2.73164e-06
1.94672e-06
7.85172e-07
5.8362e-06
-3.49794e-06
-2.33777e-06
9.70953e-06
9.24431e-06
-1.89499e-05
-2.09811e-06
-6.34684e-07
-2.918e-09
5.57142e-09
5.10761e-06
5.23603e-07
7.08315e-07
-4.49269e-05
2.62282e-05
1.04742e-07
-1.7919e-08
1.53731e-07
6.44781e-08
-2.18098e-07
-2.34343e-05
2.76041e-05
-4.16992e-06
5.16564e-07
5.51333e-09
-2.5355e-08
3.46146e-08
3.15024e-05
7.12064e-05
-4.31846e-05
-0.000147293
0.000190478
-4.49313e-08
1.2467e-07
-7.86362e-08
-1.31207e-06
-5.55189e-06
-5.1508e-07
5.25221e-07
-1.0733e-08
-3.06941e-08
4.15226e-08
3.45362e-05
3.39265e-05
1.73202e-08
-3.16986e-08
1.43717e-08
-4.36635e-08
6.55362e-08
-5.85346e-07
2.4603e-07
3.38267e-07
2.25137e-08
-5.19406e-09
4.96033e-05
7.59328e-06
1.29594e-06
-8.09307e-06
-1.34991e-08
-2.08986e-07
-8.6782e-08
1.64833e-06
4.67693e-07
4.44537e-09
-1.10267e-08
6.34135e-09
-3.49465e-06
2.18264e-06
1.275e-08
-4.45293e-09
-8.20036e-09
-7.75869e-07
2.92513e-07
-4.39392e-08
7.37007e-09
2.88911e-08
-6.13037e-08
3.24043e-08
8.08904e-08
-4.75185e-08
-2.65844e-08
-1.23119e-07
1.49804e-07
-2.4217e-08
1.63539e-07
-2.50059e-08
1.98362e-08
5.07954e-09
-4.36039e-05
2.0169e-05
-1.92661e-05
-2.47976e-05
4.40648e-05
-1.3223e-06
-4.98236e-06
1.93054e-05
1.22574e-05
-3.15628e-05
-1.92895e-06
-3.49221e-06
1.26007e-05
8.2766e-07
4.5476e-08
-7.36776e-08
-3.71517e-06
1.3416e-05
-9.70136e-06
-4.99937e-07
1.62274e-07
3.38124e-07
-2.00715e-08
4.91407e-08
-9.37424e-08
6.60884e-08
2.76714e-08
-1.23672e-06
-4.48424e-06
-1.1034e-07
-3.42067e-08
1.87999e-07
8.38235e-05
-1.32975e-08
1.6744e-06
-1.66105e-06
-2.42699e-09
1.12016e-08
-8.64454e-09
-1.34725e-07
1.39853e-07
-1.37824e-08
3.33105e-08
-1.9328e-08
1.29068e-05
-1.66219e-05
5.82682e-07
8.38955e-07
9.24465e-06
-4.57499e-05
3.65052e-05
1.35436e-07
3.39518e-06
-3.53089e-06
-1.39701e-07
7.91561e-08
3.61877e-09
-3.26012e-09
-7.91189e-10
-1.43022e-06
4.23175e-06
-2.80055e-06
-2.33913e-08
1.14426e-08
1.18884e-08
-6.79006e-08
2.02347e-08
4.74362e-08
8.51032e-06
-1.85423e-08
1.60858e-08
-5.86837e-08
-8.1023e-08
3.51343e-08
-7.2549e-08
3.71404e-08
2.54111e-08
-3.61764e-08
-2.93322e-08
-1.12953e-08
5.42791e-06
4.41236e-06
-3.53393e-08
-3.83585e-08
1.26485e-08
-8.23933e-09
2.2162e-07
4.97676e-07
1.73254e-07
-2.31347e-07
-1.16962e-06
-2.44856e-06
2.26717e-07
2.13416e-06
-2.35984e-06
-1.01783e-07
6.69231e-08
3.50059e-08
-3.97e-06
-1.07089e-06
5.04429e-06
-1.7099e-08
-7.88688e-09
-1.02163e-06
1.47784e-06
5.65101e-06
1.27709e-05
-1.8422e-05
3.09742e-08
-4.05086e-08
-1.22236e-07
2.95535e-07
-2.31858e-08
-4.19581e-08
-8.09976e-06
4.12616e-06
-9.47741e-07
-4.65644e-06
-9.17071e-06
3.94405e-05
-7.15631e-08
7.20471e-08
-2.48748e-05
3.41194e-05
1.25029e-07
-7.90107e-09
-1.17211e-07
-1.77143e-08
-5.76642e-09
2.06894e-06
2.45488e-06
-4.5258e-06
2.36803e-06
-2.1406e-06
-7.35301e-08
-2.82131e-08
-1.66976e-06
8.42858e-07
8.27921e-07
-4.15317e-08
3.27759e-08
1.62427e-07
5.02932e-08
-2.12474e-07
4.41794e-08
-2.96572e-08
-1.45253e-08
2.59087e-05
5.15293e-07
-1.26261e-07
8.13943e-08
1.31148e-05
3.34829e-06
2.62792e-06
-2.67662e-06
4.88608e-08
1.66549e-08
-2.14565e-08
4.75318e-09
-4.85185e-08
3.34704e-07
-2.8615e-07
3.06539e-05
-6.10015e-05
1.33407e-06
4.7651e-06
-2.69727e-06
-1.67849e-08
5.09974e-08
-3.41767e-08
2.86407e-06
-2.86427e-06
2.58738e-08
1.83058e-08
-1.20867e-06
-5.80303e-07
1.78893e-06
1.03341e-06
-1.76948e-07
-8.56084e-07
6.11145e-06
-2.22952e-06
-3.88199e-06
1.01984e-05
-6.12623e-06
-4.07212e-06
-1.01443e-08
-6.98154e-07
1.77991e-06
-1.46275e-07
-9.4085e-07
-8.13393e-06
-1.64192e-05
-4.66244e-08
2.11548e-07
-8.62706e-06
1.03461e-05
-1.72021e-06
-1.69596e-05
-5.72901e-05
7.42497e-05
1.3147e-08
-6.03518e-08
4.71563e-08
2.97718e-06
-2.11604e-06
-6.94602e-08
-5.80566e-08
-3.42587e-08
4.22018e-09
7.89462e-08
5.40764e-08
-1.01377e-07
2.5552e-06
-1.98881e-07
4.13873e-08
8.65777e-06
-1.90303e-05
1.03721e-05
1.14556e-07
-1.44763e-08
-1.0017e-07
1.36889e-08
1.06642e-07
-1.20455e-07
9.53165e-09
3.47073e-08
4.9324e-07
-1.79752e-07
-3.13724e-07
2.5572e-06
3.29017e-06
2.69111e-09
7.32753e-09
-1.00969e-08
5.09587e-07
1.23999e-06
-1.74955e-06
-3.62782e-07
1.77758e-07
1.84905e-07
2.89141e-07
-3.40002e-07
4.51693e-08
-4.42433e-08
2.58153e-05
1.58217e-07
-1.26316e-06
1.10521e-06
-2.72199e-08
1.89782e-07
-5.35532e-08
-5.55227e-08
-1.39662e-06
1.87938e-07
3.64341e-05
-3.6106e-05
-3.28191e-07
-2.19059e-05
5.834e-05
1.67714e-08
3.495e-08
1.12703e-07
-1.39331e-07
1.83155e-06
-1.93359e-06
4.86777e-06
-3.34201e-06
-1.52624e-06
2.36079e-06
1.05722e-06
1.02251e-06
-6.2689e-07
-3.95286e-07
-2.9191e-07
1.60071e-06
6.50477e-06
-1.365e-05
7.14833e-06
-6.87739e-05
-3.00594e-05
6.06145e-09
3.03162e-08
-7.54257e-07
-3.53143e-06
4.28657e-06
2.56811e-08
-4.35747e-08
3.38052e-07
-3.18746e-07
-1.94082e-08
4.8386e-07
5.38782e-07
-1.1785e-05
3.15732e-06
4.49942e-08
2.02797e-08
-6.50703e-08
1.82391e-07
3.54223e-07
-5.36928e-07
1.40189e-06
-1.24353e-06
3.58803e-06
8.71511e-06
-1.2304e-05
1.03749e-05
3.12827e-06
-1.35048e-05
1.65416e-05
0.000100812
7.52163e-05
2.04552e-08
-4.95939e-08
3.31915e-09
4.38532e-08
-4.72607e-08
-2.87952e-08
3.41168e-08
-5.29041e-09
3.4038e-06
-5.54068e-06
2.13421e-06
1.64217e-05
-1.30475e-05
-3.37406e-06
1.33479e-06
6.00476e-06
4.9016e-06
5.28699e-07
3.21955e-08
5.99633e-08
-9.3805e-08
4.21871e-08
-1.32845e-08
-2.76665e-05
3.60799e-05
-1.22207e-06
1.26357e-06
-4.14745e-08
5.18627e-06
5.18959e-06
-2.22548e-07
-1.04053e-06
4.62192e-08
-1.15596e-07
2.28721e-07
1.06017e-06
-1.28886e-06
1.72401e-07
-1.0664e-07
1.22428e-06
5.34904e-06
-3.63142e-06
7.72978e-07
2.85784e-06
-7.1503e-07
-5.07182e-07
-3.59088e-06
-8.18578e-06
1.17874e-05
1.21465e-06
1.60064e-06
-2.81239e-06
-4.8441e-05
-3.98262e-05
8.82698e-05
1.31435e-05
2.21279e-05
-3.52716e-05
-6.36331e-08
1.5731e-07
-9.3645e-08
9.82476e-08
3.9469e-07
-3.70649e-06
6.23489e-05
2.27725e-06
5.70741e-06
-7.98924e-06
6.52517e-09
6.85424e-09
-1.31691e-08
1.77607e-05
-4.44431e-07
-1.73159e-05
2.55524e-08
-1.17803e-08
-1.36804e-08
-1.23282e-05
-8.98167e-06
4.11947e-06
-1.9809e-06
-2.13995e-06
-3.37914e-08
3.31692e-06
-1.6683e-06
-1.64539e-06
1.64624e-08
2.61439e-06
-4.68197e-07
-1.24954e-06
1.71652e-06
4.03527e-08
-2.14936e-08
-1.8753e-08
-3.69262e-08
1.3376e-08
2.35522e-08
4.69258e-08
6.05155e-08
1.24652e-06
-3.44229e-06
2.19587e-06
3.1197e-06
7.17074e-06
-1.02899e-05
-2.19261e-08
6.7013e-08
1.38863e-06
-2.49513e-08
-9.86741e-07
2.14988e-05
-2.0512e-05
2.44533e-06
2.68311e-07
-2.71173e-06
4.75902e-08
6.70022e-08
-1.31114e-06
-1.65413e-08
2.44052e-08
-8.14477e-09
-7.7888e-05
0.000202194
-0.000124306
1.84438e-08
3.59989e-07
1.00581e-06
-4.65611e-07
-6.59542e-07
8.4111e-07
1.8657e-06
2.89811e-06
-1.19505e-05
1.50702e-05
-2.31475e-05
-4.37486e-06
1.90736e-08
-3.64702e-08
-4.05904e-08
1.70401e-08
2.33105e-08
2.71315e-06
-4.1426e-06
1.54753e-07
-1.34465e-07
-2.05744e-08
-1.72674e-08
-2.34194e-08
3.21544e-09
3.72841e-08
-6.99222e-10
-3.77944e-08
3.87813e-08
4.66088e-08
-2.16037e-08
-2.4923e-08
-1.87982e-05
1.0657e-05
8.14023e-06
1.53639e-05
-2.76882e-05
2.08798e-05
4.6798e-07
-2.13469e-05
7.73987e-07
-1.63128e-06
-9.60442e-06
1.31924e-05
-3.28444e-07
-1.20253e-06
6.95321e-06
3.07621e-06
-1.00271e-05
-5.02757e-07
-4.46924e-06
-3.79905e-06
-6.23502e-06
1.00397e-05
-3.37194e-07
-4.38598e-07
3.26559e-09
4.56635e-08
2.03037e-06
-3.55817e-07
-7.9844e-06
-3.06369e-06
1.10379e-05
-3.64908e-08
4.96969e-08
-7.87282e-08
6.00302e-08
1.88794e-08
-1.94232e-05
1.891e-06
1.84159e-05
9.54446e-06
-2.79604e-05
-7.29545e-08
8.665e-08
1.16173e-05
-9.48447e-06
6.63956e-07
-4.42118e-07
8.44947e-07
-8.35329e-07
-9.21424e-09
-3.272e-07
1.04037e-06
-7.13549e-07
-1.72782e-05
3.46636e-06
1.3812e-05
3.77223e-06
-3.51756e-06
7.36898e-08
-2.54216e-08
2.8018e-06
5.72738e-07
-7.98079e-07
0.000100756
-5.40899e-05
1.30882e-06
-1.77738e-06
6.04802e-05
4.02759e-05
1.46895e-05
-5.86384e-05
4.39489e-05
3.68176e-06
-8.98759e-06
5.30227e-06
4.60459e-08
-8.40426e-08
1.72453e-08
-1.41016e-07
1.23758e-07
-2.05368e-06
2.1828e-06
-1.28883e-07
-4.96599e-06
2.30089e-06
5.14152e-05
-7.81975e-06
3.87242e-08
-1.47314e-07
-1.21842e-08
1.36865e-08
4.5549e-09
8.22872e-09
2.17674e-07
3.10396e-08
-2.48562e-07
-5.69425e-09
-2.47796e-08
1.71795e-07
-3.86319e-07
2.14417e-07
8.23752e-06
2.32772e-08
-1.04351e-07
4.38678e-08
-1.78352e-08
-2.5943e-08
2.46439e-07
-1.69425e-07
5.84e-06
-6.22359e-06
3.83481e-07
-5.38538e-07
-1.34794e-06
1.88488e-06
2.08316e-08
-1.03627e-08
5.9603e-06
-8.24139e-06
9.28755e-08
4.6517e-07
5.86264e-07
2.76719e-06
-3.35264e-06
-7.87222e-06
-3.28301e-06
1.73587e-05
3.00413e-08
1.65515e-08
2.47575e-07
-2.827e-07
3.51946e-08
3.62649e-07
-9.94719e-07
6.32022e-07
1.24227e-06
2.07639e-06
-3.57946e-08
3.75535e-08
-1.61853e-09
-9.25221e-10
-3.63379e-08
-2.08917e-05
5.70452e-05
-3.61559e-05
2.34498e-08
-6.81959e-09
-2.69319e-06
2.82827e-06
1.28192e-06
-1.96384e-06
-7.17689e-08
4.48568e-08
9.84696e-09
-5.00327e-08
-2.78324e-06
1.3106e-07
-3.55431e-05
2.77732e-05
7.76973e-06
-1.40543e-08
-4.67987e-09
-7.19311e-08
8.82007e-08
-3.00742e-08
-5.2094e-08
8.22013e-08
4.15055e-06
7.17033e-07
-2.67708e-09
-7.25294e-08
7.30982e-05
-5.26387e-05
-2.04586e-05
7.05159e-08
-3.54661e-08
-1.47959e-07
3.19643e-07
1.33121e-07
2.15929e-08
-2.13042e-07
-9.01605e-08
3.03354e-07
1.93964e-07
8.40105e-07
1.57516e-05
0.00024908
-0.000150568
2.48223e-07
-7.97942e-10
-4.95297e-07
4.86603e-06
-6.00772e-08
6.46771e-08
-4.61398e-09
4.31836e-08
-2.51677e-08
-1.8028e-08
-5.68063e-05
3.49073e-05
2.18991e-05
-1.21386e-07
4.58249e-07
-3.37174e-07
-9.74323e-07
5.60545e-06
3.73434e-08
8.7622e-08
-4.14635e-07
-5.84391e-08
3.41682e-06
2.41875e-06
2.66526e-08
-1.41139e-08
-1.24635e-08
-2.45227e-08
2.20041e-08
2.55292e-08
1.24393e-08
4.27908e-08
-4.27843e-08
2.69855e-05
-1.3842e-05
1.19378e-07
-1.2835e-08
-3.62135e-05
5.0903e-05
2.50347e-08
-2.47742e-09
9.09452e-08
3.75341e-08
-1.2846e-07
-8.52551e-05
3.68142e-05
8.00927e-07
-1.23523e-06
4.33492e-07
-6.66723e-06
-4.1332e-06
-1.02989e-07
-6.99358e-07
4.15432e-07
2.84192e-07
-2.33351e-08
-3.04923e-05
1.62306e-05
1.42618e-05
-4.76533e-06
6.21737e-06
2.98505e-08
-4.66705e-08
-5.91392e-07
-7.2929e-07
1.32111e-06
-1.48826e-08
1.90226e-09
1.4222e-06
-1.74965e-06
-4.70354e-06
3.41176e-06
1.29155e-06
-1.58531e-08
-5.65426e-08
-2.57829e-09
5.90815e-08
-4.01724e-06
2.68e-07
-2.78426e-06
3.53212e-06
-7.48028e-07
1.40065e-05
5.90922e-05
-4.34213e-08
-1.82031e-08
-4.38607e-08
-2.74055e-06
-4.59932e-06
-1.38537e-05
3.72172e-06
2.61016e-06
-1.39418e-06
4.92767e-07
9.77473e-05
5.8119e-05
-0.000155866
1.33438e-08
-4.78396e-08
3.44181e-08
-2.13741e-09
2.77938e-08
0.000108111
-1.2723e-05
-5.07687e-07
3.86405e-07
-5.6285e-08
-1.54089e-10
-4.1175e-06
4.85645e-07
-1.39533e-05
1.91938e-06
1.20337e-05
5.87422e-06
-4.30026e-06
-1.5768e-06
5.97907e-08
2.78151e-07
4.2924e-08
-1.65005e-07
-1.36683e-07
1.31223e-07
-1.18567e-07
1.31955e-07
-1.33902e-08
3.79699e-08
3.20104e-08
-6.98818e-08
-1.27849e-06
1.72254e-06
2.26963e-07
-1.94977e-06
-1.18319e-07
9.6372e-07
1.43181e-05
-2.52776e-05
-2.71789e-06
-6.81562e-06
9.53282e-06
-2.34992e-06
1.72222e-06
-2.81851e-06
-5.48599e-06
8.30375e-06
2.84809e-06
-2.07538e-06
-3.09848e-06
4.25437e-09
3.09348e-06
-9.21776e-08
-7.44244e-07
8.3646e-07
1.40604e-07
-7.34586e-08
-6.70954e-08
-6.58953e-08
2.22197e-08
-4.42703e-08
2.96186e-08
-7.48808e-08
4.53146e-08
7.34915e-07
-1.69666e-08
3.52882e-08
-3.55521e-07
-1.09946e-06
1.45487e-06
1.77369e-06
-2.12924e-06
-2.44447e-09
-1.52912e-08
1.39196e-05
3.84112e-06
-4.06579e-06
2.49729e-06
1.56964e-06
2.39624e-08
-4.0787e-08
-3.40738e-06
3.0841e-07
-8.41895e-09
-1.03987e-08
1.86671e-08
1.19215e-05
-2.43449e-06
-9.48071e-06
-6.26414e-07
2.89151e-07
9.49228e-06
-1.30882e-05
-4.93169e-08
-7.28698e-09
2.15761e-06
-5.0878e-07
1.30208e-07
5.65165e-08
-1.86951e-07
3.61787e-06
-1.94236e-06
-1.67538e-06
1.90778e-07
-6.0686e-08
1.69081e-06
1.5182e-06
2.03037e-05
-2.12909e-05
-2.60752e-06
1.18936e-05
-9.28603e-06
1.4138e-06
7.97383e-07
9.17168e-06
-1.19903e-05
2.71566e-08
-2.10222e-09
-3.69838e-06
5.565e-06
-1.3934e-09
-1.17816e-07
1.21422e-05
-8.46214e-06
-5.85704e-09
9.68248e-08
-7.44743e-07
1.99121e-06
1.71319e-08
-2.56082e-08
-1.95365e-08
1.70867e-08
5.47178e-07
-2.6409e-07
-2.82893e-07
1.30445e-05
-7.39368e-06
-1.32695e-06
2.49003e-06
-1.16225e-06
-1.19156e-08
1.53835e-08
-4.06058e-06
-1.04182e-05
1.44787e-05
2.4954e-06
-8.12412e-06
5.62709e-06
-1.1367e-05
-3.36291e-07
2.31331e-07
1.05031e-07
2.04277e-06
1.57509e-06
3.04911e-06
-3.16323e-08
1.45028e-08
1.71547e-08
1.22921e-05
8.54552e-05
-4.01856e-05
1.82519e-05
2.19332e-05
3.25969e-08
-1.11781e-08
-2.09117e-08
-4.65906e-08
-6.9325e-08
1.15951e-07
8.05785e-09
3.34707e-08
-4.1382e-08
-4.19551e-06
1.29089e-07
1.81931e-05
5.21722e-08
-2.30707e-09
-1.56164e-06
4.96983e-06
-3.4085e-06
-1.12071e-05
1.0146e-05
6.93417e-07
-1.63742e-06
9.43857e-07
-0.000108717
-2.33307e-05
0.000132047
1.97327e-06
-9.10527e-06
8.72735e-07
-6.43805e-07
-7.97448e-06
-2.25177e-05
6.90099e-09
3.61589e-08
2.98459e-07
1.16254e-05
7.55147e-07
3.77562e-06
9.45064e-08
-2.06529e-08
-7.41968e-08
-1.22466e-05
3.20946e-05
-6.06163e-07
8.49381e-07
-2.42876e-07
2.8599e-06
-4.42182e-06
8.95407e-07
-5.32562e-07
-1.52916e-07
1.95976e-07
-3.79194e-08
3.74899e-08
7.08915e-05
-7.41593e-05
3.26785e-06
-4.30425e-08
5.14394e-08
-1.94061e-06
1.40094e-06
-3.78865e-08
-5.5659e-08
4.22718e-06
-1.27163e-06
-2.95548e-06
-1.09171e-05
1.28905e-05
-1.3507e-06
1.02231e-06
1.47254e-05
4.58011e-06
3.92362e-07
-2.44638e-06
-1.61315e-06
-7.98336e-08
2.57838e-07
-1.78019e-07
-4.84841e-06
1.03439e-06
3.8167e-06
-3.94562e-08
-2.64349e-08
3.96682e-08
3.35823e-08
6.95291e-08
-3.15468e-08
-6.17571e-06
8.45092e-06
1.66155e-08
-1.23699e-05
9.64253e-06
2.7274e-06
-1.76293e-08
2.89102e-09
-1.32966e-05
2.08915e-06
-6.66577e-08
1.3484e-07
-6.83567e-08
-7.28065e-08
3.63753e-08
-6.45837e-08
2.51099e-08
5.14896e-06
-5.78558e-06
6.3643e-07
-8.56429e-07
1.33634e-07
-1.02484e-07
1.57997e-06
1.47627e-05
2.56521e-05
3.90902e-06
-3.31484e-06
-5.94176e-07
-7.52126e-07
-1.83611e-05
-2.60512e-05
4.44123e-05
3.97606e-08
-9.97556e-08
5.96494e-09
2.04864e-08
-2.64287e-08
3.87346e-08
1.79934e-08
2.5872e-08
8.0447e-08
3.78744e-07
1.02077e-05
-6.00963e-06
-4.19043e-06
2.56169e-07
-7.24235e-07
1.40371e-06
-4.98737e-07
-9.04139e-07
-1.91354e-08
2.51131e-08
-1.34845e-08
-2.92354e-09
-4.93399e-08
-5.94676e-09
5.53541e-08
5.12624e-07
2.85779e-08
-2.43412e-06
-3.50514e-07
-1.01345e-05
5.78939e-06
4.34501e-06
9.31553e-06
-8.2421e-06
-1.07354e-06
-1.20619e-08
4.19554e-08
3.34447e-08
-3.38405e-08
-1.22487e-08
8.87303e-10
1.13741e-08
3.13442e-07
1.92866e-07
-5.0627e-07
-3.40636e-07
1.29874e-07
2.10249e-07
3.57409e-08
-4.09361e-08
5.16376e-09
-1.89742e-08
-5.38312e-08
-2.03723e-06
-3.3506e-05
4.00172e-08
1.07424e-07
-1.47191e-07
-1.45687e-06
-6.05551e-07
5.13453e-07
1.62448e-05
-1.38514e-05
-2.3934e-06
4.0201e-09
-1.63175e-08
1.53179e-05
9.26921e-07
-2.34432e-05
-1.30663e-05
-6.89361e-06
6.78929e-06
-1.78459e-06
-6.80745e-07
2.46526e-06
9.64592e-08
-1.63227e-07
5.14326e-06
2.49877e-06
-7.64408e-06
1.54194e-05
-6.38584e-06
-9.03411e-06
-3.4154e-06
4.6021e-06
-1.18675e-06
3.02406e-07
-4.0019e-07
2.17864e-07
-8.23413e-07
-2.45195e-05
-1.56662e-05
1.10943e-06
-6.55315e-06
5.44365e-06
-6.93977e-07
-3.90641e-07
1.08465e-06
-9.09687e-07
2.05867e-06
-1.14876e-06
1.65402e-08
-5.05706e-08
3.40269e-08
-1.33837e-05
-4.34226e-05
-6.38492e-06
-3.74926e-06
-2.50534e-05
9.59449e-05
1.12766e-07
9.17166e-08
-2.03498e-07
-2.1218e-08
4.46972e-08
2.34836e-08
-2.49729e-08
1.45082e-09
2.02142e-08
1.26349e-08
-7.60939e-06
3.5489e-06
2.9813e-08
-4.18361e-08
1.44518e-06
5.63115e-06
-7.07601e-06
-0.000302623
0.000259438
-1.70369e-08
-2.9664e-09
1.99966e-08
-1.02964e-06
-2.03017e-06
3.06039e-06
8.45372e-09
-3.15392e-08
-3.52738e-08
6.68124e-08
4.07955e-07
-1.24286e-06
8.34934e-07
2.49425e-07
-3.15053e-07
-3.02729e-06
8.24188e-08
-5.38237e-06
0.000107184
-6.84671e-05
-3.8716e-05
5.13988e-09
-5.44617e-08
0.000124386
-7.18928e-08
1.47395e-07
-7.58211e-08
7.99731e-08
-5.28005e-06
1.02055e-05
-4.92288e-06
1.4321e-08
2.62613e-08
-4.05457e-08
-2.40298e-06
1.07648e-06
-3.49873e-07
-1.49963e-07
-1.19273e-05
9.20892e-06
-3.7949e-07
5.97302e-07
-2.30576e-07
2.97e-08
-6.12331e-08
4.92441e-06
2.35332e-05
-2.84576e-05
1.09254e-07
2.83092e-07
-3.92986e-07
1.9474e-07
7.42868e-07
-3.01762e-07
1.56529e-06
-1.26353e-06
-2.60194e-06
3.18873e-06
2.81457e-08
3.43933e-08
6.29898e-06
-1.1578e-05
7.78092e-07
-1.07985e-06
-1.41114e-07
2.25792e-08
-3.59819e-08
-2.85766e-08
-4.52629e-09
-5.7871e-09
1.03441e-08
0.000113714
-0.000101422
-2.24288e-05
1.2767e-07
2.23008e-05
2.76181e-07
6.0401e-06
1.17332e-05
-1.77731e-05
7.15696e-06
3.03744e-06
-1.01958e-05
7.53219e-07
8.39398e-05
-0.000107729
2.3789e-05
8.12581e-05
7.29334e-06
-2.57548e-06
-4.71547e-06
5.70864e-06
4.50339e-06
-3.15541e-06
-1.09047e-06
4.25032e-06
-7.55981e-05
1.05386e-08
-6.28714e-08
2.68747e-08
-5.83095e-07
-7.6765e-07
1.99307e-08
-1.82146e-08
-1.94459e-09
-2.93375e-08
-3.17281e-09
2.42263e-06
3.83301e-06
-6.26392e-06
4.86971e-06
2.78292e-07
3.94556e-06
2.85863e-06
1.10058e-08
1.5696e-08
-1.66684e-05
3.62102e-06
5.02747e-07
-1.15708e-06
4.55956e-06
-4.794e-06
5.12339e-07
-5.10795e-07
-1.18526e-07
-1.86495e-06
-2.54035e-06
4.40749e-06
-2.33069e-07
1.98869e-07
2.63634e-07
1.34911e-07
-3.98449e-07
1.82601e-05
-5.53035e-06
-1.27298e-05
-1.84665e-07
-1.55747e-07
-4.24343e-08
1.09892e-08
3.1342e-08
5.77991e-08
2.17729e-08
-7.98886e-08
1.66966e-05
-1.06561e-05
-3.13088e-08
-2.68245e-08
5.81363e-08
-7.68905e-05
2.1309e-05
-1.01999e-08
1.48818e-08
-5.1532e-09
3.47778e-06
2.0297e-05
-7.58203e-07
-1.95386e-05
-9.80062e-07
-6.93756e-06
-5.18129e-06
4.67824e-06
1.80058e-06
-1.29089e-06
-6.24827e-06
2.64584e-06
1.00127e-06
-2.11835e-06
2.51413e-08
-5.64398e-08
-5.1562e-06
3.30282e-06
-3.21486e-07
-1.78085e-06
4.13719e-06
-2.35713e-06
-3.39843e-08
6.37114e-08
-1.09317e-07
-1.74002e-05
6.46247e-06
1.09361e-05
1.06851e-05
-1.57847e-05
5.09893e-06
-3.32885e-08
-4.68833e-08
8.01808e-08
2.47844e-06
-4.00434e-06
1.52618e-06
5.08526e-06
-4.09583e-06
-9.89523e-07
-6.08156e-08
-6.50958e-05
-4.36235e-05
-3.97522e-09
1.13632e-09
9.18507e-08
8.29703e-09
-1.00131e-07
5.43134e-07
-1.36506e-06
1.07623e-05
-3.26228e-05
4.7451e-08
-2.46454e-08
-2.28996e-08
2.00297e-05
6.39104e-05
-1.23061e-06
4.22475e-06
-2.9945e-06
-3.64882e-06
-1.19877e-06
-9.03148e-07
1.59649e-06
2.87078e-07
5.5437e-09
-2.92673e-07
-9.77e-08
-4.87911e-07
2.81649e-08
6.4732e-08
-9.30003e-08
-0.000222906
0.000257811
-3.49045e-05
2.44552e-08
2.29867e-08
1.14943e-05
3.82672e-08
-7.155e-08
8.90912e-07