/*--------------------------------*- C++ -*----------------------------------*\
| =========                 |                                                 |
| \\      /  F ield         | OpenFOAM: The Open Source CFD Toolbox           |
|  \\    /   O peration     | Version:  v2012                                 |
|   \\  /    A nd           | Website:  www.openfoam.com                      |
|    \\/     M anipulation  |                                                 |
\*---------------------------------------------------------------------------*/
FoamFile
{
    version     2.0;
    format      ascii;
    class       volScalarField;
    location    "400";
    object      k;
}
// * * * * * * * * * * * * * * * * * * * * * * * * * * * * * * * * * * * * * //

dimensions      [0 2 -2 0 0 0 0];


internalField   nonuniform List<scalar> 
15335
(
0.0174658
0.000201251
0.000157467
0.000141909
0.000155235
0.000143273
0.000179838
0.000164225
0.000132468
0.000145619
0.000149479
0.000142584
0.000178467
0.000172238
0.000163085
0.000128513
0.000196779
0.00019164
0.000140934
0.000158267
0.000132573
0.0327821
0.000160618
0.000132731
0.00010906
0.0175146
0.000183664
0.00013676
0.000164931
4.37787e-05
0.000134781
0.000182025
0.000167591
0.000155718
0.000180834
0.000185562
0.000145586
0.000156191
0.000171638
0.00019166
0.000136197
0.00543759
0.000131852
0.000172031
0.00651934
0.00013618
0.000159255
0.000158117
0.000167686
0.000148709
0.000132906
0.000134933
0.000147535
0.000153366
0.0195283
0.00655164
0.000178462
0.000158081
0.000157577
0.00514761
0.000200527
0.000130768
0.000147534
0.000149468
0.000155014
0.0155346
0.00645796
0.000143269
0.000165066
0.000131121
0.000148364
0.000160411
0.000147118
0.00581412
0.000149323
0.00796751
0.00019956
0.000173821
0.000143048
0.000184772
0.0186849
0.000163456
0.000164214
0.0001827
0.000161236
0.0158626
0.000149701
0.000183348
0.000143238
0.000152099
0.0105944
0.00018241
0.00537973
0.0037152
0.000157787
0.000182688
0.000131674
0.0157353
0.000134743
0.0158731
0.000131785
0.000152221
0.00019482
0.000128623
0.000149271
0.000131597
0.00719605
0.000146982
0.000149625
0.000174491
0.000185879
0.000169363
0.000131509
0.000168084
0.000161646
0.000136072
0.000174763
0.00014857
0.00417686
0.00948438
0.00015188
0.000180568
0.00511758
0.000140985
0.0001805
0.000136695
0.000141622
0.0272
0.000181365
0.000149721
0.000136943
0.000180628
0.000152464
0.017355
0.000135496
0.00392504
0.000145937
0.00013123
0.000173636
0.000154668
0.000149144
0.0118743
0.000140367
0.0181344
0.00509978
0.000150428
0.0109101
0.000154541
0.00014711
0.00017324
0.000144652
0.0152786
0.000128205
0.000156652
0.0122705
0.000144997
0.000183302
0.000146586
0.000135322
0.000160672
0.000139973
0.000152407
0.000147114
0.000169723
0.00015083
0.000141534
0.000135459
0.017234
0.000135132
0.000141654
0.000152688
0.000143444
0.000149487
0.000145217
0.000157585
0.000156219
0.0187969
0.000135204
0.000182233
0.0156089
0.000149278
0.000145685
0.000157828
0.00015583
0.000155834
0.000188769
0.000183313
0.000146623
0.000147558
0.00683958
0.000150207
0.0154704
0.000168119
0.000136125
0.000147119
0.00523191
0.000149249
0.000131177
0.000176861
0.000170261
0.000139291
0.000158201
0.00013615
0.000179092
0.0155906
0.00015035
0.000580611
0.000141356
0.000182086
0.0172477
0.000197669
0.000156341
0.000136383
0.000153345
0.000199249
0.000156972
0.000161586
0.000170691
0.000158203
7.29094e-05
0.000156917
0.000171253
0.0114153
0.000182254
0.00016803
0.00644308
0.000178804
0.000148313
0.000179037
0.000196057
0.000145165
0.000188407
0.0109761
0.000160855
0.000147641
0.000151978
0.000142154
0.0197959
0.00910832
0.000150071
0.000173421
0.000144924
0.00017534
0.000152663
0.0171665
0.000157422
0.0025059
0.000156889
0.00948424
0.00389563
0.000156308
0.00013368
0.000198396
0.00014902
0.000133275
0.0345589
0.000148853
0.000168287
0.0122699
0.000133155
0.0084753
0.00246335
0.00936738
0.000158673
0.00576218
0.00736909
0.0122335
0.000133689
0.000199587
0.000149096
0.000185484
0.000128031
0.0184231
0.000135823
0.000151019
0.00988654
0.00505749
0.000152642
0.00014695
0.0159539
0.000136623
0.000141971
0.000150366
0.000146944
0.000185284
0.000146962
0.000162377
0.000141865
0.000195701
0.000157079
0.000196523
0.000153336
0.000135244
0.000143749
0.00933767
0.000157397
0.000152284
0.00013549
0.000148904
0.000150433
3.8314e-05
0.000174971
0.0124739
0.000138696
0.0102669
0.000136673
0.000136798
2.55683e-05
0.00788153
0.000179175
0.00480394
0.000152925
0.000163463
0.0185161
0.000136126
0.000148823
0.000135332
0.000135231
0.000149172
0.000160404
0.000144336
0.000153444
0.0168363
0.0120086
0.000157602
0.00448133
0.000189797
0.000135283
0.000135157
0.000135479
0.000136015
0.0183002
0.00108445
0.000156118
0.000171094
0.000131491
0.000148024
0.000155873
0.000173893
0.00550573
0.000162879
0.000173128
0.00018339
0.000163148
0.000187131
0.00756717
0.000176046
0.00921282
0.000153028
0.00015348
0.000177057
0.000135381
0.000151779
0.0166429
0.0038647
0.000153255
0.000148486
0.000135104
0.00014427
0.0149561
0.000143036
0.000135912
0.000157755
0.000143071
0.00135985
0.000147914
0.000150713
0.000149474
0.000168004
0.000142331
0.000147817
0.000143491
0.000160242
0.000144459
0.000134358
0.000136267
0.000130944
0.000127986
0.000143797
0.000177573
0.0109281
0.000181248
0.000164298
0.000176528
0.00649563
0.000164677
0.000136458
0.0140922
0.00014136
0.000143797
0.000149653
0.000168127
0.000134954
0.000153411
0.0200656
0.000152128
0.000145899
0.00012841
0.000141638
0.0134389
0.000163379
0.000249034
0.000179303
0.000133426
0.000142123
0.000174652
0.00013304
0.000148614
0.000180085
0.000145691
0.000133355
0.000145606
0.000150011
0.000152138
0.000174627
0.000136018
0.000142257
0.000157234
0.000144539
0.000144698
0.000175643
0.000139054
0.000199109
0.00014372
0.00015952
0.000157408
0.000140991
0.000144309
0.00013666
0.00019771
0.00865512
0.000159995
0.000175272
0.000223419
0.000129455
0.000133009
0.0171374
0.000175629
0.000139013
0.000164637
0.000131786
0.000145684
0.000142018
0.00929155
0.000153348
0.0124873
0.000165563
0.000144303
0.000157076
0.0031573
0.000150528
0.0167692
0.000140647
0.00535446
0.000144088
0.000146231
0.000164794
0.00965187
0.000147388
0.000147107
0.000146553
0.000159385
0.000150205
0.000152948
0.000178444
0.0070054
0.000179221
0.000198862
0.0001533
0.000151799
0.000140099
0.0177174
0.000153253
0.00252662
0.000144188
0.000138851
0.000142039
0.000152615
0.00951494
0.000145487
0.000150175
0.000147774
0.000148217
0.000140568
0.000143408
0.0107169
0.000151161
0.000145738
0.000136132
0.000145947
0.000126677
0.000130413
0.000141681
0.0001342
0.0176974
0.0126469
0.0104391
0.000162847
0.000164481
0.000181527
0.000150428
0.0371541
0.000143265
0.00017448
0.000131304
0.000156018
0.000162306
0.000179351
0.000138944
0.000148049
0.000151367
0.000154295
0.00292562
0.000184485
8.5904e-05
0.00013196
0.00014548
0.000142323
0.00018333
0.0135428
0.00538101
0.00593164
0.000153026
0.000134328
0.000646547
0.000142076
0.00391646
0.000150692
0.000135206
0.000144516
0.000150373
0.00017599
0.0192773
0.000141746
0.000181129
0.000164602
0.0281748
0.00016265
0.00013324
0.000152426
0.000163788
0.000176529
0.000141995
0.0081883
0.000143576
0.010883
0.0167715
0.000148862
0.000176881
0.000166246
0.000170292
0.000142611
0.000131281
0.000134732
0.00881951
0.00880392
0.000139002
0.000151848
0.000144674
0.00919977
0.000165408
0.000144401
0.00016351
0.000142905
0.0018898
0.000151543
0.000163265
0.000158473
0.0175972
0.0103798
0.0113561
0.000141317
0.00013421
0.000175188
0.000147485
0.000134146
0.00014285
0.000150059
0.000144313
0.0139365
0.00977284
0.00745101
0.000170586
0.000154283
0.00016464
0.00740058
0.0106875
0.0154941
0.00015978
0.000135276
0.000136956
0.000152775
0.000141143
0.000157563
0.000138917
0.0258128
0.000158255
0.017948
0.00013869
0.000195547
0.000156627
0.000162689
0.00798795
0.0136758
0.000157607
0.000136137
0.000172276
0.000146367
0.0319936
0.000170519
0.0320872
0.00694027
0.000460512
0.000136549
0.000149447
0.000177286
0.000174452
0.0372541
0.000151569
0.000133644
0.000146517
0.000145996
0.000143165
0.000153027
0.0001807
0.000136702
0.000132909
0.000127995
0.000142502
0.000161482
0.000150953
0.000184682
0.000136352
0.000156524
0.000171938
0.0154417
0.000195158
0.000144147
0.000136177
0.000162188
0.000176296
0.000141854
0.000143515
0.000174281
0.00014441
0.000178051
0.000171524
0.000132383
0.000165028
0.00978432
0.0236245
0.000144225
0.000135495
0.000138484
0.013184
0.00014788
0.000455164
0.000145601
0.000152897
0.000147481
0.000140789
0.000164097
0.00018267
0.0103369
0.00013594
0.00470968
0.000149298
0.000146866
6.69174e-05
0.000142215
0.000146245
0.000153347
0.000157535
0.000138899
0.000174137
0.000143815
0.000144016
0.000141451
0.000180929
0.000162131
0.000138911
0.00689922
0.00017431
0.000133287
0.0235616
0.0140079
0.000178263
0.000138638
0.000153491
0.000141525
0.000169846
0.00017442
0.0001406
0.000158395
0.000148698
0.00869283
0.000249173
0.00014567
0.000160644
0.00649688
0.000146022
0.0157747
0.000185304
0.000154055
0.000131862
0.00504231
0.000152064
0.000165058
0.000162467
9.72955e-05
0.000140043
0.000150472
6.11586e-05
0.00014252
0.000159482
0.019102
0.000185039
0.000201861
0.000156435
0.00014389
0.000133461
0.000139963
0.000145765
0.000146244
0.000163749
0.000161853
0.0066784
0.00997302
0.00016479
0.00337729
0.0191073
0.000182352
0.000143333
0.000136421
0.000135796
0.000149506
0.000132857
0.000150542
0.000141394
0.000145271
0.000145801
0.000132882
0.00831695
0.018703
0.000141359
0.000183131
0.000143892
0.0153762
0.000159305
0.000181577
0.000140588
0.000167394
0.000148811
0.000161563
0.000148641
0.000130495
0.00777994
0.000146943
0.000170037
0.00320156
0.000177644
0.0173534
0.00013991
0.000236819
0.000133125
0.00794958
0.000143838
0.000132805
0.000158312
0.000156789
0.000168547
0.000142191
0.000152486
0.000176372
0.000153196
0.000156147
0.000161733
0.00019467
0.000134138
0.000106312
0.000190531
0.000143615
0.000135908
0.000147698
0.0187953
0.000154386
0.000147483
0.000186597
0.000178566
0.000157982
0.00680793
0.00662696
0.000144157
0.000169235
0.000146854
0.0153851
0.000154224
0.000143926
0.000195975
0.000155568
0.000186551
0.000161526
0.000143664
0.000180507
4.09614e-05
0.000147257
0.000161091
0.000149909
0.000144305
0.00664261
0.000163767
0.000164269
0.000175772
0.000159319
0.000147079
0.000197217
0.000135717
0.000152101
0.000145523
0.000177313
0.00014764
0.000146222
0.000143036
0.000178725
0.000144689
0.000152027
0.000135606
0.000172177
0.0136168
0.00015341
0.000200322
0.000136247
0.000139299
0.000135507
0.00311344
0.00013497
0.000133701
0.00013633
0.000132955
0.000150925
0.000177467
0.000142435
0.000165455
0.000133715
0.000142943
0.0001399
0.000128349
0.0161883
0.000149994
0.000132394
0.000140674
0.000143522
0.000133386
0.000157888
0.000153314
0.000142426
0.000149683
0.0206049
0.000143034
0.00838952
0.000136225
0.000143033
9.97971e-05
0.000133285
0.000111607
0.000491734
0.00506593
0.0169784
0.000144936
0.000173845
0.000181604
0.000171371
0.000152085
0.000143026
0.000190572
0.000142614
0.000149003
0.00015114
0.000140103
5.67302e-05
0.000150159
4.50313e-05
0.000154266
0.000131045
0.000146484
0.000143543
0.000152222
0.000140632
0.0001861
0.00505816
0.000146621
0.000171818
0.000143643
0.000131214
0.00012967
0.000154625
0.0111036
0.00013638
0.0140396
0.0113887
0.000139833
0.0146704
0.000144882
0.000144132
0.000179107
0.000149794
0.000169136
0.00014172
0.00826568
0.000142725
0.000165804
0.000131296
0.00180615
0.000150077
0.00014971
0.000140596
0.00017129
0.000136295
0.000178624
0.000140601
0.000139824
0.000135523
0.00018813
4.07762e-05
0.00787116
0.000141782
0.0139928
0.0081955
0.000164796
7.52324e-05
0.00283246
0.0155862
0.000177931
0.00104147
0.00699062
0.000134168
0.000135416
0.000163629
0.000142462
0.000148017
0.000175072
0.000171678
0.0162592
0.000146479
0.0134968
0.000145664
0.00018254
0.0157325
0.000162671
0.000135725
0.000194615
0.000153482
0.000147982
0.0105739
0.000153435
0.000148502
0.00014008
0.0139432
0.000131103
0.0101782
0.000143325
0.000174989
0.000165692
0.000168656
0.0124634
0.00015064
0.018206
0.000171243
0.000131184
0.000194617
0.000148014
0.000171711
0.000131147
0.000157437
0.00035129
0.0147603
0.00013145
0.00019994
0.0100386
0.000131232
0.00624414
0.000186272
0.000178848
0.0174196
0.0148228
0.000134621
8.5901e-05
0.000187519
0.000198987
0.000157626
0.00014635
0.000157219
0.000138526
0.00753724
0.000134703
0.000147978
0.000131525
0.000150623
0.00015378
0.00017251
0.000339236
0.0138116
0.000146282
0.000174272
0.000144705
0.00984868
0.000149683
0.000149441
0.000185557
0.000143273
0.000137753
0.000147612
0.000128908
0.000144369
0.000155121
0.000159747
0.00013329
0.000148472
0.000143384
0.0127301
0.000142084
0.000140839
0.000143286
0.000149445
0.0107123
0.000132479
0.000140068
0.000197905
0.0012026
0.000132442
0.000195072
0.000147441
0.003684
0.000172866
0.00778692
0.000153344
0.000145769
0.0187095
0.000148117
0.000187167
0.000142855
0.000173592
0.000141074
0.000176522
0.000174174
0.000143146
0.00163819
0.000145981
0.0181129
0.000177673
0.000138694
0.000149644
0.000132983
0.000155376
0.00014751
0.000227328
0.00505078
0.000130557
0.000146505
0.000149487
0.000140077
0.0001428
0.000156231
0.000135334
0.000176754
0.0121153
0.000143712
0.000138515
0.00016581
0.000134784
0.000149038
0.000135227
0.0190255
0.000151325
0.000835206
0.00863399
0.000181437
0.000143187
0.000146359
0.00345458
0.000152151
0.000147488
0.0091909
0.00908645
0.00014979
0.000158085
0.000142147
0.000150805
0.000158409
0.000167708
0.000138463
0.00279749
0.0163728
0.000170807
0.000147196
0.0109842
0.0179757
0.000181983
0.000153686
0.00014273
0.000144254
0.000131862
0.000142318
0.000149106
0.000200815
0.000147469
0.000145497
0.000155639
0.000140144
0.0130823
0.000140707
0.000137363
0.000131925
0.000148746
0.00016092
0.000173248
0.000143338
0.00014686
0.000187637
0.000133433
0.000146077
0.000141077
0.000151037
0.00871538
0.0114253
0.00014075
0.000145357
0.0144167
0.000172533
0.000136601
0.000128753
0.000131065
0.000140665
0.000164341
0.000142089
0.000137475
0.000146295
0.000148023
0.00134505
0.000175158
0.000152162
0.000170101
0.0126328
0.000153853
0.000191402
0.000174254
0.00812837
0.000141226
0.0001991
0.000167647
0.0170885
0.00267047
0.000183879
0.0156634
0.000202161
0.000151024
0.000199722
0.000151773
0.0169119
0.0176553
0.00764012
0.0140151
0.000131311
0.0045795
0.000146494
0.000131398
0.000168256
0.00960884
0.000155071
0.00016705
0.000143962
0.000131215
0.000152149
0.000146726
0.000152107
0.000132481
0.0067004
0.000171639
0.000163084
0.000139169
0.000135147
0.000164696
0.000141808
0.000164371
0.000146885
0.000143369
0.000132525
0.000147285
0.000148019
0.000145854
0.00014182
0.000131631
0.000178389
0.000140432
0.000175112
0.00887736
0.00220924
0.000105461
0.000190171
0.000135038
0.0177357
0.000147875
0.0129001
0.000135439
0.000131396
0.00014252
0.000105266
0.000144828
0.00014689
0.0125713
0.000191634
0.0105556
0.0189562
0.000199482
0.00026961
0.000143183
0.000147591
0.00934456
0.00246675
0.000142015
0.000142982
0.000138293
0.000302226
0.000147437
0.0087715
0.00538402
0.0192013
0.0120371
0.000159081
0.000157794
0.00576826
0.0099322
0.0142034
0.000144617
0.00732034
0.00014309
0.00657663
0.000131706
0.000142537
0.000142907
0.000133045
0.0167586
0.000137941
0.000173743
0.000181009
0.0245487
0.000143911
0.00015775
0.000163356
0.0127098
0.0110398
0.000161132
0.000184613
0.00455669
0.000131145
0.000132153
0.000159144
0.000166943
0.000181482
0.000183282
0.000146264
0.000171514
0.00115192
0.000135013
0.00013831
0.00173781
0.00801511
0.000161326
0.000148635
0.00017507
0.0104335
0.000146487
0.0001629
0.000132784
0.000173413
0.000168983
0.0123367
0.0120218
0.000145883
0.000182414
0.000142069
0.000160966
0.000152872
0.000164276
0.000148814
0.000146615
0.0180727
0.000169121
0.000170794
0.000152117
0.000151382
0.000181549
0.00189417
0.000178066
0.000169456
6.95504e-05
0.00290966
0.00020939
0.000152306
0.000167076
0.00828718
0.000132211
0.000141089
0.000170588
0.00803201
0.000134663
0.000138101
0.00187115
0.000182577
0.000140388
0.000163372
0.000143292
0.000172835
0.0002546
0.000132858
0.0111169
0.000769284
0.000139988
0.00014614
0.00013816
0.00013331
0.00013485
0.000173887
0.0106651
0.00013496
0.000148764
0.000180561
0.00386545
0.000128785
8.18845e-05
0.000135796
0.000133296
0.000141241
0.000140141
0.000142757
0.000181152
0.000149608
0.0100181
0.00680708
0.000172415
0.00965243
0.0016768
0.000153271
0.000142722
0.000240117
0.000132882
0.000136438
0.000156421
0.0100083
0.000194485
0.0262731
0.0141457
0.0177227
0.000142413
0.00768242
0.000162729
0.000713461
0.0186175
0.00014197
0.00014139
0.000157036
0.000138418
0.00014725
0.000188232
0.0162281
0.000142699
0.00016151
0.000133473
0.0105717
0.000140395
0.0156986
0.00014149
0.00011114
0.0163014
0.00017617
0.000155087
0.00015348
0.000136118
0.00018839
0.000187509
0.000136205
0.000141399
9.92131e-05
0.000170816
0.00018728
0.000181776
0.012301
0.000152663
0.000155693
0.000144441
0.000145469
0.000162735
0.000143153
0.000138215
0.000138046
0.000144643
0.000140251
0.000142922
0.000975439
0.000146484
0.000141115
0.00153215
0.000111719
0.000147569
0.000176584
0.0114734
0.000155219
0.000149576
0.0156839
0.000149837
0.00234284
0.0141134
0.000142357
0.00015592
0.010985
0.000142357
0.000179992
0.000185334
0.00017986
0.000140112
0.0109342
0.00880159
0.000151942
0.000151793
0.000177927
0.00010866
0.000128006
0.000140166
0.000143213
0.000152551
0.0178248
0.0186124
0.00552449
0.0118674
0.0104827
0.000181706
0.000167378
0.000267682
0.000129621
0.000161542
0.000170254
0.000158439
0.000133703
0.000170416
0.000137566
0.000144851
0.00286946
0.00810748
0.000170404
0.00448788
0.000149435
0.000152229
0.000197419
0.00863075
0.00013432
0.0115507
0.000149662
0.000137873
0.0120537
0.000168205
0.000178876
0.000133971
0.000158465
0.000189226
0.000148022
0.000168552
0.000157725
0.000176075
0.000145346
9.08278e-05
0.00016545
0.000139526
0.000146726
0.000963441
0.000591098
0.000155999
0.000168939
0.0155134
0.0166675
0.000131417
0.000180242
0.000161573
0.000111023
0.000146904
0.000136426
0.000147625
0.000149056
0.00678655
0.000153455
0.000196948
0.000142917
0.000146913
0.00858406
0.000142575
0.000146032
0.000168801
0.000155175
0.000145352
0.000143684
0.000150909
0.000168783
0.000113246
0.000158061
0.00017024
0.000148382
0.000142879
0.000146656
0.000145165
0.000236961
0.000151709
0.0176525
0.000151673
0.000143048
0.000170988
0.000146122
0.000153376
0.000150772
0.000142185
0.000143883
0.00014453
0.0163644
0.000142122
0.000163341
0.000149334
0.035519
0.00535633
0.0285032
0.00014588
0.00501449
0.000144828
0.000163876
0.000142929
0.000141433
0.00851946
0.000168371
0.000146422
0.000174184
0.0141763
0.000152321
0.0124297
0.000150525
0.00125736
0.0127969
0.000145694
0.000142581
0.000146123
0.0001699
0.000138626
0.000137827
0.000142665
0.0101854
0.00053284
0.000186348
0.000149548
0.00014344
0.000753789
0.0144801
0.0241996
0.00675685
0.015505
0.000139076
0.00195271
0.000145847
0.000164108
0.000711327
0.000135635
0.000145788
0.000149871
0.010014
0.000624773
0.0181031
0.000140052
0.000151876
0.00015331
0.000185834
0.0149625
0.000156677
0.000172842
0.000146567
0.000160829
0.000157299
0.000134778
0.0165803
0.00521093
0.00014927
0.000153123
0.000153628
0.000150844
0.0153738
0.000154001
0.000140877
0.000143317
0.000141191
0.000148832
0.0112344
0.000183791
0.000139623
0.000169765
0.000145023
0.000141911
0.000148044
0.000140769
0.000143149
0.0113553
0.000169016
0.000168563
0.000139757
0.000178721
0.000133181
0.000139809
0.000138579
0.000138939
0.000132938
0.000146734
0.0113206
0.000137878
0.0144141
0.0199716
0.000180382
0.000164858
0.000143368
0.00935961
0.0194903
0.000147088
0.00747194
0.00017471
0.00202999
0.000138708
0.000200469
0.000168743
0.00013997
0.000145421
0.000150492
0.000201383
0.000141993
0.000141887
0.000139445
0.000174923
0.000147417
0.000142105
0.000175463
0.000156685
0.000135913
0.000144121
0.00198934
0.00014234
0.0139175
0.000152754
0.000155523
0.000181227
0.0122629
0.00256871
0.000147548
0.000144372
0.00014527
0.000147609
0.0144967
0.00981646
0.000153562
0.000138077
0.00319059
0.00015101
0.000149004
0.000133079
0.000114718
0.000152209
0.000187365
0.0161036
0.000149939
0.000193594
0.00707034
0.000174026
0.000180235
0.000182954
0.00851313
0.00556666
0.000149948
0.0111795
0.000150772
0.000167192
0.00287911
0.000155561
0.000145769
0.000147466
0.00116961
0.0157684
0.0116043
0.000149368
0.00014316
0.000157321
0.000151726
0.00944277
0.000133092
0.0152049
0.000187057
0.000141207
0.000140036
0.00693808
0.000156143
0.00414994
0.000151734
0.00015571
0.000166776
0.00019329
0.000143133
0.00015674
0.0103702
0.0278474
0.00561995
0.0104554
0.00013993
0.0036889
0.000140275
0.000154318
0.000150091
0.000216473
0.000133304
0.000167784
0.000144519
0.000146514
0.000175726
0.0156177
0.0134009
0.000150986
0.000177421
0.0078288
0.00013942
0.000143143
0.000141837
0.000145019
0.000191745
0.000147714
0.000144868
0.00602573
0.000145325
0.0111332
0.0107455
0.000174502
0.000134532
0.000132087
0.000163026
0.000158345
0.000154655
0.000138948
0.000137881
0.000134501
0.000171429
0.00946394
0.000194666
0.000143917
6.93675e-05
0.000139191
0.000190741
0.0122964
0.000175311
0.000145875
0.000171117
8.58854e-05
0.000139272
0.000151246
0.000181354
0.000145943
0.0195902
0.000186844
0.000135231
0.00039065
0.000173469
0.000146653
0.000140739
0.000136466
0.000143116
0.000146745
0.000134669
0.000145662
0.000139579
0.000155437
0.0001438
0.000148028
0.000141968
0.00433776
0.000151579
0.000135958
0.00529802
0.000196138
0.0151388
0.000135899
0.000140152
0.000144418
0.000134461
0.000135477
0.0001453
0.000182217
0.00018473
0.00015199
0.000141956
0.000142565
0.000152557
0.000169542
0.000148582
0.000135969
0.000187597
0.000146885
0.000143414
0.00018498
0.0180666
0.0183261
0.000159731
0.000141958
0.000159643
0.0110412
0.000141203
0.000145286
0.000155202
0.000144916
0.00936867
0.000147018
0.000143676
0.000135851
0.00014332
0.0138642
0.000139815
0.000135444
0.0135221
0.000123557
0.0142156
0.000133454
0.0137569
0.000135161
0.000153447
0.000141309
0.015811
0.000136705
0.000158046
0.000157747
0.000158754
0.000155878
0.000170183
0.000147518
0.00976456
0.00015676
0.00019553
0.000146684
0.000156054
0.00598879
0.000157088
0.00017251
0.000139361
0.000139193
0.000149628
0.00016082
0.000164228
0.0182159
0.0358616
0.000140575
0.000135082
0.0137385
0.000142444
0.00019315
0.0148744
0.00938348
0.00592169
0.0009712
0.0107135
0.000133425
0.00105542
0.000161988
0.000387115
0.00016083
0.000181888
0.00101272
0.000147738
0.000135198
0.000140577
0.000142272
0.00591391
0.00608349
0.000161468
0.000161239
0.000128565
0.000138369
0.000127783
0.000128599
0.000141135
0.00015474
0.000139259
0.000142474
0.000160412
0.00946662
0.00700793
0.000142589
0.000180005
0.000140875
0.00014439
0.000172978
0.000153986
0.00015623
0.00109592
0.000130897
0.00392012
0.000138297
0.000137449
0.000151338
0.000135629
0.0145987
0.0134166
0.000161691
0.000151074
0.000132145
0.000148944
0.000131899
0.000147693
0.000168128
0.000157695
0.000190793
0.000196111
0.000170578
0.000170901
0.000162299
0.00780523
0.000157671
0.000158267
0.000147854
0.000159074
0.000166803
0.00123128
0.000155347
0.000125404
0.000137487
0.000151653
0.000182468
0.000141487
0.000188134
0.000145981
0.000132166
0.000167088
0.0124734
0.000145467
0.000149136
0.0109901
0.000184384
0.00019671
0.000158968
0.000184657
0.0058946
0.000152951
0.000141914
0.0135359
0.000173515
0.000136234
0.00585296
0.000130034
0.0154889
0.000158068
0.000188925
0.000146875
0.000133824
0.00020473
0.000151593
0.000175045
0.0123878
0.000170885
0.0020002
0.000175767
0.0178596
0.00933006
0.000143254
0.000143244
0.000142446
0.0181723
0.0125248
0.0133982
0.0138074
0.0146991
0.0140397
0.000144043
0.000147081
0.00014092
0.0199807
0.0155857
0.000154291
0.0088927
0.000144403
0.0132821
0.000145681
0.00014863
0.0109602
0.000146748
0.000146642
0.000195203
0.000155559
0.000152391
0.000148801
0.000152678
0.000177328
0.00637262
0.000142509
0.000140496
0.000187111
0.0122765
0.00177152
0.000141327
0.000148588
0.000172807
0.000136095
0.000166164
0.00583352
0.000160011
0.000179474
8.78959e-05
0.000134485
0.00981855
0.000136232
0.000170231
0.000143833
0.000151858
0.0100799
0.000185513
0.00014507
0.000141364
0.000142439
0.000181095
0.000170686
0.000128091
0.000142396
0.000150013
0.00016128
0.000156551
0.000147278
0.000150424
0.00016144
0.000134606
0.0148622
0.000180844
0.000151334
0.000137968
4.18786e-05
9.19265e-06
0.000160691
0.00927622
0.000897305
0.000183979
0.0117708
0.000144262
0.00673454
0.00014318
0.00630137
0.000138339
0.000170969
0.000137998
0.0159608
0.0134778
0.000176168
0.000141426
0.0132787
0.0231457
0.00844765
0.000145757
0.000178329
0.000163428
0.011642
0.000169894
0.0158552
0.000143782
0.000143088
0.000162237
0.000188013
0.00791402
0.000160359
0.000152803
0.0112022
0.000170017
0.000152299
0.00015311
0.000139909
0.0132942
0.000147186
0.000138419
0.000146263
0.000253055
0.000192352
0.00013518
0.00137326
0.0122056
0.000138011
0.000139902
0.000151782
0.000143375
0.00330857
0.00014137
0.00019518
0.0119894
0.000140098
0.000157006
0.00973338
0.000172196
0.000143707
0.00014133
0.00901683
0.000135775
0.000138116
0.00017597
0.00993416
0.000164559
0.00203068
0.000147122
0.00987403
0.000153636
0.000194775
0.000140234
0.000142286
0.0109953
0.000162991
0.000144634
0.0115912
0.000173912
0.0127404
0.0116232
0.00714789
0.000126821
0.000150717
0.000153254
0.00014008
0.000141139
0.00013766
0.00655068
0.00369931
0.0108508
0.000152918
0.000193833
0.000185305
0.000147363
0.000143786
0.000142528
0.000168315
0.0148339
0.000148825
0.00534456
0.000160043
0.000146369
0.000139582
0.000170405
0.00349694
0.000158654
0.000151195
0.0296597
0.000654668
0.000183292
0.000159989
0.000152606
0.000142219
0.0219045
0.00013911
0.00586921
0.000136008
0.000140706
0.0157464
0.00013386
0.000168346
0.000179765
0.00754079
0.000140892
0.000136101
0.010252
0.000147373
0.000142041
0.000145576
0.000162422
8.16654e-05
0.0209432
0.000143454
0.000138046
0.000166682
0.000465036
0.000145125
0.00548762
0.000143178
0.000172471
0.000163148
0.0268654
0.00014308
0.000139558
0.000151521
0.000143415
0.000167498
0.000164421
0.000139765
0.000142577
0.0156342
0.00483283
0.000139208
0.000138814
0.000130989
0.0133178
0.000150187
0.000151531
0.0107842
0.00018484
0.000143828
0.0111423
0.000156182
0.000147751
0.000166893
0.000145575
0.000138952
0.000142137
0.000139167
0.000135962
0.000143806
0.00013814
0.000151523
0.000136944
0.000145998
0.000113669
0.000173212
0.000173117
0.000144944
0.00367595
0.000145547
0.000156936
0.000147328
0.000143927
0.000170871
0.00017892
0.000142334
0.000135521
0.00016254
0.000166178
0.000145065
0.000470622
0.00840618
0.0129525
0.000342322
0.000133845
0.0129553
0.010409
0.000192828
0.000169803
0.00872851
0.000151344
0.000147771
0.000138888
0.000147059
0.000148392
0.000142022
0.000159677
0.000141878
0.000137673
0.0078757
0.000169665
0.000169274
0.000139901
0.000172874
0.000154671
0.000142501
0.000143853
0.000136645
0.00014693
0.000145388
0.000146172
0.00017229
0.0130552
0.000135716
0.0118425
0.0113467
0.000142767
0.000142283
0.000193102
0.00147797
0.00014176
0.00014265
0.0129159
0.000142993
0.000143035
0.000180877
0.00013872
0.000142916
0.000142317
0.000145696
0.0216844
0.00998463
0.000147808
0.000142142
0.000142705
0.000140797
0.000132612
0.000141559
0.00014228
0.000149223
0.0121087
0.00462325
0.000146487
0.00016784
0.000298076
0.00015021
0.000195729
0.000156851
0.000146431
0.000139567
0.000138191
0.000136905
0.00015007
0.000276304
0.000143633
0.000178827
0.00900317
0.0082208
0.0179436
0.000141896
0.000156763
0.000155094
0.000183556
0.000157065
0.000148665
0.000153082
0.00019856
0.000145887
0.000152108
0.000184644
0.000373802
0.000170674
0.000153915
0.000142282
0.0127349
0.0173721
0.012336
0.000143298
0.000141218
0.000136147
0.00567454
0.0262629
0.000131139
0.000164185
0.000187156
0.000588178
0.000163108
0.000155659
0.000164935
0.000139763
0.000134942
0.000139483
0.000153435
0.00226287
0.000135976
0.000156786
0.000140693
0.000162265
0.0316733
0.000179222
0.0112815
0.010574
0.00329441
0.00615904
0.00014936
0.000163138
0.000143755
0.0156305
0.000141826
0.00644039
0.000156892
0.0105687
0.000174381
0.0109001
0.0134895
0.000158427
0.000140498
0.0106165
0.00725617
0.000141265
0.00888395
0.000153714
0.0001425
0.000156277
0.0160434
0.00013975
8.8558e-05
0.000140016
0.000142958
0.0137799
0.000167283
0.000139596
0.000151882
0.000152333
0.000142542
0.000160437
0.000181345
0.000530702
0.000181366
0.00016948
0.000198695
0.0100323
0.000161936
0.00126577
0.000127634
0.00330585
0.000183974
0.000166557
0.000139567
0.00017127
0.000137356
0.0149103
0.0111765
0.000145337
0.000152887
0.000172698
0.0148363
0.000171477
0.00745866
0.000145393
0.000132696
0.00013912
0.015037
0.000166437
0.000169585
0.0134077
0.000134995
0.000134296
0.000151366
0.0122843
0.0138716
0.000139228
0.000137731
0.000139742
0.0111991
0.000139153
0.0316953
0.0100994
0.000134108
0.000163646
0.000177798
0.000134528
0.000171901
0.000143433
0.00113949
0.000187026
0.000141189
0.000137296
0.000133645
0.0114995
0.000151255
0.000174553
0.0145971
0.00579379
0.000149191
0.0142096
0.000741351
0.0032153
0.000187045
0.000174723
0.000143699
0.00997549
0.000168315
0.000143228
0.000125481
0.0132806
0.000169541
0.000144156
0.000169334
0.000133106
0.000144491
0.00014847
0.000134231
0.0115802
0.000113512
0.000169631
0.000175335
0.000183858
0.000181543
0.000150025
0.00150695
0.0160067
0.0239249
0.0165392
0.000148433
0.000146888
0.0151303
0.000133169
0.0144495
0.000145681
0.000137437
0.000168071
0.000177237
0.000169035
0.00017787
0.0231392
0.000132204
0.000169472
0.000168975
0.000372979
0.0165929
0.00946289
0.00491087
0.000141542
0.00137209
0.000157777
0.000147344
0.000154717
0.000134323
0.000152969
0.00358704
0.000179056
0.000161055
0.000148135
0.036885
0.0114053
0.00017704
0.0327481
0.000200035
0.000145195
0.000139257
0.0120344
0.000150718
0.00763513
0.0106796
0.0347696
0.000141287
0.00014265
0.000131449
0.000179624
0.000128536
0.000142219
0.000136453
0.00938509
0.000150256
0.00014503
0.00352944
0.000138303