/*--------------------------------*- C++ -*----------------------------------*\
| =========                 |                                                 |
| \\      /  F ield         | OpenFOAM: The Open Source CFD Toolbox           |
|  \\    /   O peration     | Version:  v2012                                 |
|   \\  /    A nd           | Website:  www.openfoam.com                      |
|    \\/     M anipulation  |                                                 |
\*---------------------------------------------------------------------------*/
FoamFile
{
    version     2.0;
    format      ascii;
    class       volScalarField;
    location    "400";
    object      k_0;
}
// * * * * * * * * * * * * * * * * * * * * * * * * * * * * * * * * * * * * * //

dimensions      [0 2 -2 0 0 0 0];


internalField   nonuniform List<scalar> 
15335
(
0.0174658
0.000201244
0.000157445
0.000141909
0.000155235
0.000143273
0.000179838
0.000164225
0.000132468
0.000145619
0.000149479
0.000142584
0.000178467
0.000172238
0.000163085
0.000128513
0.000196773
0.000191646
0.000140934
0.000158267
0.000132573
0.0327808
0.000160618
0.000132731
0.000109036
0.0175147
0.000183664
0.00013676
0.000164931
4.37707e-05
0.000134781
0.000182025
0.000167591
0.000155718
0.000180834
0.000185561
0.000145586
0.000156191
0.000171638
0.000191664
0.000136197
0.00543784
0.000131852
0.000172032
0.00651933
0.00013618
0.000159255
0.000158117
0.000167686
0.000148709
0.000132906
0.000134933
0.000147535
0.000153366
0.019528
0.00655164
0.000178463
0.000158081
0.000157577
0.0051476
0.00020052
0.000130768
0.000147534
0.000149468
0.000155014
0.0155343
0.00645794
0.000143269
0.000165066
0.000131121
0.000148365
0.000160411
0.000147118
0.00581405
0.000149323
0.00796742
0.000199554
0.000173821
0.000143048
0.000184772
0.018685
0.000163456
0.000164214
0.0001827
0.000161236
0.0158627
0.000149701
0.000183348
0.000143238
0.000152099
0.0105944
0.000182409
0.00537963
0.00371523
0.000157787
0.000182688
0.000131674
0.0157351
0.000134743
0.0158729
0.000131785
0.000152221
0.000194816
0.000128623
0.000149271
0.000131597
0.00719601
0.000146982
0.000149625
0.000174491
0.000185879
0.000169363
0.000131514
0.000168084
0.000161646
0.000136072
0.000174763
0.00014857
0.0041769
0.00948437
0.00015188
0.000180568
0.00511754
0.000140985
0.0001805
0.000136695
0.000141622
0.0271979
0.000181365
0.000149721
0.000136943
0.000180628
0.000152464
0.017355
0.000135496
0.00392492
0.000145937
0.00013123
0.000173636
0.000154667
0.000149144
0.0118747
0.000140367
0.0181345
0.00509976
0.000150428
0.0109098
0.00015454
0.00014711
0.00017324
0.000144652
0.0152776
0.000128205
0.000156652
0.0122707
0.000144997
0.000183301
0.000146586
0.000135322
0.000160672
0.000139973
0.000152407
0.000147114
0.000169723
0.00015083
0.000141534
0.000135459
0.0172326
0.000135132
0.000141654
0.000152688
0.000143444
0.000149487
0.000145217
0.000157585
0.000156219
0.0187971
0.000135204
0.000182233
0.0156086
0.000149278
0.000145686
0.000157828
0.00015583
0.000155834
0.00018877
0.000183312
0.000146625
0.000147558
0.00683953
0.000150207
0.0154701
0.000168119
0.000136125
0.000147119
0.0052321
0.000149249
0.000131177
0.000176861
0.000170266
0.000139291
0.000158201
0.00013615
0.000179094
0.0155904
0.00015035
0.000580566
0.000141356
0.000182087
0.0172477
0.000197664
0.000156341
0.000136383
0.000153345
0.000199246
0.000156972
0.000161586
0.000170691
0.000158203
7.29398e-05
0.000156917
0.000171254
0.0114149
0.000182255
0.00016803
0.0064431
0.000178805
0.000148313
0.000179037
0.000196053
0.000145165
0.000188408
0.010976
0.000160855
0.000147641
0.000151978
0.000142154
0.0197952
0.00910829
0.000150071
0.000173421
0.000144924
0.000175341
0.000152663
0.0171665
0.000157422
0.00250578
0.000156889
0.00948488
0.00389564
0.000156308
0.00013368
0.000198408
0.00014902
0.000133275
0.0345582
0.000148853
0.000168287
0.0122695
0.000133155
0.00847503
0.00246309
0.00936736
0.000158672
0.00576218
0.00736904
0.0122337
0.000133689
0.000199587
0.000149096
0.000185487
0.000128031
0.0184232
0.000135823
0.000151019
0.00988648
0.00505751
0.000152642
0.00014695
0.0159537
0.000136623
0.000141971
0.000150366
0.000146944
0.000185287
0.000146962
0.000162377
0.000141865
0.000195699
0.000157079
0.000196528
0.000153336
0.000135244
0.000143749
0.00933756
0.000157397
0.000152284
0.00013549
0.000148904
0.000150433
3.83163e-05
0.000174972
0.0124728
0.000138698
0.0102672
0.000136673
0.000136798
2.55628e-05
0.00788143
0.000179176
0.00480396
0.000152925
0.000163461
0.0185163
0.000136126
0.000148823
0.000135332
0.000135231
0.000149172
0.000160404
0.000144336
0.000153444
0.0168348
0.0120084
0.000157602
0.00448129
0.000189801
0.000135283
0.000135157
0.000135479
0.000136015
0.0182986
0.00108438
0.000156118
0.000171094
0.000131491
0.000148024
0.000155873
0.000173893
0.00550573
0.000162879
0.000173128
0.000183392
0.000163148
0.000187131
0.00756737
0.000176046
0.00921337
0.000153028
0.00015348
0.000177056
0.000135381
0.000151779
0.016644
0.00386305
0.000153255
0.000148486
0.000135104
0.00014427
0.0149557
0.000143036
0.000135912
0.000157755
0.000143071
0.00135976
0.000147914
0.000150713
0.000149474
0.000168004
0.000142331
0.000147817
0.000143491
0.000160242
0.000144459
0.000134358
0.000136267
0.000130944
0.000127986
0.000143797
0.000177573
0.0109288
0.000181248
0.0001643
0.000176529
0.00649565
0.000164677
0.000136458
0.0140916
0.00014136
0.000143797
0.000149653
0.000168128
0.000134954
0.000153411
0.0200648
0.000152128
0.000145899
0.00012841
0.000141638
0.0134382
0.000163379
0.000249019
0.000179302
0.000133426
0.000142123
0.000174652
0.00013304
0.000148614
0.000180087
0.000145691
0.000133355
0.000145606
0.000150011
0.000152138
0.000174627
0.000136018
0.000142257
0.000157234
0.000144539
0.000144698
0.000175643
0.000139054
0.000199124
0.00014372
0.00015952
0.00015742
0.000140991
0.000144309
0.00013666
0.000197733
0.00865491
0.000159995
0.000175272
0.000223406
0.000129455
0.000133009
0.0171375
0.000175629
0.000139013
0.000164637
0.000131786
0.000145684
0.000142018
0.00929148
0.000153348
0.0124871
0.000165563
0.000144303
0.000157076
0.00315716
0.000150528
0.0167694
0.000140647
0.00535446
0.000144088
0.000146231
0.000164795
0.00965193
0.000147388
0.000147107
0.000146553
0.000159385
0.000150204
0.000152948
0.000178445
0.00700537
0.000179221
0.000198854
0.0001533
0.000151799
0.000140099
0.0177175
0.000153253
0.00252612
0.000144188
0.000138851
0.000142039
0.000152615
0.00951494
0.000145487
0.000150175
0.000147774
0.000148217
0.000140568
0.000143408
0.0107176
0.00015116
0.000145738
0.000136132
0.000145947
0.000126677
0.000130413
0.000141681
0.0001342
0.0176975
0.0126468
0.0104391
0.000162847
0.000164481
0.000181528
0.000150428
0.0371544
0.000143265
0.00017448
0.000131304
0.000156018
0.000162306
0.000179353
0.000138944
0.000148049
0.000151367
0.000154295
0.00292499
0.000184487
8.59309e-05
0.00013196
0.00014548
0.000142323
0.00018333
0.0135424
0.005381
0.00593161
0.000153026
0.000134328
0.000646489
0.000142076
0.00391575
0.000150692
0.000135206
0.000144516
0.000150373
0.00017599
0.0192775
0.000141746
0.00018113
0.000164602
0.0281763
0.000162652
0.00013324
0.000152426
0.000163788
0.000176529
0.000141995
0.00818818
0.000143576
0.0108828
0.0167715
0.000148862
0.000176881
0.000166246
0.000170292
0.000142611
0.000131281
0.000134732
0.00881943
0.00880375
0.000139002
0.000151848
0.000144674
0.00919961
0.000165408
0.000144401
0.00016351
0.000142905
0.00188888
0.000151543
0.000163265
0.000158473
0.0175973
0.0103796
0.011356
0.000141317
0.00013421
0.000175188
0.000147485
0.000134146
0.00014285
0.000150059
0.000144313
0.0139358
0.00977271
0.00745099
0.000170586
0.000154283
0.00016464
0.00740057
0.0106875
0.0154938
0.00015978
0.000135276
0.000136956
0.000152775
0.000141211
0.000157563
0.000138917
0.0258128
0.000158255
0.0179473
0.00013869
0.000195566
0.000156627
0.000162689
0.0079879
0.0136754
0.000157607
0.000136137
0.000172276
0.000146367
0.0319931
0.000170519
0.0320866
0.00694022
0.000460417
0.000136549
0.000149447
0.000177285
0.000174452
0.0372547
0.000151569
0.000133644
0.000146517
0.000145996
0.000143165
0.000153027
0.0001807
0.000136702
0.000132909
0.000127995
0.000142502
0.000161482
0.000150953
0.000184681
0.000136352
0.000156524
0.000171938
0.0154414
0.000195157
0.000144147
0.000136177
0.000162188
0.000176296
0.000141854
0.000143515
0.000174255
0.00014441
0.00017805
0.000171524
0.000132383
0.000165028
0.00978435
0.0236248
0.000144225
0.000135495
0.000138484
0.0131838
0.00014788
0.000455374
0.000145601
0.000152897
0.000147481
0.000140789
0.000164097
0.000182672
0.0103353
0.00013594
0.0047097
0.000149298
0.000146866
6.69256e-05
0.000142215
0.000146245
0.000153347
0.000157535
0.000138899
0.000174137
0.000143815
0.000144016
0.000141451
0.000180929
0.000162133
0.000138911
0.00689918
0.00017431
0.000133287
0.0235631
0.014008
0.000178263
0.000138638
0.000153491
0.000141525
0.000169846
0.00017442
0.0001406
0.000158395
0.000148698
0.00869278
0.00024919
0.00014567
0.000160644
0.00649689
0.000146022
0.0157748
0.000185388
0.000154055
0.000131862
0.00504231
0.000152064
0.000165058
0.000162467
9.72691e-05
0.000140043
0.000150472
6.11544e-05
0.00014252
0.000159482
0.0191022
0.000185041
0.000201869
0.000156435
0.00014389
0.000133461
0.000139963
0.000145765
0.000146244
0.000163749
0.000161853
0.00667839
0.00997286
0.00016479
0.00337721
0.0191075
0.000182352
0.000143333
0.000136421
0.000135796
0.000149506
0.000132857
0.000150542
0.000141394
0.000145271
0.000145801
0.000132882
0.00831682
0.0187031
0.000141359
0.000183131
0.000143892
0.0153758
0.000159305
0.000181578
0.000140588
0.000167394
0.000148811
0.000161564
0.000148641
0.000130495
0.00777985
0.000146943
0.000170037
0.00320147
0.000177644
0.0173536
0.00013991
0.000236808
0.000133125
0.00794952
0.000143838
0.000132805
0.000158312
0.000156792
0.000168547
0.000142191
0.000152486
0.000176373
0.000153196
0.000156147
0.000161733
0.000194665
0.000134138
0.000106304
0.000190534
0.000143615
0.000135908
0.000147698
0.0187955
0.000154386
0.000147483
0.000186596
0.000178567
0.000157982
0.00680851
0.00662695
0.000144157
0.000169235
0.000146854
0.0153847
0.000154224
0.000143926
0.000195983
0.000155568
0.000186551
0.000161526
0.000143664
0.000180507
4.0949e-05
0.000147257
0.000161091
0.000149909
0.000144305
0.0066426
0.000163767
0.000164271
0.000175772
0.000159318
0.000147079
0.000197213
0.000135717
0.000152101
0.000145523
0.000177314
0.00014764
0.000146222
0.000143036
0.000178726
0.000144689
0.000152027
0.000135606
0.000172177
0.0136164
0.00015341
0.000200325
0.000136247
0.000139299
0.000135507
0.00311317
0.00013497
0.000133701
0.00013633
0.000132955
0.000150925
0.000177468
0.000142435
0.000165455
0.000133715
0.000142943
0.0001399
0.000128349
0.0161884
0.000149994
0.000132394
0.000140674
0.000143522
0.000133386
0.000157888
0.000153314
0.000142426
0.000149683
0.0206052
0.000143034
0.00838944
0.000136225
0.000143033
9.98008e-05
0.000133285
0.00011161
0.000491696
0.005066
0.0169783
0.000144936
0.000173845
0.000181603
0.000171372
0.000152085
0.000143026
0.000190576
0.000142614
0.000149003
0.00015114
0.000140103
5.67409e-05
0.000150159
4.50189e-05
0.000154266
0.000131045
0.000146484
0.000143543
0.000152222
0.000140632
0.000186097
0.00505629
0.000146621
0.000171818
0.000143643
0.000131214
0.00012967
0.000154625
0.0111035
0.00013638
0.014039
0.011389
0.000139833
0.0146702
0.000144882
0.000144132
0.000179106
0.000149794
0.000169136
0.00014172
0.00826556
0.000142725
0.000165804
0.000131296
0.00180596
0.000150077
0.00014971
0.000140596
0.00017129
0.000136295
0.000178623
0.000140601
0.000139824
0.000135523
0.00018813
4.08062e-05
0.00787109
0.000141782
0.0139923
0.00819539
0.000164796
7.52751e-05
0.00283232
0.0155864
0.000177931
0.00104132
0.0069906
0.000134168
0.000135416
0.000163629
0.000142462
0.000148017
0.000175072
0.000171678
0.016259
0.000146479
0.0134964
0.000145664
0.00018254
0.0157323
0.000162671
0.000135725
0.000194613
0.000153482
0.000147982
0.0105742
0.000153435
0.000148502
0.00014008
0.0139427
0.000131103
0.0101786
0.000143325
0.000174989
0.000165692
0.000168656
0.0124634
0.00015064
0.0182062
0.000171243
0.000131184
0.000194617
0.000148014
0.000171711
0.000131147
0.000157437
0.000351234
0.0147598
0.00013145
0.000199935
0.0100386
0.000131232
0.00624451
0.000186272
0.000178848
0.0174196
0.0148227
0.000134621
8.58588e-05
0.000187518
0.00019898
0.000157626
0.00014635
0.000157219
0.000138526
0.00753802
0.000134703
0.000147978
0.000131525
0.000150623
0.00015378
0.00017251
0.000339265
0.0138117
0.000146282
0.000174272
0.000144705
0.00984874
0.000149683
0.000149441
0.000185555
0.000143273
0.000137753
0.000147612
0.000128908
0.000144369
0.000155121
0.000159747
0.00013329
0.000148472
0.000143384
0.0127302
0.000142084
0.000140839
0.000143286
0.000149445
0.0107121
0.000132479
0.000140068
0.000197911
0.00120249
0.000132442
0.000195071
0.000147441
0.00368267
0.000172866
0.00778687
0.000153344
0.000145769
0.0187098
0.000148117
0.000187168
0.000142855
0.000173592
0.000141074
0.000176522
0.000174174
0.000143146
0.00163784
0.00014598
0.0181127
0.000177675
0.000138694
0.000149644
0.000132983
0.000155376
0.00014751
0.000227394
0.00505102
0.000130557
0.000146505
0.000149487
0.000140077
0.0001428
0.000156231
0.000135334
0.000176754
0.0121157
0.000143712
0.000138515
0.00016581
0.000134784
0.000149038
0.000135227
0.0190256
0.000151325
0.000835314
0.0086339
0.000181439
0.000143187
0.000146359
0.00345399
0.000152151
0.000147488
0.0091909
0.00908639
0.00014979
0.000158085
0.000142147
0.000150805
0.000158409
0.000167708
0.000138463
0.00279772
0.0163727
0.000170807
0.000147196
0.0109848
0.0179755
0.000181983
0.000153686
0.00014273
0.000144254
0.000131862
0.000142318
0.000149106
0.000200809
0.000147469
0.000145497
0.000155639
0.000140144
0.013082
0.000140707
0.000137363
0.000131925
0.000148746
0.00016092
0.000173248
0.000143338
0.00014686
0.000187636
0.000133433
0.000146077
0.000141077
0.000151037
0.0087143
0.0114232
0.00014075
0.000145357
0.0144164
0.000172533
0.000136601
0.000128753
0.000131065
0.000140665
0.000164341
0.000142089
0.000137475
0.000146295
0.000148023
0.00134465
0.000175158
0.000152162
0.000170102
0.0126329
0.000153853
0.000191398
0.000174254
0.00812819
0.000141218
0.000199115
0.000167647
0.0170885
0.00266724
0.000183881
0.0156632
0.000202151
0.000151024
0.000199731
0.000151773
0.0169118
0.0176555
0.00764111
0.0140158
0.000131311
0.00457951
0.000146494
0.000131398
0.000168256
0.00960882
0.000155071
0.00016705
0.000143962
0.000131215
0.000152149
0.000146726
0.000152107
0.000132481
0.00670039
0.000171639
0.000163084
0.000139169
0.000135147
0.000164696
0.000141808
0.000164371
0.000146885
0.000143369
0.000132525
0.000147285
0.000148019
0.000145854
0.00014182
0.000131631
0.000178388
0.000140432
0.000175112
0.00887713
0.0022089
0.000105463
0.000190172
0.000135038
0.0177359
0.000147875
0.0128977
0.000135439
0.000131396
0.00014252
0.000105271
0.000144828
0.00014689
0.0125713
0.00019163
0.0105558
0.0189564
0.000199476
0.000269517
0.000143183
0.000147591
0.00934445
0.00246695
0.000142015
0.000142982
0.000138293
0.000302196
0.000147437
0.00877161
0.00538401
0.0192014
0.0120369
0.000159081
0.000157794
0.00576825
0.00993247
0.0142032
0.000144617
0.00732028
0.00014309
0.00657663
0.000131706
0.000142537
0.000142907
0.000133045
0.0167588
0.000137941
0.000173744
0.000181007
0.0245488
0.000143911
0.00015775
0.000163356
0.0127094
0.0110398
0.000161132
0.000184612
0.00455688
0.000131145
0.000132153
0.000159144
0.000166943
0.000181482
0.000183284
0.000146264
0.000171514
0.0011514
0.000135013
0.00013831
0.00173733
0.00801512
0.000161326
0.000148635
0.00017507
0.0104334
0.000146487
0.000162907
0.000132784
0.000173413
0.000168983
0.0123366
0.0120215
0.000145883
0.000182414
0.000142069
0.000160978
0.000152872
0.000164276
0.000148814
0.000146615
0.0180729
0.000169122
0.000170794
0.000152117
0.000151382
0.000181549
0.00189425
0.000178068
0.000169456
6.95682e-05
0.00290988
0.0002093
0.000152306
0.000167085
0.00828719
0.000132211
0.00014109
0.00017059
0.00803204
0.000134663
0.000138101
0.00187079
0.000182578
0.000140388
0.000163372
0.000143292
0.000172834
0.000254601
0.000132858
0.011117
0.000769385
0.000139988
0.00014614
0.00013816
0.00013331
0.00013485
0.000173887
0.0106652
0.00013496
0.000148764
0.000180562
0.00386665
0.000128785
8.19033e-05
0.000135796
0.000133296
0.000141241
0.000140141
0.000142757
0.000181152
0.000149608
0.0100184
0.00680706
0.000172415
0.00965233
0.00167727
0.000153271
0.000142722
0.000240081
0.000132882
0.000136438
0.000156421
0.0100084
0.000194402
0.0262721
0.0141436
0.0177229
0.000142413
0.00768232
0.000162729
0.000713141
0.0186176
0.00014197
0.00014139
0.000157036
0.000138418
0.00014725
0.000188232
0.0162283
0.000142699
0.000161511
0.000133473
0.0105715
0.000140395
0.0156985
0.00014149
0.00011114
0.0163012
0.00017617
0.000155087
0.00015348
0.000136118
0.000188393
0.000187507
0.000136205
0.000141399
9.92181e-05
0.000170816
0.000187265
0.000181776
0.0123011
0.000152663
0.000155693
0.000144441
0.000145469
0.000162735
0.000143153
0.000138215
0.000138046
0.000144643
0.000140251
0.000142922
0.000975066
0.000146484
0.000141115
0.00153182
0.000111738
0.000147569
0.000176583
0.0114732
0.000155219
0.000149576
0.0156839
0.000149837
0.00234259
0.0141133
0.000142357
0.00015592
0.0109848
0.000142357
0.000179992
0.000185334
0.000179861
0.000140112
0.0109347
0.00880157
0.000151942
0.000151793
0.000177926
0.00010868
0.000128006
0.000140166
0.000143213
0.000152551
0.0178249
0.0186133
0.00552421
0.0118674
0.0104825
0.000181706
0.000167378
0.000267662
0.000129621
0.000161542
0.000170254
0.00015844
0.000133703
0.000170416
0.000137566
0.000144851
0.00286903
0.00810713
0.000170404
0.00448768
0.000149435
0.000152229
0.000197413
0.00863045
0.000134316
0.0115506
0.000149662
0.000137864
0.0120539
0.000168205
0.000178876
0.000133937
0.000158465
0.000189216
0.000148022
0.000168552
0.000157725
0.000176075
0.000145346
9.08259e-05
0.00016545
0.000139526
0.000146726
0.00096352
0.000591216
0.000155999
0.000168939
0.0155131
0.0166676
0.000131417
0.000180242
0.000161573
0.000111027
0.000146904
0.000136426
0.000147625
0.000149056
0.00678637
0.000153455
0.000196955
0.000142917
0.000146913
0.0085851
0.000142575
0.000146032
0.000168801
0.000155175
0.000145352
0.000143684
0.000150909
0.000168783
0.000113242
0.000158061
0.00017024
0.000148382
0.000142879
0.000146656
0.000145165
0.000236875
0.000151709
0.0176526
0.000151673
0.000143048
0.000170988
0.000146122
0.000153376
0.000150772
0.000142185
0.000143883
0.00014453
0.0163642
0.000142122
0.000163341
0.000149334
0.0355194
0.00535572
0.0285024
0.00014588
0.00501417
0.000144828
0.000163876
0.000142929
0.000141433
0.00851937
0.000168371
0.000146422
0.000174185
0.0141764
0.000152321
0.0124292
0.000150525
0.00125705
0.012797
0.000145694
0.000142581
0.000146123
0.000169899
0.000138626
0.000137827
0.000142665
0.0101856
0.000532843
0.00018635
0.000149548
0.00014344
0.000753879
0.01448
0.0241998
0.00675665
0.0155034
0.000139076
0.0019526
0.000145847
0.000164108
0.000711279
0.000135635
0.000145788
0.000149871
0.0100135
0.000624774
0.0181032
0.000140052
0.000151876
0.00015331
0.000185832
0.0149623
0.000156676
0.000172842
0.000146567
0.000160829
0.000157299
0.000134778
0.0165803
0.0052109
0.00014927
0.000153123
0.000153628
0.000150848
0.0153734
0.000154001
0.000140877
0.000143317
0.000141191
0.000148832
0.0112342
0.00018379
0.000139623
0.000169765
0.000145023
0.000141911
0.000148044
0.000140769
0.000143149
0.0113553
0.000169016
0.000168563
0.000139757
0.00017872
0.000133181
0.000139809
0.000138579
0.000138939
0.000132938
0.000146734
0.0113203
0.000137878
0.0144138
0.0199723
0.000180382
0.000164859
0.000143368
0.00935944
0.0194898
0.000147088
0.00747192
0.00017471
0.00202992
0.000138708
0.000200518
0.000168743
0.00013997
0.00014542
0.000150492
0.000201375
0.000141993
0.000141887
0.000139445
0.000174923
0.000147417
0.000142105
0.000175463
0.000156685
0.000135913
0.000144121
0.00198925
0.00014234
0.0139169
0.000152754
0.00015553
0.000181227
0.0122628
0.00256956
0.000147548
0.000144372
0.00014527
0.000147609
0.0144961
0.00981628
0.000153562
0.000138077
0.00319356
0.00015101
0.000149004
0.000133079
0.000114715
0.000152209
0.000187366
0.0161034
0.000149939
0.00019359
0.00707019
0.000174026
0.000180235
0.000182956
0.00851298
0.00556672
0.000149948
0.0111796
0.000150772
0.000167192
0.00287935
0.000155561
0.000145769
0.000147466
0.00116949
0.0157683
0.0116016
0.000149368
0.00014316
0.000157343
0.000151726
0.00944277
0.000133092
0.015205
0.000187056
0.000141207
0.000140036
0.00693924
0.000156143
0.00414987
0.000151734
0.00015571
0.000166776
0.000193292
0.000143133
0.00015674
0.0103702
0.0278472
0.00562044
0.0104562
0.00013993
0.00368876
0.000140275
0.000154318
0.000150091
0.000216435
0.000133304
0.000167784
0.000144519
0.000146514
0.000175727
0.0156178
0.0134003
0.000150986
0.000177422
0.00782871
0.00013942
0.000143143
0.000141837
0.000145019
0.000191735
0.000147714
0.000144868
0.0060262
0.000145325
0.011133
0.0107453
0.000174502
0.000134532
0.000132087
0.000163026
0.000158331
0.000154655
0.000138948
0.000137881
0.000134501
0.000171429
0.00946398
0.000194666
0.000143917
6.96217e-05
0.000139191
0.000190739
0.0122963
0.000175311
0.000145875
0.000171117
8.58944e-05
0.000139272
0.000151246
0.000181354
0.000145943
0.0195903
0.000186845
0.000135231
0.00039071
0.000173469
0.000146653
0.000140739
0.000136466
0.000143116
0.000146745
0.000134669
0.000145662
0.000139579
0.000155437
0.0001438
0.000148028
0.000141968
0.0043382
0.000151579
0.000135958
0.00529804
0.000196135
0.0151383
0.000135899
0.000140152
0.000144418
0.000134461
0.000135477
0.0001453
0.000182219
0.000184733
0.00015199
0.000141956
0.000142565
0.000152557
0.000169542
0.000148582
0.000135969
0.000187595
0.000146885
0.000143414
0.000184953
0.0180665
0.0183262
0.000159731
0.000141958
0.000159643
0.011041
0.000141203
0.000145286
0.000155202
0.000144916
0.00936854
0.000147018
0.000143676
0.000135851
0.00014332
0.0138641
0.000139815
0.000135444
0.0135218
0.000123153
0.0142151
0.000133454
0.013757
0.000135161
0.000153447
0.000141309
0.0158107
0.000136705
0.000158046
0.000157747
0.000158754
0.000155878
0.000170183
0.000147518
0.00976448
0.00015676
0.000195538
0.000146684
0.000156054
0.00598899
0.000157088
0.00017251
0.000139361
0.000139193
0.000149628
0.00016082
0.000164228
0.018216
0.035862
0.000140575
0.000135082
0.0137387
0.000142444
0.000193152
0.0148738
0.00938344
0.00592178
0.000971192
0.010714
0.000133425
0.00105558
0.000161988
0.000387029
0.00016083
0.000181888
0.0010127
0.000147738
0.000135198
0.000140577
0.000142272
0.005914
0.00608346
0.000161468
0.000161207
0.000128565
0.000138369
0.000127788
0.000128608
0.000141135
0.00015474
0.000139259
0.000142474
0.000160412
0.00946644
0.0070079
0.000142589
0.000180005
0.000140875
0.00014439
0.000172979
0.000153986
0.00015623
0.00109595
0.000130897
0.00391945
0.000138297
0.000137449
0.000151338
0.000135629
0.0145986
0.0134161
0.000161691
0.000151074
0.000132145
0.000148944
0.000131899
0.000147693
0.000168128
0.000157695
0.000190797
0.000196112
0.000170578
0.000170901
0.000162299
0.00780603
0.000157671
0.000158267
0.000147854
0.000159073
0.000166803
0.00123091
0.000155347
0.000125407
0.000137487
0.000151653
0.000182467
0.000141487
0.000188134
0.000145981
0.000132166
0.000167088
0.0124733
0.000145467
0.000149136
0.0109899
0.000184384
0.000196706
0.000158968
0.00018466
0.00589468
0.000152951
0.000141914
0.0135356
0.000173515
0.000136235
0.00585305
0.000130034
0.0154886
0.000158068
0.000188925
0.000146875
0.000133824
0.000204734
0.000151593
0.000175045
0.0123875
0.000170885
0.00199951
0.000175768
0.0178604
0.00933007
0.000143254
0.000143244
0.000142446
0.0181725
0.0125246
0.0133982
0.0138074
0.0146985
0.0140398
0.000144043
0.000147081
0.00014092
0.0199795
0.0155856
0.000154291
0.00889356
0.000144403
0.0132822
0.000145681
0.00014863
0.01096
0.000146748
0.000146642
0.000195207
0.000155559
0.000152391
0.000148801
0.000152678
0.000177328
0.00637192
0.000142509
0.000140496
0.000187111
0.0122765
0.00177217
0.000141327
0.000148588
0.000172807
0.000136095
0.000166163
0.00583349
0.000160011
0.000179474
8.79049e-05
0.000134485
0.0098188
0.000136232
0.000170232
0.000143833
0.000151858
0.0100797
0.000185515
0.00014507
0.000141364
0.000142439
0.000181095
0.000170686
0.000128091
0.000142396
0.000150012
0.00016128
0.000156551
0.000147278
0.000150424
0.000161443
0.000134606
0.0148623
0.000180843
0.000151334
0.000137968
4.25232e-05
9.18252e-06
0.000160691
0.00927619
0.000896931
0.000183979
0.0117706
0.000144262
0.00673453
0.00014318
0.00630133
0.000138339
0.000171027
0.000137998
0.0159606
0.0134779
0.000176168
0.000141426
0.0132788
0.023146
0.00844751
0.000145757
0.00017833
0.000163427
0.0116415
0.000169894
0.0158544
0.000143782
0.000143088
0.000162237
0.00018801
0.00791455
0.000160359
0.000152803
0.0112022
0.000170017
0.000152299
0.00015311
0.000139909
0.0132937
0.000147186
0.000138419
0.000146263
0.000253035
0.000192351
0.00013518
0.00137273
0.0122054
0.000138011
0.000139902
0.000151782
0.000143375
0.00330872
0.00014137
0.000195185
0.0119894
0.000140098
0.000157006
0.0097335
0.000172196
0.000143707
0.00014133
0.00901683
0.000135775
0.000138116
0.000175971
0.009934
0.000164559
0.00203084
0.000147122
0.00987386
0.000153636
0.000194773
0.000140234
0.000142286
0.0109951
0.000162991
0.000144634
0.0115911
0.00017395
0.0127398
0.0116229
0.00714789
0.000126717
0.000150717
0.000153254
0.00014008
0.000141139
0.00013766
0.00655066
0.0036986
0.010851
0.000152918
0.000193838
0.000185307
0.000147363
0.000143786
0.000142528
0.000168315
0.0148344
0.000148825
0.00534379
0.000160043
0.000146369
0.000139582
0.000170406
0.00349671
0.000158654
0.000151195
0.0296595
0.000654631
0.000183291
0.000159989
0.000152606
0.000142219
0.0219042
0.00013911
0.00586918
0.000136008
0.000140706
0.0157461
0.00013386
0.000168346
0.000179766
0.00754084
0.000140892
0.000136101
0.0102518
0.000147373
0.000142041
0.000145576
0.000162422
8.16832e-05
0.0209436
0.000143454
0.000138046
0.000166682
0.000465117
0.000145125
0.00548694
0.000143178
0.000172471
0.000163148
0.0268655
0.00014308
0.000139558
0.000151521
0.000143415
0.000167498
0.000164421
0.000139765
0.000142577
0.015634
0.00483204
0.000139208
0.000138814
0.000130993
0.0133178
0.000150187
0.000151531
0.010785
0.000184841
0.000143828
0.0111419
0.000156182
0.000147751
0.000166893
0.000145575
0.000138952
0.000142137
0.000139167
0.000135962
0.000143806
0.00013814
0.000151523
0.000136944
0.000145998
0.000113671
0.000173205
0.000173117
0.000144944
0.00367615
0.000145547
0.000156936
0.000147328
0.000143927
0.000170871
0.00017892
0.000142334
0.000135521
0.00016254
0.000166178
0.000145065
0.000470675
0.00840598
0.0129524
0.000342223
0.000133845
0.0129554
0.0104099
0.000192831
0.000169803
0.00872871
0.000151344
0.000147771
0.000138879
0.000147059
0.000148392
0.000142022
0.000159677
0.000141878
0.000137673
0.00787561
0.000169665
0.000169274
0.000139901
0.000172874
0.000154671
0.000142501
0.000143853
0.000136645
0.00014693
0.000145388
0.000146172
0.000172291
0.0130551
0.000135716
0.0118429
0.0113467
0.000142767
0.000142283
0.000193103
0.00147803
0.00014176
0.00014265
0.0129155
0.000142993
0.000143035
0.000180877
0.00013872
0.000142916
0.000142317
0.000145696
0.0216845
0.00998448
0.000147808
0.000142142
0.000142705
0.000140797
0.000132612
0.000141559
0.00014228
0.000149223
0.0121082
0.00462396
0.000146487
0.000167839
0.000298186
0.00015021
0.000195731
0.000156851
0.000146431
0.000139567
0.000138191
0.000136905
0.00015007
0.000276309
0.000143633
0.000178826
0.00900312
0.0082205
0.0179438
0.000141896
0.000156763
0.000155094
0.000183554
0.000157065
0.000148665
0.000153082
0.00019856
0.000145887
0.000152108
0.000184642
0.000373862
0.000170674
0.000153915
0.000142282
0.0127343
0.0173722
0.0123359
0.000143298
0.000141218
0.000136147
0.00567451
0.026263
0.000131139
0.000164185
0.000187158
0.00058827
0.000163107
0.000155659
0.000164936
0.000139763
0.000134942
0.000139483
0.000153435
0.00226282
0.000135976
0.000156786
0.000140693
0.00016227
0.0316731
0.000179222
0.011281
0.0105743
0.00329379
0.00615903
0.00014936
0.000163138
0.000143755
0.0156306
0.000141826
0.00644068
0.000156892
0.0105684
0.000174381
0.0109003
0.0134897
0.000158427
0.000140498
0.0106169
0.00725534
0.000141265
0.00888365
0.000153714
0.0001425
0.000156277
0.0160432
0.00013975
8.85666e-05
0.000140016
0.000142958
0.0137799
0.000167283
0.000139596
0.000151882
0.000152333
0.000142567
0.000160437
0.000181344
0.000530832
0.000181366
0.000169479
0.000198702
0.0100333
0.000161936
0.00126591
0.000127548
0.0033051
0.000183973
0.000166565
0.000139567
0.00017127
0.000137356
0.0149098
0.0111763
0.000145337
0.000152887
0.000172699
0.0148361
0.000171476
0.00745867
0.000145394
0.000132696
0.00013912
0.015037
0.000166437
0.000169585
0.0134073
0.000134995
0.000134296
0.000151366
0.0122843
0.0138711
0.000139228
0.000137731
0.000139742
0.0111991
0.000139153
0.0316952
0.0100996
0.000134108
0.000163646
0.000177798
0.000134528
0.000171901
0.000143433
0.00113942
0.000187025
0.000141189
0.000137296
0.000133645
0.0114997
0.000151255
0.000174553
0.0145971
0.00579448
0.000149191
0.0142096
0.000741033
0.00321611
0.000187044
0.000174723
0.000143699
0.00997648
0.000168315
0.000143228
0.000125486
0.0132802
0.000169541
0.000144156
0.000169332
0.000133106
0.000144491
0.00014847
0.000134231
0.01158
0.00011295
0.000169631
0.000175335
0.000183857
0.000181543
0.000150025
0.00150646
0.0160064
0.0239248
0.0165391
0.000148433
0.000146888
0.0151312
0.000133169
0.0144499
0.000145681
0.000137437
0.00016807
0.000177236
0.000169035
0.00017787
0.0231389
0.000132204
0.000169472
0.000168975
0.000372919
0.016592
0.009464
0.00491068
0.000141542
0.00137213
0.000157777
0.000147344
0.000154765
0.000134323
0.000152969
0.0035863
0.000179056
0.000161055
0.000148066
0.0368854
0.0114052
0.00017704
0.0327478
0.000200029
0.000145195
0.000139257
0.0120338
0.000150718
0.00763514
0.0106794
0.0347696
0.000141287
0.00014265
0.000131449
0.000179625
0.000128536
0.000142219
0.000136453
0.00938467
0.000150256
0.00014503
0.00352921
0.000138303