/*--------------------------------*- C++ -*----------------------------------*\
| =========                 |                                                 |
| \\      /  F ield         | OpenFOAM: The Open Source CFD Toolbox           |
|  \\    /   O peration     | Version:  v2012                                 |
|   \\  /    A nd           | Website:  www.openfoam.com                      |
|    \\/     M anipulation  |                                                 |
\*---------------------------------------------------------------------------*/
FoamFile
{
    version     2.0;
    format      ascii;
    class       volScalarField;
    location    "400";
    object      nut;
}
// * * * * * * * * * * * * * * * * * * * * * * * * * * * * * * * * * * * * * //

dimensions      [0 2 -1 0 0 0 0];


internalField   nonuniform List<scalar> 
15335
(
0.00612858
0.00113494
0.000736833
0.00585289
0.00556596
0.0058305
0.00237284
0.00624472
0.00580944
0.00591208
0.00588914
0.00584526
0.00258701
0.00320715
0.00464191
0.00579576
0.00124315
0.00136011
0.00582985
0.00524997
0.00581042
0.00703077
0.00447411
0.00581468
0.000586946
0.00581404
0.00204881
0.00583949
0.00441162
0.000896202
0.00582592
0.00224472
0.00642097
0.00537599
0.00238932
0.00192032
0.00591304
0.00528799
0.00300099
0.00135268
0.00581894
0.00231895
0.00579969
0.00347177
0.018426
0.00582792
0.00470017
0.00631663
0.00403392
0.00598153
0.00581844
0.0058331
0.00591222
0.00544183
0.00222139
0.0193206
0.00148305
0.00500632
0.00515563
8.48949e-05
0.0011727
0.00584867
0.00591128
0.0058187
0.00518922
0.00584625
0.018134
0.00585938
0.00387914
0.0057969
0.00558544
0.00437602
0.00591459
0.0161431
0.0058578
0.00469662
0.0011781
0.00649618
0.00595937
0.00201957
0.00628055
0.00463862
0.00453764
0.00230204
0.00495252
0.00155703
0.00581443
0.00210027
0.00583047
0.00556921
0.00197958
0.0025128
0.0148711
0.00176306
0.00530523
0.00230433
0.00580066
0.00590242
0.00582683
0.00591657
0.00580191
0.0056673
0.00129209
0.00579832
0.00610426
0.00580049
0.00048459
0.00588165
0.00561062
0.00265049
0.00654928
0.00383237
0.00528352
0.00629672
0.00622883
0.00583053
0.00270142
0.00605668
0.00181277
0.00145473
0.00569574
0.00239768
0.00220672
0.00583181
0.00241932
0.00584592
0.00583077
0.00573565
0.00233666
0.00562407
0.00585518
0.00239322
0.00613995
0.00612359
0.00585496
0.0111846
0.00590597
0.00579786
0.00319366
0.00548443
0.00589592
0.00534201
0.00582592
0.00604933
0.00206124
0.00586189
0.00594988
0.00487457
0.00590992
0.00301555
0.00602681
0.00428722
0.00578452
0.00543061
0.0053839
0.00590884
0.00225254
0.0058867
0.00582737
0.0050055
0.0058388
0.00546277
0.00591545
0.00372995
0.00520984
0.00584705
0.00583451
0.00449628
0.00585853
0.00582697
0.00575502
0.00589564
0.00588899
0.00591061
0.00528468
0.005486
0.00628064
0.00585797
0.00233453
0.0058954
0.0058937
0.00570961
0.00612998
0.00550963
0.00507629
0.00146256
0.00225497
0.00577246
0.00592336
0.000551507
0.00617221
0.00585098
0.0039918
0.00581877
0.00591379
0.00217018
0.00589404
0.00585531
0.00258344
0.000828346
0.00582735
0.00523572
0.00583926
0.00258941
0.00583383
0.00553135
0.000773323
0.00582895
0.00223889
0.00611488
0.00122141
0.00519292
0.00582442
0.00524637
0.00117007
0.00536339
0.00618834
0.00368633
0.0061494
0.00194218
0.00541389
0.00345238
0.00482924
0.00233468
0.00625349
0.000657006
0.00220255
0.00589216
0.00254078
0.00125041
0.00579668
0.00146419
0.00425365
0.00493448
0.00591306
0.00579017
0.00589938
0.0195996
0.00141527
0.00584069
0.00302004
0.00586377
0.0029522
0.00575581
0.00605021
0.00488385
0.00794668
0.00538046
0.00439072
0.00181834
0.0054628
0.00583367
0.00120779
0.00550967
0.00581775
0.00775258
0.00587596
0.00637856
0.00516416
0.0058159
0.00306698
0.00130947
0.00168025
0.000565069
0.00206107
0.000985775
0.00538734
0.00581374
0.00115877
0.0058975
0.00155755
0.00578305
0.00620493
0.00586249
0.00582834
0.00336835
0.000117773
0.00541089
0.00591372
0.00590959
0.00583403
0.00583685
0.00584892
0.00590928
0.00167865
0.00590952
0.00480113
0.0058501
0.001199
0.005384
0.00122137
0.00570891
0.00583047
0.00590054
0.00193629
0.00534312
0.00578007
0.00583314
0.00590211
0.00584373
0.0011333
0.00262401
0.0118323
0.00537535
0.00517442
0.00583344
0.00583826
0.000300603
0.00137975
0.00225725
0.000210678
0.00574435
0.00399657
0.00625479
0.00582888
0.00553464
0.00586924
0.00586394
0.00589726
0.00613566
0.00585663
0.00607523
0.0141272
0.00514836
0.00532499
0.00146265
0.00145073
0.00586351
0.00587058
0.00587936
0.00582025
0.0157505
0.000765978
0.00516495
0.00365329
0.00579945
0.00592502
0.00550795
0.0030646
0.00238605
0.00460574
0.00277108
0.0017293
0.00396898
0.00657424
0.00290843
0.00283558
0.00426895
0.00573152
0.00570657
0.00273581
0.00586889
0.0060719
0.00561649
0.0050915
0.0057155
0.00570379
0.00587159
0.00588286
0.0207773
0.00583039
0.00581708
0.00512526
0.0058308
0.00578961
0.00561461
0.00584913
0.00588928
0.00400542
0.00583055
0.00573191
0.00599551
0.00499852
0.00589203
0.00582219
0.00583412
0.00584353
0.00578196
0.00584571
0.00274668
0.00502731
0.00233856
0.00478442
0.0028682
0.000458132
0.00415321
0.0058264
0.00555489
0.00588744
0.00589971
0.0058888
0.00401199
0.00583149
0.00571216
0.018218
0.00572983
0.00589234
0.00578911
0.00583552
0.00531774
0.00461162
0.00221539
0.00265114
0.00582164
0.00583596
0.00313761
0.00580403
0.00590673
0.00164412
0.00588778
0.0058215
0.0059014
0.00596826
0.00578694
0.00266426
0.00583129
0.00582978
0.00507835
0.00591025
0.00581256
0.00307724
0.00582455
0.00115968
0.00584421
0.00515155
0.000707826
0.00583236
0.00590797
0.00584705
0.00115147
0.00313495
0.00498347
0.00658774
0.00210371
0.00580955
0.00580429
0.00582847
0.00307571
0.00582444
0.00444706
0.00579961
0.00591374
0.00592965
0.0027256
0.0057107
0.00532121
0.0035663
0.00585308
0.00538358
0.00955645
0.00549317
0.00567677
0.00582769
9.65553e-05
0.00596436
0.00589096
0.00444507
0.00361042
0.00564569
0.00591013
0.00588781
0.00442669
0.00523256
0.0057381
0.00212215
0.0201356
0.00627321
0.00120413
0.00571257
0.00580742
0.00584059
0.0060667
0.00572088
0.00151917
0.00589436
0.00583795
0.00583849
0.00575416
0.00161958
0.00588508
0.00580119
0.00590606
0.00589216
0.00582931
0.00586847
0.00491838
0.00578937
0.00591305
0.0058408
0.00589292
0.00491664
0.00529461
0.00583287
0.00590783
0.00610003
0.00412976
0.00207887
0.00468612
0.00445921
0.0020238
0.00524702
0.00931471
0.00585958
0.00310635
0.00579809
0.00548898
0.00475851
0.00232996
0.00581429
0.00589533
0.00577728
0.00540705
0.00164623
0.00173192
0.00292841
0.00580077
0.00589375
0.00601626
0.00213414
0.00559706
0.000316573
0.000293559
0.00573435
0.00582336
0.00101986
0.00589577
0.00196218
0.00581329
0.00583171
0.00590228
0.00586148
0.00265079
0.00630329
0.00589519
0.00209113
0.00408069
0.00895913
0.0051138
0.00582733
0.00576605
0.00414709
0.00234311
0.00582753
0.00133422
0.005843
0.00470306
0.0059718
0.00590193
0.0028958
0.00333279
0.00374555
0.00587821
0.00579546
0.00582933
0.00148502
0.00174828
0.00581495
0.00574974
0.00585878
0.00249898
0.00345643
0.00589883
0.00459541
0.00585066
0.00360586
0.0058137
0.00465714
0.00457991
0.00593812
0.0031498
0.00450844
0.00582748
0.00579956
0.00305546
0.00591389
0.00579913
0.00588261
0.00597231
0.00587425
0.00545926
0.00430655
0.00114918
0.00368507
0.00541784
0.00443978
0.00150209
0.0024535
0.00588523
0.00507236
0.00582858
0.00585386
0.00568679
0.000201321
0.00610218
0.00581365
0.00723345
0.00522504
0.00314583
0.00583509
0.00120249
0.00505716
0.00470804
0.00107165
0.00560698
0.00529129
0.00582211
0.00274548
0.00589906
0.014827
0.00371468
0.0137941
0.0198069
0.000586501
0.00583544
0.00588958
0.00283061
0.00310304
0.0106033
0.00582278
0.00581435
0.00604673
0.00591425
0.00585613
0.00573164
0.00227194
0.00585119
0.00580773
0.0057811
0.00582333
0.00464777
0.00597504
0.00194083
0.00583106
0.00496836
0.00345016
0.00587009
0.00122619
0.00587091
0.00586367
0.00476882
0.00295088
0.00583789
0.00586445
0.000619913
0.0058549
0.00273793
0.00362574
0.00580893
0.00623788
0.00160204
0.01319
0.00585471
0.00583057
0.00583345
0.0044506
0.00614336
0.000715234
0.00590124
0.00573765
0.00591331
0.00587999
0.00453969
0.00187173
0.00979893
0.00585911
0.00202794
0.00589542
0.00590485
0.00190484
0.00589544
0.00574923
0.00570955
0.00533232
0.0058135
0.00287228
0.00598241
0.00586291
0.00582965
0.00642361
0.0051157
0.00583734
0.0192131
0.00651129
0.00582325
0.00776356
0.00397652
0.0025036
0.00583607
0.00569264
0.00582996
0.003502
0.00314762
0.00582611
0.00527556
0.00607701
0.00141576
0.000731319
0.005889
0.00615345
0.000425223
0.00591371
0.00544005
0.000419477
0.00606758
0.00580205
0.000243515
0.00545906
0.00415669
0.00476498
0.000738079
0.005819
0.00597003
0.000867886
0.00590019
0.00613845
0.006224
0.00219295
0.0011406
0.00544593
0.00590545
0.00582924
0.00584266
0.0059026
0.00589044
0.00463183
0.00482475
0.0202576
0.00271665
0.00397655
0.00166143
0.00633327
0.00229816
0.00590519
0.00584928
0.00581576
0.0058906
0.0058122
0.00581938
0.00582774
0.0058304
0.00580526
0.00580321
0.00147517
0.00596793
0.0058265
0.00224341
0.00584572
0.00587034
0.00513085
0.00198252
0.00583242
0.00407178
0.00589871
0.00486525
0.005902
0.00584268
0.00131922
0.00537296
0.00374518
0.00157107
0.00653319
0.00582444
0.00583894
0.000380074
0.00581994
0.00116496
0.0058433
0.00580253
0.00526217
0.00174839
0.00391842
0.00583772
0.00538574
0.00236085
0.00541528
0.00547762
0.00483942
0.00128421
0.00582176
0.00100294
0.0014136
0.00585835
0.00583885
0.00591032
0.00602923
0.00536731
0.00612274
0.00183515
0.00233016
0.0053029
0.00536958
0.0201361
0.00590561
0.00356699
0.00590477
0.00582513
0.00552785
0.0058882
0.00142434
0.00554494
0.00183009
0.00485919
0.00590361
0.00641596
0.00107177
0.00590634
0.00491468
0.0058814
0.00582093
0.0197118
0.0045629
0.00480609
0.00307845
0.00516292
0.00591418
0.00124156
0.00581572
0.00602847
0.00589806
0.00234949
0.00591325
0.00565808
0.00582492
0.00228827
0.00590934
0.00602016
0.00581449
0.00304459
0.00560886
0.00570502
0.00113037
0.00571338
0.00580217
0.00587714
0.00233615
0.0058292
0.00579781
0.00583338
0.00580762
0.0058304
0.00233182
0.00590243
0.00438124
0.00579794
0.00585058
0.00581907
0.00579276
0.00559624
0.00568783
0.00587248
0.00582627
0.0058747
0.00580914
0.00529919
0.00571065
0.00584579
0.00598688
0.0112479
0.00589504
0.00142062
0.00582174
0.00590402
0.00462368
0.00580771
0.00483358
0.00102279
0.00215742
0.00601402
0.0059106
0.00252662
0.00236759
0.0030905
0.00578361
0.0059045
0.00140865
0.00579566
0.00585699
0.00576856
0.0058822
0.0018136
0.00566488
0.0010372
0.00564437
0.00579633
0.00590309
0.0058578
0.00545026
0.00582491
0.00181351
0.00515565
0.00590142
0.00350208
0.00584392
0.00580861
0.00582084
0.00536723
0.00308026
0.00584368
0.00551499
0.00541078
0.00581893
0.0211375
0.00591094
0.00589197
0.00266506
0.00588444
0.00384915
0.00589311
0.00146051
0.00590293
0.0034349
0.00580896
0.001273
0.00586194
0.00585158
0.00588693
0.00352992
0.00581984
0.00261531
0.0058854
0.00584035
0.00581442
0.00658645
0.000397754
0.00149088
0.00589511
0.00566776
0.00138073
0.0044716
0.00241793
0.00876363
0.0052329
0.00226756
0.000657463
0.0195374
0.00582083
0.00581325
0.00457563
0.00583294
0.00604954
0.00256724
0.00292114
0.00598863
0.00603125
0.00559757
0.00590577
0.00223805
0.00581599
0.00470752
0.00583547
0.00129753
0.00570849
0.00589906
0.00346817
0.00570343
0.00590812
0.00583011
0.00561237
0.00580175
0.00509624
0.00584669
0.00310421
0.00412028
0.00383623
0.00355718
0.00578787
0.00605825
0.00364947
0.0058024
0.00128941
0.00589369
0.00352206
0.00580489
0.00534947
0.000401955
0.00576141
0.00581857
0.00109637
0.00177895
0.00580545
0.00536868
0.00656022
0.00659306
0.00603844
0.00474414
0.005801
0.00210974
0.00175575
0.00118474
0.0053247
0.00591262
0.00497374
0.00583843
0.00798595
0.00580136
0.00562387
0.00581839
0.00578648
0.00568057
0.00616881
0.000708174
0.0194625
0.00589527
0.00320573
0.00581166
0.00438879
0.00585003
0.00588866
0.00187135
0.0058765
0.00582553
0.00591148
0.00580607
0.00590486
0.00542049
0.00632907
0.00586833
0.0058811
0.00586293
0.00298698
0.00585646
0.00582896
0.00589798
0.00589226
0.00317786
0.00579542
0.00582807
0.00120542
0.000930794
0.00579546
0.00124238
0.00591456
0.00414727
0.00329524
0.00141683
0.00520287
0.00590292
0.0121479
0.00602985
0.00163434
0.00584783
0.00306436
0.00588327
0.00254302
0.00326148
0.00589001
0.00155702
0.00561867
0.00304478
0.00249305
0.00585397
0.005879
0.00581446
0.00527739
0.0059145
0.000306723
0.00211882
0.00583323
0.00576065
0.00589239
0.00582019
0.00582958
0.00547944
0.00581313
0.00279908
0.00797288
0.00588631
0.00582078
0.00610889
0.00588007
0.00590088
0.00581192
0.00602254
0.00575443
0.000623521
0.0015714
0.00207521
0.00581512
0.0059122
0.00179111
0.00575714
0.00591037
0.00412575
0.00101707
0.00588454
0.00529789
0.00584021
0.00582857
0.00542235
0.00404135
0.00582063
0.00134936
0.00578859
0.00363414
0.00603709
0.00521228
0.00264971
0.00641782
0.00569586
0.0058287
0.00587706
0.00583273
0.00582777
0.00609153
0.00111092
0.00590858
0.00589443
0.00538196
0.00582855
0.00548986
0.00582505
0.00581017
0.0058322
0.00590387
0.00489329
0.00340516
0.0058924
0.00591376
0.00175558
0.00583067
0.00589023
0.00588467
0.00581708
0.00876286
0.0100575
0.00589632
0.00589258
0.00307203
0.00341709
0.00583168
0.00579563
0.00579874
0.00582386
0.00428045
0.00584098
0.00581028
0.00608608
0.00590387
0.00138992
0.00244181
0.00619255
0.0037545
0.01912
0.00566278
0.00154568
0.00319913
0.00469828
0.000919941
0.00115952
0.00645096
0.00606926
0.00353438
0.00226382
0.00582884
0.00112587
0.00583752
0.0011665
0.00580633
0.00603271
0.0059101
0.0036984
0.00585657
0.00581318
0.00467482
0.00589924
0.00579673
0.00397598
0.00178562
0.00541374
0.00403788
0.00586877
0.0057955
0.00578391
0.00590937
0.00576377
0.00585146
0.0199585
0.00360283
0.00367237
0.00581909
0.00581182
0.00439743
0.00591054
0.00447387
0.00591027
0.00589092
0.00585037
0.005909
0.00590333
0.00590985
0.0058876
0.00582524
0.00274738
0.00582936
0.00316015
0.00488871
0.00142656
0.00333073
0.00142421
0.00581064
0.00590453
0.00534011
0.0114058
0.00583884
0.00581318
0.00583324
0.00341752
0.00591025
0.00590779
0.00485158
0.00133579
0.00348703
0.00629598
0.00109712
0.00041083
0.00584529
0.00591315
0.0205998
0.00147073
0.00583482
0.00584557
0.00585687
0.000929356
0.00591015
0.00333717
0.000310961
0.00611863
0.00415194
0.00511101
0.00532155
0.000318693
0.00506494
0.0194017
0.00590746
0.00091139
0.00584673
0.0199505
0.00582483
0.00584736
0.00584808
0.00582299
0.00557361
0.00583193
0.00338544
0.00241806
0.01835
0.00588638
0.00531047
0.00461521
0.00531521
0.00439293
0.00489882
0.00193179
0.00194835
0.00579947
0.00584174
0.00511823
0.00315713
0.00235774
0.0020224
0.00589426
0.00315055
0.000797492
0.00582815
0.00585522
0.00134484
0.00148586
0.00396362
0.0061057
0.00649682
0.00457272
0.00589685
0.0049994
0.00581253
0.00318806
0.00642671
0.00375408
0.00583929
0.00591106
0.00636238
0.00582841
0.00125421
0.00574435
0.00448881
0.00587517
0.00601308
0.0060718
0.003276
0.00313808
0.00597242
0.00581969
0.00661511
0.0013464
0.00250618
0.00380909
0.000848686
0.00153432
0.000382414
0.00577749
0.00147972
0.000524774
0.00584103
0.0056142
0.00339484
0.00312697
0.00580806
0.00583447
0.00145384
0.00206571
0.00582314
0.00465507
0.0058468
0.00345392
0.000373618
0.00586126
0.00489295
0.00149032
0.00583124
0.00590573
0.00583384
0.00579742
0.00580938
0.00636715
0.00198451
0.0058106
0.00590482
0.00198717
0.00215319
0.00580409
0.00182175
0.00582923
0.00579691
0.00589542
0.00583033
0.00588195
0.00642184
0.00587872
0.0019823
0.00135668
0.00283556
0.00307447
0.0027674
0.00524136
0.00590372
0.000626107
0.00585958
0.00584795
0.00534505
0.00506593
0.000427375
0.011222
0.0126061
0.00585037
0.00590104
0.00116171
0.00381268
0.000621767
0.00623348
0.00585264
0.00562738
0.00540011
0.00583381
0.00590726
0.00659543
0.00544944
0.00588095
0.00486416
0.00582634
0.00334991
0.00582926
0.00556654
0.00583145
0.00512991
0.00590653
0.00301402
0.0060483
0.00568189
0.00581236
0.00150178
0.00162287
0.0058456
0.00582562
0.00420384
0.00316901
0.0025207
0.002349
0.00536207
0.00575353
0.00552283
0.00585411
0.00591068
0.00446079
0.00584553
0.0058321
0.00585957
0.00585964
0.00581897
0.00578106
0.000849299
0.00590183
0.00585027
0.000963262
0.00127833
0.00591355
0.00298783
0.0193454
0.0060414
0.00583041
0.00546826
0.00588277
0.00134909
0.0201379
0.00584949
0.00549538
0.00352251
0.00587281
0.00640397
0.0016469
0.00208549
0.00583262
0.00515813
0.00127754
0.00561524
0.00580272
0.00282058
0.00125068
0.00578307
0.00583262
0.0058612
0.00576238
0.0060859
0.0130982
0.00362462
0.00516646
0.00366311
0.00642464
0.00333335
0.00066409
0.00582066
0.00410351
0.0036533
0.00524419
0.00583202
0.0036789
0.00586054
0.00584985
0.0015598
0.00449486
0.00340258
0.00397243
0.00587941
0.00578585
0.00121712
0.00468299
0.00165021
0.00473499
0.00587184
0.000807824
0.0053167
0.00386482
0.00655854
0.000475413
0.00522908
0.00121105
0.00602602
0.00394271
0.00530969
0.0029723
0.00589283
0.00119275
0.00610767
0.00581602
0.00590876
0.000748625
0.00058683
0.00549958
0.00387468
0.0185063
0.00571293
0.00579923
0.00626734
0.00470834
0.000701122
0.00591512
0.00583981
0.00591396
0.00589925
0.0040835
0.00570313
0.0012207
0.00590343
0.00588904
0.00411214
0.00583063
0.00591266
0.00391813
0.00557029
0.00589301
0.00587217
0.00584997
0.00388078
0.00328437
0.00528317
0.00294879
0.00589185
0.00582942
0.00591409
0.0059094
0.000438581
0.00580503
0.00615462
0.00581231
0.00589598
0.00367714
0.00590558
0.00570762
0.0058445
0.00582694
0.0058431
0.00585769
0.00598833
0.00585598
0.00363739
0.00604826
0.0122749
0.00309643
0.0124094
0.00588689
0.00198787
0.00584923
0.00378226
0.00583235
0.00582669
0.00478716
0.00394219
0.00590998
0.00241186
0.0039269
0.00560084
0.00509539
0.00560305
0.000948476
0.0201713
0.00589914
0.00582802
0.00591352
0.00350179
0.00582152
0.00582548
0.00587546
0.00828682
0.00297151
0.00172608
0.00589062
0.00586471
0.000799648
0.00527929
0.0168086
0.00754958
0.0140875
0.00583759
0.00118424
0.00572504
0.00454617
0.000667977
0.00586182
0.00590062
0.00560514
0.015958
0.00363794
0.00617851
0.00582574
0.00572296
0.00609292
0.00247738
0.00547632
0.00543625
0.00344785
0.00572105
0.00488588
0.00519534
0.00580938
0.00578667
0.0020816
0.00563745
0.00572543
0.0056907
0.000927981
0.00587523
0.00566249
0.00588563
0.00583809
0.00589002
0.00607468
0.00379744
0.00221847
0.00583849
0.00337177
0.00590729
0.00588231
0.00589822
0.00582879
0.0058302
0.00254618
0.00392451
0.00382268
0.00584059
0.00270931
0.00579849
0.00582989
0.00583759
0.00587476
0.00581642
0.00590449
0.00391738
0.00582859
0.0207109
0.0143308
0.00248506
0.00442053
0.00583087
0.00506564
0.0203267
0.00591569
0.00112359
0.00659597
0.00777609
0.00582268
0.00145183
0.00389364
0.00582515
0.00560114
0.00584425
0.00116295
0.00582665
0.00582478
0.00582732
0.00285362
0.00590792
0.00589225
0.0031611
0.00541789
0.00583695
0.00587174
0.00702821
0.00583702
0.00557147
0.00574823
0.00471259
0.00240055
0.00520281
0.00170212
0.00590971
0.00585617
0.00588915
0.00590363
0.00562336
0.00290176
0.00569351
0.00583002
0.00327711
0.00584518
0.00590008
0.0058216
0.00306344
0.00607768
0.00161521
0.00596318
0.00588129
0.00102718
0.00415879
0.0026442
0.0022073
0.00199369
0.00479489
0.0171404
0.00560918
0.0192924
0.00585528
0.00398076
0.00217788
0.00553296
0.00590643
0.00590896
0.000824271
0.0195492
0.0103119
0.00563712
0.00588893
0.000447565
0.0058067
0.00163991
0.00579772
0.00529471
0.00179445
0.00587455
0.00584237
0.00344706
0.00540549
0.0129183
0.00569224
0.00551924
0.00622386
0.00130271
0.00585838
0.00542513
0.0038559
0.00573282
0.00308625
0.00485907
0.00583113
0.0116624
0.00582006
0.00564455
0.00585987
0.000520699
0.00586732
0.00325299
0.00590036
0.00590038
0.00253407
0.00478706
0.00535611
0.00558211
0.0026971
0.00116781
0.00583671
0.00583068
0.00582659
0.0057948
0.00124453
0.00591296
0.00590543
0.00298308
0.00589607
0.00411899
0.00352151
0.00316889
0.00582499
0.0058693
0.00468036
0.000502879
0.00533402
0.00587323
0.00583242
0.00582899
0.00310037
0.00143688
0.0012595
0.00589649
0.00192258
0.00581434
0.00138372
0.00516306
0.00310607
0.00591177
0.00290691
0.00254408
0.00584459
0.00573063
0.00236519
0.00589167
0.00619863
0.00174095
0.0058042
0.000572894
0.00335015
0.00590513
0.00582392
0.0058241
0.00582869
0.0057375
0.00587701
0.00590799
0.00581627
0.0055442
0.00586049
0.00590317
0.00583131
0.00255643
0.00581654
0.00582593
0.0162434
0.00125298
0.00573014
0.00582665
0.00581937
0.00579865
0.00579537
0.00585946
0.0058807
0.00213106
0.00175397
0.00599464
0.00583296
0.0058311
0.00576496
0.00380985
0.00590602
0.00583323
0.00161626
0.0059146
0.00590231
0.000952386
0.00581606
0.00622629
0.00510592
0.00582481
0.00499786
0.00393101
0.00589518
0.00588238
0.00557041
0.0059001
0.00269786
0.00574929
0.00584981
0.00582851
0.00590075
0.0188944
0.00582257
0.00583688
0.0156004
0.00258387
0.00540298
0.00579747
0.00358183
0.00580414
0.0053958
0.00582474
0.00588081
0.00583069
0.00482556
0.00511701
0.00522812
0.00549937
0.00370736
0.00591367
0.00310121
0.00543319
0.00124295
0.00590842
0.00549532
0.00243508
0.00528715
0.00308782
0.00582499
0.00581876
0.00583038
0.00495812
0.00339807
0.0061724
0.0126119
0.00585125
0.00585973
0.0211067
0.00583459
0.00133358
0.00566447
0.00492699
0.0187154
0.000784238
0.00502853
0.00579728
0.00154589
0.00481946
0.000465418
0.00438447
0.00234846
0.000729055
0.00591256
0.00583415
0.00588234
0.00583036
0.0186001
0.00359271
0.00486419
0.000673403
0.0057985
0.00583559
0.00474005
0.000474447
0.00583529
0.00560505
0.00582604
0.00585132
0.00500008
0.00241005
0.000710479
0.00586815
0.00247293
0.00588667
0.00586125
0.00273104
0.00566349
0.00548006
0.000738107
0.00582999
0.00232579
0.0058127
0.00587515
0.00583036
0.00583508
0.0051926
0.00544847
0.00484104
0.00600621
0.00580188
0.00588398
0.00585845
0.00590966
0.00613108
0.00524246
0.00145295
0.00121744
0.00372094
0.00304891
0.00478078
0.00372142
0.00123171
0.00526501
0.00593007
0.00519047
0.00406745
0.000967199
0.00555206
0.00429671
0.00587543
0.00580988
0.00229971
0.0058797
0.00170589
0.00590912
0.00586076
0.00305051
0.00527442
0.00588618
0.00588453
0.00311032
0.00175655
0.00123443
0.00516867
0.0019251
0.0195131
0.00564598
0.00582738
0.00509317
0.00329767
0.00573669
0.0197823
0.00582433
0.00571941
0.00521883
0.00661259
0.00574892
0.00581565
0.000313294
0.00575767
0.00311645
0.00468354
0.00321747
0.00112352
0.00297995
0.0132563
0.000691664
0.00584909
0.00586087
0.00583831
0.00588825
0.00441178
0.00424952
0.00459131
0.00577116
0.00423487
0.00589923
0.00591185
0.0058958
0.00504629
0.00289388
0.005644
0.00419351
0.00603354
0.00362683
0.00591004
0.00590539
0.00377149
0.00548096
0.00591532
0.00124501
0.0055452
0.00577268
0.00589632
0.00575804
0.00233291
0.00362258
0.00583479
0.0058914
0.00183047
0.0140321
0.00124722
0.00582097
0.00590576
0.00338674
0.00580828
0.00426801
0.00309524
0.00497326
0.00507021
0.00261439
0.00580905
0.00338609
0.00581072
0.00357942
0.00584126
0.0058023
0.00504822
0.00185436
0.00590941
0.00589698
0.00583642
0.0065711
0.00369964
0.0057905
0.00586459
0.00567461
0.00491528
0.00544677
0.00590824
0.00585991
0.000605907
0.00581045
0.00632936
0.00239985
0.00561915
0.00585148
0.000961033
0.000148307
0.00497087
0.000736285
0.00083227
0.00208622
0.00384133
0.00585338
0.00429871
0.00582797
0.0187305
0.00581994
0.000381936
0.00583713
0.00578375
0.0183954
0.00250566
0.00583143
0.00394079
0.0148672
0.00162663
0.00590533
0.00224562
0.00451494
0.00482298
0.00379258
0.00465267
0.0058668
0.00582919
0.00395505
0.00157926
0.00372433
0.0050494
0.00574823
0.0189511
0.00380501
0.00569881
0.00572635
0.00582336
0.00546972
0.00591348
0.00581289
0.00589745
0.000559282
0.00148964
0.00586506
0.000890751
0.00439245
0.0058303
0.0058912
0.00568901
0.0059019
0.00164376
0.00582161
0.00126152
0.00561863
0.00582703
0.0050745
0.00504172
0.0034562
0.00585897
0.00583038
0.00138017
0.00580749
0.00581155
0.00248333
0.00313936
0.00636672
0.00109127
0.0059091
0.00300775
0.00569196
0.00118536
0.0058927
0.00583342
0.00354465
0.00461664
0.00590677
0.0031262
0.000542243
0.00517718
0.0202713
0.00459109
0.000447519
0.00564974
0.0057073
0.00588308
0.00583487
0.00586807
0.00430422
0.00192244
0.0183789
0.00622208
0.00127586
0.00193797
0.00591404
0.00589507
0.00588979
0.00396839
0.00618698
0.00590306
0.00243484
0.00470171
0.00591535
0.00588961
0.00295431
0.0016429
0.00509474
0.00583703
0.00580209
0.00107243
0.00214407
0.00502474
0.00576223
0.00585152
0.00332124
0.00564348
0.00327224
0.00580576
0.00582289
0.0058969
0.00579832
0.00402445
0.00221172
0.0204009
0.00589456
0.00580647
0.00444959
0.00591503
0.00585282
0.00591284
0.00459539
0.00304223
0.0162331
0.00584018
0.00581574
0.00398527
0.00053567
0.00589243
0.0024964
0.00582888
0.00646721
0.00442749
0.0180048
0.00587506
0.00583874
0.00580962
0.00590187
0.00406847
0.00354537
0.00589086
0.00582722
0.0057019
0.00236701
0.00582591
0.0058345
0.00592671
0.0040261
0.00572679
0.00578268
0.00501966
0.00189145
0.00589692
0.0176267
0.00542577
0.00591384
0.00612005
0.00588307
0.00588573
0.00586644
0.00581434
0.00587824
0.00586085
0.00580853
0.00580463
0.00581414
0.00590972
0.00553493
0.00282943
0.00304533
0.0059078
0.001639
0.00590329
0.00538451
0.00591314
0.00587128
0.00370443
0.0026143
0.00585449
0.00583816
0.00620012
0.00414246
0.0058836
0.000879909
0.00376574
0.0041015
0.00043672
0.0057983
0.00367186
0.00491942
0.00146172
0.00375671
0.00455209
0.00570842
0.00591352
0.000751838
0.00590541
0.00590929
0.00583304
0.00507484
0.00583051
0.00583055
0.00359349
0.0037885
0.00377404
0.00589129
0.00276764
0.00606097
0.00583646
0.0059001
0.00582715
0.00591255
0.00590409
0.00591284
0.00274985
0.00419175
0.00580761
0.00529607
0.00289365
0.00582417
0.00587841
0.00130902
0.00101622
0.00583676
0.00582725
0.00533113
0.00585346
0.00585664
0.00239257
0.0059975
0.00582463
0.00582373
0.00588269
0.0198528
0.00329829
0.00591237
0.00586873
0.00584378
0.00588174
0.00587474
0.00588505
0.00583522
0.00596829
0.00501183
0.00263813
0.00591479
0.00375276
0.000607705
0.00587218
0.00123574
0.00540465
0.00591069
0.00582844
0.00581567
0.00587806
0.00586599
0.000943186
0.00586354
0.00260363
0.00150964
0.00468107
0.00601403
0.00582566
0.00509443
0.00557834
0.00212742
0.00540806
0.00572653
0.0057151
0.00118877
0.00589814
0.00578951
0.00192847
0.000488906
0.00302966
0.00566186
0.00588017
0.0051253
0.00597878
0.00350899
0.0058445
0.00587661
0.00580984
0.000262549
0.0170513
0.00583495
0.00402083
0.00170469
0.000706606
0.00468675
0.00605992
0.00186807
0.00589
0.0058018
0.0056622
0.00570282
0.00114017
0.00580492
0.00532001
0.00585726
0.00123472
0.0061888
0.00262522
0.00472535
0.0182226
0.00164415
0.00333583
0.00585945
0.00462254
0.00586756
0.00510906
0.00582566
0.0164187
0.00534499
0.0169808
0.00321037
0.0187103
0.0188348
0.00519024
0.00585361
0.00506186
0.00323244
0.00582574
0.00391627
0.0056921
0.00583823
0.00542626
0.00584797
0.00582977
0.00396321
0.0057101
0.00583072
0.00453035
0.00407486
0.00573534
0.00579972
0.0050724
0.000393915
0.00435713
0.00245341
0.00048701
0.00242065
0.00354417
0.00117024
0.00481728
0.00463646
0.000789374
0.000341394
0.00173433
0.00197721
0.000525938
0.00583515
0.00302258
0.00575486
0.00578734
0.00421758
0.00590016
0.00564666
0.00334692
0.00540639
0.00363741
0.00416895
0.00570069
0.00586639
0.00580849
0.00505785
0.00621991
0.00321076
0.00559065
0.00585379
0.00580774
0.0058268
0.00337704
0.00526306
0.00571792
0.00583011
0.00582244
0.00515344
0.0058897
0.00684374
0.00516734
0.00580644
0.00624071
0.006228
0.00582766
0.0029277
0.00584187
0.00432414
0.0017077
0.00570927
0.00583249
0.0058594
0.00506919
0.00583376
0.00319357
0.00468838
0.00291074
0.00570847
0.00493496
0.000750645
0.00194181
0.00164575
0.00658977
0.00587122
0.00470873
0.00395556
0.00584252
0.00580585
0.00553562
0.0038471
0.00586925
0.00333004
0.00587193
0.00590123
0.00590731
0.00580783
0.00443249
0.00174184
0.00363623
0.00310215
0.00202821
0.00658968
0.00587421
0.00125139
0.00592088
0.0031612
0.00416423
0.00590747
0.00591108
0.0116515
0.00581849
0.00162445
0.00589427
0.00587623
0.0037222
0.00286763
0.00320306
0.00273643
0.00436157
0.00580418
0.00314441
0.00390252
0.000606903
0.00323925
0.00454324
0.00308652
0.00588307
0.000884921
0.00524972
0.00591379
0.000486635
0.00582614
0.00573763
0.00185732
0.00625332
0.0044795
0.000394379
0.0100328
0.0199184
0.00271009
0.0154502
0.00118429
0.00570842
0.00582225
0.00493315
0.0058562
0.00406846
0.00494714
0.00822166
0.0058238
0.0058265
0.00572526
0.00215143
0.00579462
0.0058273
0.00587573
0.00406754
0.00585707
0.00591031
0.00235526
0.00581683
0.000809401
0.00408623
0.00479934
0.00221025
0.00456131
0.00246568
0.0012571
0.00503489
0.00196425
0.000874999
0.00588001
0.0031468
0.00341428
0.00583392
0.00629109
0.00535173
0.00452932
0.00582851
0.00590928
0.00580023
0.00574811
0.000636388
0.00590455
0.00586225
0.00121853
0.00588738
0.00573106
0.0177657
0.00274725
0.00765121
0.00582536
0.00582475
0.00506419
0.00586695
0.00210392
0.00588305
0.00288545
0.0022334
0.00502654
0.00148062
0.00294974
0.00582375
0.00590575
0.00120166
0.00260294
0.00114669
0.00111301
0.00225165
0.000555873
0.00581727
0.00338068
0.000761144
0.00526888
0.000370399
0.00467132
0.0059508
0.00168246
0.00125955
0.00330796
0.00591251
0.00123957
0.0075647
0.00274532
0.00581958
0.0176345
0.00588972
0.00532065
0.00582316
0.00490476
0.0058767
0.000693471
0.00547015
0.00588055
0.00581348
0.00449519
0.00106531
0.00519599
0.00589949
0.00587122
0.00344893
0.00589026
0.00584578
0.00565877
0.00430684
0.00284879
0.00580911
0.00589049
0.0047613
0.00584318
0.00169733
0.00582344
0.00590928
0.00357451
0.00275034
0.00551012
0.00588777
0.00421897
0.00588033
0.003348
0.00588603
0.00655936
0.00149137
0.00589349
0.012457
0.00582586
0.000464244
0.0011772
0.00591085
0.0058247
0.00659363
0.00556958
0.00313892
0.0012204
0.00542055
0.0191381
0.00580686
0.00614585
0.0020437
0.00586844
0.00148856
0.00580013
0.000498395
0.00166262
0.00406999
0.00591137
0.00550783
0.00333896
0.00582561
0.00590006
0.00199547
0.00582668
0.00589617
0.00574834
0.00498419
0.00526734
0.00581448
0.00537131
0.0058668
0.00557238
0.00437552
0.00522553
0.0058931
0.00330417
0.00123402
0.00590598
0.0012118