/*--------------------------------*- C++ -*----------------------------------*\
| =========                 |                                                 |
| \\      /  F ield         | OpenFOAM: The Open Source CFD Toolbox           |
|  \\    /   O peration     | Version:  v2012                                 |
|   \\  /    A nd           | Website:  www.openfoam.com                      |
|    \\/     M anipulation  |                                                 |
\*---------------------------------------------------------------------------*/
FoamFile
{
    version     2.0;
    format      ascii;
    class       volScalarField;
    location    "400";
    object      omega;
}
// * * * * * * * * * * * * * * * * * * * * * * * * * * * * * * * * * * * * * //

dimensions      [0 0 -1 0 0 0 0];


internalField   nonuniform List<scalar> 
15335
(
2.84989
0.177323
0.213707
0.0242459
0.0278901
0.0245731
0.072521
0.0262982
0.0228023
0.0246307
0.0253822
0.0243932
0.068986
0.0486747
0.0351332
0.0221735
0.158291
0.1409
0.0241746
0.0301463
0.0228164
4.66267
0.032281
0.0228269
0.18581
3.01246
0.0896446
0.0234199
0.0373855
0.0488491
0.0231347
0.0810902
0.0261006
0.0289655
0.0756842
0.096631
0.0246212
0.0295369
0.0477824
0.141689
0.0234058
2.34486
0.0227342
0.0495515
0.353812
0.0233668
0.0309292
0.0250318
0.0415689
0.0248613
0.0228422
0.0231323
0.0249542
0.0281828
8.79101
0.339101
0.120335
0.0315764
0.030564
18.8646
0.170996
0.0223586
0.0249581
0.0256875
0.0277548
2.65719
0.356124
0.0244513
0.0370242
0.0226191
0.0265627
0.0320776
0.0248736
0.360162
0.0254913
1.69643
0.169391
0.0267575
0.024004
0.0914912
2.97504
0.0352381
0.0361893
0.0793643
0.0325563
10.1878
0.0257464
0.0872973
0.0245671
0.0273107
5.35185
0.0725923
0.361757
2.10725
0.0297418
0.0792805
0.0226999
2.66591
0.0231245
2.68282
0.022714
0.0268595
0.150779
0.0221827
0.0244536
0.0226872
14.8498
0.0249899
0.0266681
0.0540538
0.0283816
0.0441927
0.0248904
0.0266939
0.0259512
0.0233378
0.0557194
0.0245299
2.30413
6.5197
0.0266655
0.0753097
2.31909
0.0241752
0.0746077
0.023383
0.0242888
4.74227
0.0776173
0.0266215
0.0233884
0.0754749
0.0248315
2.83412
0.0231421
0.350932
0.02471
0.0226341
0.051745
0.0282012
0.0252962
2.22282
0.0240935
2.99775
2.47413
0.0256621
1.83367
0.0317036
0.0248921
0.057449
0.0240014
3.56376
0.0221634
0.028846
2.27912
0.0245389
0.0813757
0.0249013
0.0232218
0.0320991
0.023973
0.0278992
0.0248694
0.0455027
0.028951
0.0242061
0.0232168
3.83294
0.0230659
0.02431
0.0265312
0.0243306
0.0253841
0.0245688
0.0298192
0.028476
2.99282
0.0230803
0.0780596
2.64765
0.0253285
0.0255157
0.025747
0.0282832
0.0282652
0.129067
0.0812928
0.0254005
0.0249112
12.4016
0.0243361
2.64407
0.0421161
0.0233941
0.0248772
2.41081
0.025322
0.0224031
0.0602873
0.174959
0.023903
0.0302157
0.0233163
0.0691633
2.67245
0.0271815
0.7508
0.0242508
0.0813288
2.82061
0.161836
0.0301065
0.0234157
0.0292289
0.170288
0.0292673
0.0261113
0.0463038
0.0257265
0.0375401
0.0289841
0.0496043
2.36379
0.0780641
0.0268698
9.27917
0.0673292
0.0251713
0.069076
0.156795
0.0250428
0.128677
2.58039
0.0325981
0.0249686
0.0262476
0.0240965
1.01002
6.43574
0.0256941
0.0574233
0.0247151
0.059393
0.0265232
2.83733
0.0293948
0.315339
0.029159
2.16007
2.14241
0.0286132
0.0229152
0.164263
0.0270471
0.0229083
4.45772
0.0253325
0.0263832
2.37597
0.022895
2.7634
1.88118
5.575
0.180162
2.79572
7.47542
2.27079
0.0229954
0.17224
0.0252811
0.0991386
0.022139
2.9691
0.0231681
0.0259112
2.93513
23.3976
0.0282103
0.024849
2.69966
0.0234183
0.0243232
0.0257083
0.0248667
0.0991821
0.0248687
0.0338206
0.02425
0.16322
0.0291751
0.160904
0.0268592
0.0231961
0.024362
4.82244
0.0294579
0.0263465
0.0232276
0.0252289
0.0257426
0.0338074
0.0550362
1.05422
0.0258021
1.98417
0.0234292
0.0234313
0.0850565
5.71229
0.0680816
22.8023
0.0266219
0.0409008
2.96031
0.0233538
0.0268893
0.0230578
0.0230615
0.0252951
0.0261428
0.0246449
0.0252573
1.19176
2.33251
0.0295967
3.06384
0.130828
0.0230719
0.0230228
0.0230432
0.0233693
1.16187
1.41577
0.0302264
0.0468329
0.022673
0.0249829
0.0282997
0.0525668
2.30747
0.0344848
0.0515605
0.086899
0.0346674
0.0284642
2.60181
0.0576822
2.1581
0.0266995
0.0268953
0.0647181
0.0230675
0.0249969
2.96322
0.759049
0.026814
0.0260329
0.0230098
0.0245239
0.719831
0.0245329
0.0233643
0.0297151
0.0245371
0.234877
0.0263445
0.0257667
0.0253807
0.0419441
0.0244113
0.0257884
0.023933
0.0319213
0.0245178
0.0230769
0.0233569
0.0224083
0.0221354
0.0245986
0.0646502
2.17375
0.0775042
0.0343403
0.0615466
11.5354
0.0366016
0.0234207
2.5369
0.0240104
0.0243736
0.0254132
0.0419062
0.0231423
0.0268569
1.10141
0.0265501
0.0247608
0.0221813
0.0242718
2.52718
0.0354277
0.112411
0.0676323
0.0229189
0.024353
0.0556642
0.0229219
0.0251602
0.109533
0.0247446
0.0229073
0.0246732
0.0251348
0.0262898
0.054859
0.0233255
0.0244019
0.029272
0.0244557
0.024894
0.0570781
0.0238738
0.171694
0.0245918
0.0309654
0.222382
0.0241738
0.0244262
0.0233725
0.171703
2.76085
0.0321052
0.0266059
0.106203
0.0222831
0.0229156
2.94029
0.0571021
0.0238672
0.0370217
0.0227232
0.0246348
0.0239505
3.40899
0.0268528
2.34671
0.0381672
0.0246542
0.0291769
0.330384
0.0274027
2.954
0.0241343
18.7099
0.0241581
0.0248229
0.0370735
2.67334
0.0261063
0.0248907
0.0248909
0.031018
0.0287058
0.0266548
0.0656815
0.347912
0.0285693
0.165149
0.0268355
0.0261388
0.0239871
2.92043
0.0267883
1.66315
0.024462
0.0237842
0.024328
0.0265225
5.87493
0.0247213
0.0258868
0.0250208
0.0251549
0.0241141
0.0244371
2.17895
0.02611
0.0246468
0.023307
0.0247664
0.0257649
0.0246313
0.0242901
0.0227155
2.9012
3.06238
5.02151
0.0347509
0.0368856
0.0781966
0.0286692
3.98876
0.0244497
0.0551496
0.022646
0.0284239
0.0341086
0.0692111
0.023897
0.0251129
0.0262004
0.0285359
1.77717
0.0915094
0.0293347
0.0227488
0.0246838
0.0236565
0.0859034
2.41963
15.6178
20.2059
0.0266858
0.0230671
0.633958
0.024098
1.99597
0.025922
0.0231847
0.0244848
0.0256545
0.0592686
3.0583
0.0240443
0.0772213
0.0365033
3.14481
0.0318062
0.0228646
0.026435
0.0394948
0.0599486
0.0243663
5.97983
0.0245722
2.31403
2.80845
0.0252225
0.0610818
0.0389564
0.0454651
0.0242609
0.0226524
0.0231127
5.93899
5.03575
0.0239043
0.0264095
0.0246936
3.68141
0.0379035
0.0244796
0.0355812
0.0244254
0.524092
0.0260666
0.035057
0.0302217
2.96342
3.29538
2.51886
0.0242501
0.0231414
0.0568861
0.0249388
0.0231321
0.0242835
0.0251258
0.024567
2.55281
2.2693
6.48378
0.046291
0.0284768
0.0370829
3.84437
4.35601
2.63271
0.0315002
0.0232091
0.0233959
0.026865
0.701082
0.0258207
0.0238949
3.56853
0.0302879
5.70532
0.0237683
0.162619
0.0288109
0.0345555
7.45391
2.43907
0.0297862
0.0233827
0.0488387
0.0248119
2.15778
0.0459041
2.32615
0.350396
0.785185
0.0233999
0.0253747
0.0626318
0.0548804
3.51346
0.0260304
0.0229852
0.0242308
0.0246855
0.0244471
0.0266986
0.0754253
0.023363
0.0228849
0.0221402
0.0244709
0.032835
0.025264
0.095156
0.0233837
0.0287642
0.0492819
2.63058
0.159158
0.0245527
0.0232239
0.0340101
0.0597434
0.0242988
0.024472
0.281138
0.0246649
0.0650312
0.0473074
0.0227895
0.0264557
6.10742
1.79109
0.024634
0.0232386
0.0237397
2.96229
0.0240716
0.636384
0.0246729
0.0266479
0.0249405
0.0239437
0.0361473
0.0839522
1.0549
0.0232014
2.3224
0.0253243
0.0248722
0.0351301
0.0241229
0.0254374
0.026858
0.0295434
0.0238925
0.0538689
0.0240397
0.0245639
0.0242641
0.0281662
0.0316929
0.0237969
0.359089
0.0267704
0.0228887
3.0349
3.52266
0.0647205
0.0237553
0.0269631
0.0242754
0.0484998
0.0534589
0.0241327
0.0300243
0.024469
6.14006
0.340718
0.024736
0.0261063
15.2788
0.0246922
2.89974
0.441751
0.0253898
0.0227268
17.4086
0.0278553
0.0369723
0.034096
0.131823
0.0240665
0.0252046
0.0704685
0.0241552
0.0259809
3.06909
0.0843787
0.176979
0.028725
0.0243656
0.0228951
0.0239553
0.0246951
0.0248273
0.035353
0.0335463
0.329674
3.67108
0.0367881
2.03276
3.01698
0.0793468
0.0242724
0.0233227
0.0233496
0.0253805
0.0228583
0.0258691
0.0242623
0.0249161
0.0251154
0.022898
5.63798
3.13392
0.0242615
0.0816309
0.0246149
2.61931
0.0310485
0.0785698
0.0241046
0.0411107
0.0252277
0.0332077
0.0251848
0.0223348
5.89737
0.0273486
0.0454014
2.03782
0.027191
2.97941
0.0239615
0.623086
0.0228739
6.82391
0.0246159
0.0228874
0.0300849
0.0896763
0.0430142
0.0243573
0.0283128
0.0598679
0.0282896
0.0285063
0.0334199
0.151587
0.0230408
0.106
0.134784
0.0245145
0.0232765
0.0249899
3.11737
0.0287641
0.0240878
0.101679
0.0663424
0.0297917
1.26787
0.329109
0.0244101
0.0474448
0.0248704
2.64115
0.0278995
0.0244432
0.13759
0.0280558
0.101935
0.0332413
0.0243349
0.0281342
0.0382183
0.0249321
0.0325241
0.0254886
0.0247908
0.336987
0.0358909
0.0341794
0.0570978
0.0308582
0.0248688
0.158847
0.0233362
0.0252305
0.024673
0.0619781
0.0249676
0.025843
0.0245559
0.0664246
0.0244848
0.025253
0.0233221
0.0487664
2.42773
0.0268903
0.177217
0.0238469
0.0240081
0.0230566
1.33272
0.0231542
0.0230607
0.0233706
0.0228932
0.0258858
0.0631338
0.0241316
0.0377644
0.0230625
0.0244323
0.0240416
0.0221568
2.89271
0.0263711
0.0225448
0.0241448
0.0244306
0.0229615
0.0297948
0.0268471
0.0243639
0.0250018
1.83189
0.0242634
5.90552
0.0233994
0.0242263
0.0215839
0.0229496
0.02309
0.480776
2.34815
2.82313
0.0245214
0.0523009
0.0767043
0.0479908
0.0262958
0.0242233
0.135288
0.0246071
0.0254402
0.0262007
0.0238181
0.0312804
0.0265071
0.0434161
0.0273309
0.0226083
0.0248148
0.0245045
0.0279293
0.0241433
0.102619
0.98109
0.024845
0.0490616
0.0245799
0.0225895
0.0222768
0.0275378
3.60476
0.0233381
2.54571
2.10482
0.0240306
0.694049
0.0245108
0.0244625
0.0672058
0.0254559
0.0439411
0.0240485
5.65943
0.0241787
0.0383215
0.0226023
1.41882
0.025602
0.0255844
0.0238828
0.0480075
0.0234191
0.0658015
0.0238899
0.0239411
0.0233082
0.0285631
0.102516
5.27955
0.0240508
2.46884
5.93563
0.036854
0.0311143
0.323206
2.9785
0.0646753
1.58407
0.357807
0.0230496
0.0232944
0.035761
0.0244237
0.0244675
0.0562515
0.0478671
2.71501
0.0242867
2.41119
0.0246647
0.0815621
2.70504
0.0345556
0.0232586
0.149989
0.0268867
0.0250857
3.04885
0.0269022
0.0251352
0.024027
2.48437
0.0225972
1.99719
0.0245138
0.0563715
0.0402138
0.0439639
3.50373
0.0260268
3.00515
0.0469228
0.0226086
0.150935
0.025114
0.0476082
0.0225925
0.0294304
0.873954
2.56193
0.0225915
0.182366
5.64298
0.022605
1.16307
0.0283942
0.0271268
2.88478
3.12444
0.0232065
0.0407164
0.106803
0.167958
0.0296027
0.0247522
0.0292823
0.0237266
0.943812
0.0232192
0.0263125
0.022605
0.0260301
0.0270712
0.0279648
0.479029
0.709653
0.0248135
0.0543628
0.024899
2.24405
0.0255866
0.0253778
0.0991569
0.0243807
0.0236465
0.0249705
0.0222023
0.0244491
0.0286175
0.0252403
0.0227135
0.0252457
0.024456
4.26185
0.0242611
0.0241619
0.0242941
0.025363
3.37093
0.0228593
0.0240333
0.164179
1.29201
0.0228527
0.157014
0.0249285
0.888295
0.0512291
5.496
0.029473
0.0246945
1.54014
0.024564
0.114521
0.0244287
0.0518396
0.0239788
0.0600482
0.0534035
0.0243032
1.05213
0.0259814
5.94884
0.0712674
0.0236924
0.025454
0.0228712
0.0294419
0.0249405
0.741149
2.38377
0.0223817
0.025432
0.0253694
0.0240675
0.0244957
0.0285121
0.0232808
0.0631472
1.51957
0.0244147
0.0237967
0.0271424
0.0229222
0.0252569
0.0232671
3.15904
0.0262972
1.3395
5.49447
0.0770144
0.0246232
0.0247554
1.92873
0.0264282
0.0249542
2.22769
7.26531
0.0254549
0.0298392
0.0243394
0.0258734
0.0292141
0.0414979
0.0237883
2.0732
2.82846
0.0470006
0.0243819
2.10736
6.78403
0.0283559
0.026982
0.0244875
0.0245452
0.0226073
0.0244206
0.0244776
0.180765
0.0249584
0.0246838
0.0289187
0.0240445
2.383
0.0241555
0.0236419
0.0226201
0.0251946
0.0328858
0.0508781
0.0243258
0.0248336
0.10688
0.0228846
0.0247998
0.0239736
0.0259644
0.994582
1.136
0.0238708
0.0246679
4.69287
0.0504913
0.023424
0.0222156
0.0226024
0.0241532
0.036146
0.0243262
0.0236607
0.0240376
0.0250722
0.967722
0.0556029
0.0245717
0.0453059
0.660714
0.0271691
0.12383
0.0544691
1.73008
0.153516
0.171709
0.0259879
2.81558
0.755569
0.081225
2.68722
0.17956
0.0258713
0.171215
0.0261392
2.80336
2.98732
2.06579
2.39306
0.0225884
0.979611
0.0248327
0.0226676
0.0423182
5.38124
0.028644
0.0413708
0.0245303
0.0226408
0.0263055
0.0248294
0.0263902
0.0226407
0.335716
0.0476401
0.0348617
0.023916
0.0232538
0.0365123
0.0239923
0.0367403
0.0248526
0.0243372
0.0226524
0.0249255
0.0250739
0.0246798
0.0240879
0.0225967
0.0649304
0.0240904
0.0554125
1.81589
1.54864
0.0316631
0.133528
0.0232398
3.00375
0.0276913
1.13101
0.0231962
0.0226031
0.0244324
0.0308018
0.0245045
0.0248637
2.59119
0.143461
3.02711
3.01085
0.181824
0.656256
0.0244954
0.0249599
0.453624
1.67723
0.0243392
0.02446
0.0236121
0.3252
0.0249464
2.62842
17.3141
3.13817
2.89915
0.0311252
0.0296518
18.0998
1.96097
0.732072
0.0244804
7.95295
0.0244735
0.329648
0.0226111
0.0243764
0.0244366
0.0228482
3.00677
0.0236528
0.0513207
0.074857
1.3378
0.0244481
0.0297055
0.0353952
2.3912
2.51309
0.032892
0.0955657
2.33874
0.0226132
0.0226222
0.0310935
0.0273409
0.0769728
0.0844215
0.0248147
0.0483574
1.44442
0.0231656
0.0236216
1.29221
5.39426
0.032998
0.0243436
0.026947
2.28168
0.0248416
0.0325839
0.0228445
0.0523616
0.0262939
3.2862
2.05877
0.0246797
0.0286707
0.0243753
0.12834
0.0266126
0.0365967
0.0253293
0.0243827
2.9765
0.0432919
0.0469246
0.0254698
0.0260121
0.0274446
1.40684
0.0710508
0.0444872
0.0819507
1.89639
0.547547
0.0263619
0.112911
6.39443
0.0226348
0.0251308
0.0502493
2.56863
0.0231855
0.0236698
1.28704
0.0824738
0.0241087
0.0350956
0.0245078
0.0500401
0.681444
0.022667
2.27201
0.516186
0.0240065
0.0247455
0.0236824
0.0229946
0.0232124
0.02731
5.37419
0.0232265
0.0251937
0.0739113
1.79522
0.0221887
0.0449483
0.0232957
0.0229944
0.0239578
0.0240365
0.0242703
0.0282088
0.0254491
5.05379
4.62007
0.0501252
3.13954
0.605911
0.0292427
0.0241748
0.383507
0.0226777
0.0233309
0.0286983
1.97561
0.45507
2.34121
1.12213
3.02934
0.0241335
6.61304
0.0343366
1.14747
2.98669
0.0242574
0.0251254
0.0290801
0.0237269
0.024927
0.0285397
2.97793
0.0242646
0.0332042
0.0229086
3.15582
0.0240846
2.82016
0.0242632
0.0216651
2.75989
0.0584503
0.0256414
0.0270121
0.0234187
0.125445
0.115542
0.0233005
0.024272
0.0236006
0.0469941
0.0742968
0.0773844
2.29407
0.0265338
0.0281908
0.0246735
0.0246112
0.0342833
0.0244893
0.023699
0.0235591
0.0246846
0.0241024
0.0247224
1.14852
0.0248201
0.0241211
1.59058
0.087395
0.0249544
0.0591012
0.593082
0.0256925
0.0256545
2.86816
0.0254704
1.73661
0.70084
0.0243366
0.028373
3.11853
0.0242401
0.0281063
0.100043
0.0707105
0.0240221
2.1198
6.88951
0.0270589
0.026159
0.0630818
0.086881
0.0221346
0.0240315
0.0244341
0.0264736
2.92887
1.42099
1.52416
2.29701
2.86168
0.0282826
0.0273843
0.403082
0.0222691
0.033074
0.0459687
0.0302124
0.0229256
0.0463224
0.0234733
0.0247614
1.83963
1.80372
0.0500809
1.12976
0.0254167
0.0263106
0.162202
1.843
0.0813961
2.43944
0.0254881
0.170673
2.26714
0.0424238
0.0272738
0.281798
0.0303045
0.131383
0.0245639
0.0427503
0.029705
0.0580927
0.0246649
0.0761501
0.0270889
0.0239899
0.024832
1.28695
1.00727
0.0283657
0.0436008
0.838273
2.91751
0.0226611
0.0287589
0.032939
0.158351
0.0248354
0.0233614
0.0249621
0.0252669
1.66194
0.0269072
0.16134
0.0242091
0.0249469
2.08749
0.0244527
0.0246982
0.0430821
0.0278576
0.0246651
0.0244687
0.0257966
0.0433222
0.0344802
0.0299179
0.045259
0.0251843
0.0245099
0.0247978
0.0245652
0.54029
0.0261341
2.86817
0.0260952
0.0242619
0.0465002
0.024743
0.0268722
0.0257972
0.0244013
0.0246245
0.0246735
2.73271
0.0242696
0.0350855
0.0246904
2.89362
1.72984
2.29692
0.0247805
2.52255
0.0247602
0.0358678
0.0245063
0.0242733
1.77965
0.0427099
0.0247754
0.0537184
3.61004
0.0271962
2.43941
0.0268648
1.32566
0.63441
0.0246974
0.0244648
0.02471
0.048518
0.0238128
0.0236594
0.0242815
1.22911
0.179316
0.10796
0.0253875
0.0244581
0.942651
2.74282
1.43972
0.894997
1.10062
0.0238242
1.64891
0.0254752
0.036098
1.0649
0.0231388
0.0247073
0.0267381
0.627525
0.171738
2.93001
0.0240403
0.026538
0.025162
0.0750122
2.73221
0.0288207
0.0501304
0.0256189
0.0329171
0.0292797
0.0232001
2.86526
2.50333
0.0264783
0.0267445
0.0269963
0.16255
2.61671
0.0271966
0.0239358
0.0245485
0.0239713
0.0245003
2.95843
0.0828457
0.0239142
0.0442861
0.0245499
0.024125
0.0250997
0.0241506
0.024553
4.45973
0.0427767
0.0422076
0.0239285
0.0659656
0.0229682
0.0239814
0.023739
0.0236502
0.0228556
0.0248513
2.88984
0.0236555
0.695966
1.39361
0.0725867
0.0372938
0.0245877
1.84767
0.958852
0.024864
6.65004
0.0264874
0.261055
0.023822
0.138081
0.0433381
0.0240286
0.0259627
0.0257504
0.173166
0.0243695
0.0243592
0.0239295
0.0561005
0.0249525
0.0241173
0.0555069
0.0289199
0.0232849
0.0245449
0.28305
0.0243858
2.49799
0.0265742
0.0330015
0.0754941
2.35697
1.50913
0.024967
0.024653
0.0246674
0.0250032
2.57794
3.38293
0.0269715
0.0236837
0.9736
0.025835
0.0252545
0.0228595
0.0374476
0.0250439
0.116
2.70051
0.0254942
0.166328
1.7001
0.0535969
0.0724123
0.0848169
1.77546
0.324768
0.0267327
0.579478
0.0257498
0.0406765
1.32198
0.0281154
0.0246798
0.0249563
1.41896
0.806598
1.12533
0.0264973
0.0243101
0.191579
0.0261296
5.75811
0.0229558
2.87172
0.104242
0.024037
0.0239691
2.01275
0.0285021
0.321246
0.0266563
0.0282123
0.0267962
0.148376
0.0244322
0.0288915
2.68944
4.85754
1.82097
2.15173
0.023997
0.316308
0.024102
0.0273392
0.0256134
0.415735
0.0227197
0.0414689
0.0244933
0.0248313
0.0578388
3.26248
2.50199
0.0270483
0.0657823
6.70383
0.0238868
0.0245499
0.024343
0.0250258
0.15407
0.0249815
0.0245313
2.01997
0.0246478
2.7029
3.0514
0.0550671
0.0230956
0.0225047
0.0348319
0.196902
0.0289941
0.0236579
0.0236404
0.0230745
0.048149
6.58643
0.154559
0.0244072
0.0360804
0.0239392
0.137846
2.38161
0.0564414
0.0246753
0.0471155
0.0337589
0.0238292
0.0263925
0.076676
0.0247711
3.1604
0.107323
0.0232988
0.681889
0.0517795
0.0248348
0.0241656
0.0234312
0.0245538
0.0255764
0.0229146
0.0246551
0.023998
0.028036
0.0245373
0.025076
0.0243458
1.69681
0.0260599
0.0233367
0.326164
0.156537
2.64196
0.0233238
0.0240836
0.0249055
0.0232014
0.023121
0.0247079
0.0806025
0.0951554
0.0253543
0.0243369
0.0244491
0.0264629
0.0445009
0.0251578
0.0233095
0.116069
0.0248343
0.0242979
0.153456
3.10634
2.94334
0.0312834
0.0243713
0.0311617
2.80875
0.0239522
0.0246984
0.0278618
0.0245616
3.47264
0.0255714
0.0245608
0.023308
0.0242885
0.733773
0.0240127
0.0232049
0.866777
0.0478186
2.63107
0.0230193
3.84074
0.023287
0.0284383
0.0242601
2.68857
0.0234457
0.0298803
0.0297041
0.0303654
0.0283447
0.0459042
0.0249452
3.14863
0.0288523
0.157311
0.0248262
0.0283977
2.45938
0.0291454
0.0503944
0.0239246
0.0239214
0.0256634
0.0324356
0.0360274
2.95118
2.84347
0.0240248
0.0230526
0.650906
0.0244136
0.144835
2.6259
1.9045
0.316407
1.2384
2.13055
0.0230151
0.682723
0.0336113
0.831757
0.0322511
0.0774502
1.38909
0.0249871
0.0231735
0.0238982
0.0244019
0.317951
1.69329
0.0331953
0.177133
0.0221721
0.0237113
0.0269582
0.271049
0.0241865
0.0276072
0.0239029
0.024349
0.0320819
3.92797
8.81629
0.0242987
0.07279
0.0239312
0.0246347
0.0507482
0.0271892
0.0285088
1.48477
0.0224523
1.6855
0.0237921
0.0233949
0.0259569
0.0232438
2.81145
2.46246
0.0334
0.025153
0.0227762
0.0253136
0.0225143
0.0249918
0.0274222
0.0300804
0.131314
0.161085
0.0458427
0.0463192
0.0339481
2.09738
0.12801
0.0300601
0.0249329
0.0306472
0.0410093
1.27304
0.02798
0.0291861
0.0234002
0.0261026
0.0793437
0.0240636
0.110285
0.0247044
0.022551
0.040351
2.36489
0.0247134
0.0253438
3.53342
0.0927146
0.159352
0.0307562
0.093192
0.302084
0.0270903
0.0243529
2.65765
0.0526173
0.0237479
0.295869
0.0223259
2.70813
0.0299555
0.0285706
0.0255484
0.023011
0.653476
0.0263289
0.0561681
2.64497
0.0471564
1.7803
0.0589832
1.34726
13.4893
0.0244917
0.0244408
0.0243985
3.08619
2.83895
3.15288
3.0073
2.54698
3.31527
0.0244172
0.0248791
0.0239018
3.95948
5.38575
0.0273372
2.12059
0.0239335
3.66219
0.0246497
0.0251686
2.90607
0.0267742
0.0247903
0.156788
0.0280529
0.0263987
0.0252363
0.0265156
0.0618415
1.75914
0.024424
0.0238477
0.102221
0.87489
1.42038
0.0242789
0.0251599
0.0510246
0.0234312
0.0385662
1.88467
0.0321743
0.028714
0.0336201
0.023151
2.89967
0.023445
0.0475584
0.0246236
0.0261721
1.99671
0.100041
0.024549
0.0239723
0.0244052
0.0275593
0.046136
0.0221208
0.0242807
0.0264358
0.0328119
0.0287421
0.0249275
0.02567
0.183136
0.0231661
2.34814
0.0753561
0.0269318
0.0235783
0.0435767
0.0619839
0.0323266
12.5987
1.07814
0.0881877
3.06424
0.0246459
1.56664
0.0245678
0.336422
0.0237698
0.447638
0.0236415
2.7596
0.732673
0.0597023
0.0242524
3.36956
1.55683
5.19335
0.0246823
0.0657145
0.0361971
2.41386
0.0447965
3.40776
0.0245077
0.0245468
0.033876
0.119051
2.12495
0.031758
0.0265827
0.591111
0.0446823
0.0267246
0.0267379
0.0240254
2.4305
0.0248899
0.0238124
0.0248011
0.452464
0.129127
0.0230483
1.54169
2.77878
0.0236713
0.0237475
0.0266799
0.024293
2.0128
0.0242837
0.154718
2.13386
0.0240428
0.0290938
1.93057
0.0498224
0.0245277
0.0242403
6.53315
0.0233793
0.0237657
0.0590599
3.16439
0.0258467
1.86084
0.0248975
3.28287
0.0269917
0.164317
0.0237978
0.0243915
3.10194
0.0350061
0.0244862
3.70775
0.184615
2.46088
0.57338
1.55691
0.283388
0.0266768
0.0268523
0.0238107
0.0241889
0.0234591
1.52192
1.92428
0.590396
0.0245768
0.151923
0.0956179
0.0249174
0.0243909
0.0241992
0.042414
2.3976
0.0252115
2.19504
0.0314613
0.0247439
0.0236997
0.0458669
2.12852
0.0304756
0.0259028
5.1119
0.610454
0.0854881
0.0318402
0.0264839
0.0243046
6.59529
0.0246498
1.79364
0.0234264
0.0241643
2.67028
0.023086
0.041831
0.0712319
0.36963
0.0239021
0.0234396
2.30404
0.0249151
0.0242688
0.0246204
0.0353447
0.0268439
1.29015
0.0245633
0.0237367
0.0399865
0.868139
0.0246291
2.19821
0.0245636
0.0266685
0.0346458
1.49212
0.0243539
0.0239021
0.0260811
0.0242999
0.0411699
0.036452
0.0237258
0.0244674
2.74193
2.04174
0.0238946
0.023792
0.0221014
3.30786
0.0262253
0.0262042
2.1484
0.0977239
0.0243903
0.632125
0.0287853
0.0249839
0.0272698
0.0247447
0.0236082
0.0242289
0.0239352
0.0231297
0.0245366
0.0237823
0.0261038
0.0235536
0.0247046
0.0205367
0.061218
0.0516102
0.0245344
2.2428
0.0246553
0.0291458
0.0249153
0.0245137
0.0461262
0.0684391
0.024312
0.0232129
0.0262157
0.0401158
0.0246558
0.534853
2.23228
3.15798
0.783848
0.0230835
3.52828
2.1159
0.131919
0.0451998
1.91747
0.0265124
0.0249887
0.149526
0.0249025
0.0251117
0.0243479
0.0314643
0.0243337
0.0236124
2.19166
0.0447842
0.0432247
0.023747
0.0508682
0.0255193
0.0244156
0.0243815
0.0234497
0.0248504
0.0246249
0.0247211
0.0494169
3.1145
0.0233686
2.2361
3.92126
0.0245128
0.0242043
0.147516
1.45438
0.0242875
0.0244798
2.42274
0.0244287
0.0244227
0.0755994
0.0231297
0.0245365
0.0244374
0.0247669
1.09226
3.02721
0.0249998
0.0242202
0.0244199
0.023938
0.0225732
0.0240541
0.0243829
0.0250026
2.41602
1.75247
0.0247662
0.0447243
0.490495
0.02558
0.158391
0.0290216
0.024774
0.0239458
0.0237619
0.0232908
0.0255831
0.292948
0.0244959
0.0686836
5.51891
1.75618
2.98363
0.0243572
0.0289442
0.0278029
0.0862811
0.0290427
0.0259608
0.0267855
0.167029
0.0247344
0.0262729
0.0957465
0.764568
0.0466334
0.0271845
0.0241968
2.48472
2.90564
3.51553
0.0245184
0.0240305
0.0234339
21.6133
1.54023
0.0224748
0.0363665
0.109789
0.832399
0.0348018
0.0256866
0.0882916
0.0237288
0.0232587
0.0246341
0.0269051
1.98469
0.0234243
0.0289073
0.0240202
0.131418
5.11785
0.0682695
2.38745
0.580267
2.00372
1.84633
0.0254905
0.0352919
0.0244999
3.05937
0.0243451
0.39226
0.0293531
0.622391
0.0543182
0.58257
0.716202
0.030524
0.024002
2.09735
2.2448
0.0242484
2.26847
0.0270048
0.0244081
0.0288002
2.74341
0.0239717
0.022345
0.0245207
0.024518
3.0417
0.0410526
0.0243396
0.0261877
0.0300317
0.191005
0.0320697
0.0739154
1.08971
0.0749247
0.0445867
0.16979
2.08257
0.0337857
1.60351
0.37386
1.90612
0.0930471
0.316685
0.0239183
0.0477565
0.0238678
2.57636
2.64997
0.0246327
0.0270756
0.0515991
2.74422
0.0471425
1.7891
0.0255045
0.0226197
0.0239512
2.973
0.0267587
0.0445865
2.39824
0.0230611
0.0231237
0.0259775
3.6376
2.63566
0.0243494
0.0236241
0.0240006
2.17313
0.0236265
4.63129
1.95448
0.0230964
0.0262224
0.0285481
0.0230843
0.0482453
0.0245527
0.263519
0.109519
0.0247297
0.0235398
0.0228086
2.26851
0.0259275
0.0546576
3.11346
1.99049
0.0261351
2.87938
0.987618
1.65583
0.113654
0.0265142
0.0244752
2.11851
0.0425515
0.0245148
0.0216129
2.39911
0.0440698
0.0245612
0.0508504
0.0226681
0.024485
0.0251332
0.023112
2.61257
0.065168
0.044875
0.0565205
0.0906505
0.0275496
0.0255397
1.20422
2.70343
7.5683
3.97173
0.0251263
0.0248496
1.29857
0.0228872
8.89502
0.0247157
0.0233886
0.0451537
0.061806
0.0436979
0.0650007
5.30524
0.0227774
0.0443485
0.0432991
0.614561
5.12246
2.08285
1.59107
0.0240593
1.55052
0.0300544
0.0249154
0.217279
0.0230553
0.0266606
1.9313
0.0286337
0.032488
0.375615
3.67644
0.572601
0.0605261
2.11959
0.168906
0.0254352
0.0239181
2.43949
0.0257365
1.87666
2.15875
4.22903
0.0242603
0.0244829
0.0229595
0.0704381
0.0221819
0.0244057
0.0232231
2.30731
0.0256538
0.0245386
1.49853
0.0237764
12.7593
0.0410846
0.0287384
1.41331
4.21273
0.0732373
0.155459
0.0291529
0.094394
1.62522
0.0242549
2.24082
0.0519334
0.024516
2.99262
0.0293252
2.78278
0.0239552
0.024652
0.0231685
0.0241775
0.870368
0.0243967
0.0242552
0.161454
0.0242728
0.0239624
0.586366
1.53178
3.76168
0.0245016
0.0242237
2.83439
0.0229634
0.0825511
0.0242487
1.77615
0.0736612
2.46228
0.11405
0.0474446
0.023991
0.0238925
0.164873
0.054926
1.08692
0.0815064
0.0809807
0.20195
0.0240628
2.1417
0.161674
2.48215
0.461489
0.0341092
2.71851
0.111135
0.886058
0.0525129
0.0248368
1.14385
4.11128
0.0512655
0.0260389
1.24338
0.0236986
2.62124
0.0239308
2.28772
0.0230288
1.05953
0.028584
0.023558
0.0235028
2.57413
6.93827
1.91414
0.0242637
0.0242474
0.0499459
0.0243667
0.0246123
0.0272221
2.68286
0.0497772
0.0231393
0.0244405
2.29342
0.0258185
0.109919
0.0244376
0.0248246
2.73543
1.65132
2.48146
0.023653
2.34349
0.0240246
0.0489318
0.0243439
0.0270627
0.129218
0.0242281
2.78887
0.0257873
0.621934
0.169035
0.0245769
0.0243334
0.0285361
0.0278555
2.38691
1.55857
0.0289322
0.249792
0.0231474
2.84853
1.314
0.0245627
0.129119
0.0227592
0.529663
0.112451
2.80883
0.0248498
2.45125
0.027666
0.0242359
0.0247591
0.078354
0.024638
0.0244556
2.57896
0.0296618
3.72333
2.59018
0.0287085
0.0234947
0.0278306
2.64579
2.50652
0.0247204
0.0527077
0.15899
0.0248028
0.162287
0.0245561
0.074998
0.0268406
0.0256072
0.0431427
0.49938
0.0339706
0.0247314
0.835567
0.0939474
0.0252763
0.0246778
0.0251591
0.0239337
2.7576
0.0246229
0.0269499
3.25221
0.0265734
1.36409
0.0235374
0.34668
0.0250541
1.32543
0.0423057
0.0287547
0.104396
0.0221448
0.0221268
1.85382
0.0254119
1.10473
0.0231568
0.0636557
0.0462863
0.0244066
0.0980032
0.0330055
5.88845
0.0285648
2.37784
0.127083
0.0236295
0.0245694
2.12935
0.0878881
0.0221767
0.0245822
0.0324411
0.0253372
2.90589
0.0243336
0.467071
0.0244874
1.69809
0.191039
0.0604041
0.0476916
0.0248782
2.75577
0.0237501
0.71143
0.0598209
2.00466
0.0634361
2.73147
0.0243797
0.0245401
0.107154
0.55108
0.0242744
2.74805
0.0235705
0.172907
0.0517373
2.73409
0.0247766
0.0335055
0.059592
0.0294683
0.0483333
0.0238054
0.0247696
0.0621292
0.0732993
0.0862243
0.024804
3.26463
2.25486
3.27798
0.0252561
2.78734
0.187032
0.166532
0.0236537
0.02474
0.024841
0.0283272
2.59733
0.0269993
2.77689
0.024664
2.43256
0.110638
0.0247802
0.104272
0.0248836
2.70198
0.725617
11.9726
0.0340509
0.025188
0.0285011
0.165198
0.0454224
0.0228784
1.76936
3.45577
0.0249901
3.15983
0.180533
0.204634
1.08931
0.0247026
0.942645
3.07063
0.025398
0.0453651
0.0347777
2.91574
5.14
3.88968
2.57265
0.0282539
0.0393724
3.01936
0.0245458
0.0253502
0.0330982
3.43201
0.0252463
3.7023
0.0249746
1.88798
0.0239779
0.096806
0.0259358
0.0237793
0.0246853
0.0259678
2.84803
0.029496
2.71559
0.167511
0.0248222
0.0248315
0.101161
0.163354
0.0246499
2.73937
0.0415862
0.25566
0.0917379
0.0292529
2.60931
0.0257448
0.0316119
0.0246346
0.056085
0.0473658
0.0247047
0.0557743
0.0261395
0.158699
0.0251883
0.110064
0.11972
0.0288108
0.174403
0.348748
0.0256811
0.0332714
0.0255238
3.17172
0.0252658
2.13625
0.0247063
0.0327019
0.025199
3.73135
0.0234165
0.0427454
0.0237649
0.022633
2.24743
0.0255345
0.239421
2.58403
0.133302
2.65009
0.0246536
0.023122
0.0254047
2.06604
0.0242767
0.0249721
0.0257446
0.0262058
0.023893
2.85556
0.0697719
0.0240365
2.68638
0.02548
0.0277938
2.65595
0.03861
1.47454
0.0245399
0.0290207
0.0487261
0.0261704
2.10306
2.98292
4.86306
0.024393
1.90477
0.0539068
2.56142
0.0254037
0.0695807
0.0547505
0.024766
0.0231483
0.0247385
0.587313
0.0328021
0.0693915
2.65753
2.86646
0.0506174
0.0515146
0.0496128
0.083574
0.023511
1.77381
0.200602
0.0590078
1.11292
0.0242319
0.0278939
0.0240721
0.146767
0.0293282
0.0278979
0.0351096
0.0252942
0.0705148
0.0275778
0.168873
0.0245352
0.0296399
0.024791
2.96721
0.027763
0.0239752
2.31823
0.073566
0.0261635
0.0240028
0.0248363
0.0243624
0.0247579
0.108311
3.14752
0.024754
0.0372599
0.0456689
0.0247728
0.0248791
3.44645
0.0611074
0.0486093
3.02634
2.68049
0.106228
0.0243933
2.72236
0.0337241
0.0602536
0.156618
0.0325572
0.170522
2.58861
0.0258806
4.60337
0.0740423
0.0694334
0.0727302
0.0520272
0.299728
0.0748578
0.448456
8.22586
1.43922
0.39194
0.661395
0.027838
1.17551
1.43777
0.026851
0.0529453
0.0276821
0.0244519
0.0241616
0.0248228
2.77174
3.1
0.0252298
2.61092
3.89599
0.028002
2.97448
0.665277
2.84274
3.03979
0.0350984
0.0251057
0.023914
2.92585
0.154012
0.0240379
2.86808
3.10113
0.0441449
3.29624
0.0683301
0.0242781
3.08533
0.0248612
3.56636
0.0249058
2.65292
2.08412
0.034358
2.40939
0.023652
0.0754754
0.0256978
0.0353326
0.15979
0.0247892
0.0248489
0.188342
2.58631
0.216139
0.0235617
0.0279609
0.0360457
0.0498944
0.0251577
0.184893
2.24984
0.0269268
0.0256539
0.0460216
1.71832
0.024525
0.0252381
0.0245357
0.0277162
2.93445
0.0323105
0.0591946
0.162944
0.025428
0.024525
2.65107
2.18242
0.0248252
4.01013
0.401837
0.0366592
0.227107
0.914349
1.57358
1.83899
0.0319778
2.83475
6.19124
0.16924
0.026786
2.62747
0.0244109
0.0245
0.177071
0.0329561
0.0456451
0.0981101
0.0258446
0.0238391
0.0247622
0.0247772
0.0246154
0.0422447
0.181852
0.02384
0.023132
0.037552
0.163923
0.0237453
0.0247984
0.0279169
2.73039
0.0437577
0.0238654
2.33217
1.62035
0.032561
1.89699
0.0230423
0.146809
0.0224209
0.438546
0.0988591
0.032325
1.50809
0.0244284
0.0278596
0.0384369
0.35395
0.0324357
0.0320959
0.0521571
0.028357
0.0230693
0.0255842
0.0245258
0.0246856
0.0243709
0.0443184
0.026676