/*--------------------------------*- C++ -*----------------------------------*\
| =========                 |                                                 |
| \\      /  F ield         | OpenFOAM: The Open Source CFD Toolbox           |
|  \\    /   O peration     | Version:  v2012                                 |
|   \\  /    A nd           | Website:  www.openfoam.com                      |
|    \\/     M anipulation  |                                                 |
\*---------------------------------------------------------------------------*/
FoamFile
{
    version     2.0;
    format      ascii;
    class       volScalarField;
    location    "400";
    object      omega_0;
}
// * * * * * * * * * * * * * * * * * * * * * * * * * * * * * * * * * * * * * //

dimensions      [0 0 -1 0 0 0 0];


internalField   nonuniform List<scalar> 
15335
(
2.8499
0.177306
0.21367
0.0242459
0.0278901
0.0245731
0.072521
0.0262982
0.0228023
0.0246307
0.0253822
0.0243932
0.0689856
0.0486746
0.0351332
0.0221735
0.158279
0.140903
0.0241746
0.0301463
0.0228164
4.66266
0.032281
0.0228269
0.185777
3.01247
0.0896451
0.0234199
0.0373855
0.0488465
0.0231347
0.0810896
0.0261006
0.0289655
0.0756838
0.0966314
0.0246212
0.0295369
0.0477823
0.141688
0.0234058
2.34481
0.0227342
0.0495514
0.353812
0.0233668
0.0309292
0.0250318
0.0415689
0.0248613
0.0228422
0.0231323
0.0249542
0.0281828
8.79072
0.339101
0.120333
0.0315765
0.030564
18.8646
0.170983
0.0223586
0.0249581
0.0256875
0.0277548
2.6572
0.356125
0.0244513
0.0370242
0.0226191
0.0265627
0.0320776
0.0248736
0.360162
0.0254913
1.69639
0.169382
0.0267575
0.024004
0.0914918
2.97505
0.0352381
0.0361893
0.0793638
0.0325563
10.1877
0.0257464
0.0872976
0.0245671
0.0273107
5.35185
0.0725935
0.361757
2.10733
0.0297418
0.0792801
0.0226999
2.66592
0.0231245
2.68283
0.022714
0.0268595
0.150778
0.0221827
0.0244536
0.0226872
14.8498
0.0249899
0.0266681
0.0540537
0.0283816
0.0441928
0.0248916
0.0266939
0.0259512
0.0233378
0.0557196
0.0245299
2.30458
6.51968
0.0266655
0.0753095
2.3191
0.0241752
0.0746076
0.023383
0.0242888
4.74223
0.0776174
0.0266215
0.0233884
0.0754747
0.0248315
2.83413
0.0231421
0.350932
0.02471
0.0226341
0.0517449
0.0282012
0.0252962
2.2229
0.0240935
2.99776
2.47414
0.0256621
1.83363
0.0317035
0.0248921
0.0574494
0.0240014
3.56353
0.0221634
0.028846
2.2791
0.0245389
0.0813745
0.0249013
0.0232218
0.0320991
0.023973
0.0278992
0.0248694
0.0455028
0.028951
0.0242061
0.0232168
3.83274
0.0230659
0.02431
0.0265312
0.0243306
0.0253841
0.0245688
0.0298192
0.028476
2.99283
0.0230803
0.0780599
2.64766
0.0253285
0.0255167
0.025747
0.0282832
0.0282652
0.12907
0.0812917
0.0254014
0.0249112
12.4016
0.0243361
2.64408
0.0421161
0.0233941
0.0248772
2.41114
0.025322
0.0224031
0.0602872
0.174955
0.0239029
0.0302157
0.0233163
0.0691625
2.67246
0.0271815
0.750767
0.0242508
0.0813283
2.82062
0.161817
0.0301064
0.0234157
0.0292289
0.170295
0.0292673
0.0261113
0.0463038
0.0257265
0.0375388
0.0289841
0.0496043
2.36377
0.0780642
0.0268698
9.27928
0.0673296
0.0251713
0.069076
0.156788
0.0250428
0.128681
2.58041
0.0325981
0.0249686
0.0262476
0.0240965
1.01003
6.4357
0.0256941
0.0574236
0.0247151
0.0593932
0.0265232
2.83735
0.0293948
0.315337
0.029159
2.16007
2.14251
0.0286132
0.0229152
0.164273
0.0270471
0.0229083
4.45774
0.0253325
0.0263832
2.37595
0.022895
2.7634
1.8811
5.57495
0.180151
2.79575
7.47549
2.27078
0.0229954
0.172235
0.0252811
0.0991435
0.022139
2.96911
0.0231681
0.0259112
2.93516
23.3976
0.0282102
0.024849
2.69967
0.0234183
0.0243232
0.0257083
0.0248667
0.0991868
0.0248687
0.0338206
0.02425
0.163216
0.0291751
0.160914
0.0268592
0.0231961
0.024362
4.82239
0.0294579
0.0263465
0.0232276
0.0252289
0.0257426
0.0338058
0.0550363
1.05421
0.025803
1.98417
0.0234292
0.0234313
0.0850434
5.71233
0.0680818
22.8024
0.0266219
0.0409011
2.96031
0.0233538
0.0268893
0.0230578
0.0230615
0.0252951
0.0261428
0.0246449
0.0252573
1.19177
2.33249
0.0295967
3.06385
0.130831
0.0230719
0.0230228
0.0230432
0.0233693
1.16188
1.41564
0.0302264
0.0468329
0.022673
0.0249829
0.0282997
0.0525667
2.30747
0.0344847
0.0515606
0.0868994
0.0346674
0.0284642
2.60184
0.0576822
2.1581
0.0266995
0.0268953
0.0647175
0.0230675
0.0249969
2.96333
0.758951
0.026814
0.0260329
0.0230098
0.0245239
0.719834
0.0245329
0.0233643
0.0297151
0.0245371
0.234871
0.0263445
0.0257667
0.0253807
0.0419441
0.0244113
0.0257884
0.023933
0.0319213
0.0245178
0.0230769
0.0233569
0.0224083
0.0221354
0.0245986
0.0646497
2.17375
0.0775042
0.0343402
0.0615469
11.5354
0.0366016
0.0234207
2.5369
0.0240104
0.0243736
0.0254132
0.0419062
0.0231423
0.0268569
1.10143
0.0265501
0.0247608
0.0221813
0.0242718
2.52718
0.0354277
0.112406
0.0676321
0.0229189
0.024353
0.0556642
0.0229219
0.0251602
0.109533
0.0247446
0.0229073
0.0246732
0.0251348
0.0262898
0.0548591
0.0233255
0.0244019
0.029272
0.0244557
0.024894
0.0570779
0.0238738
0.17169
0.0245918
0.0309654
0.222391
0.0241738
0.0244262
0.0233725
0.171707
2.76084
0.0321054
0.0266059
0.106198
0.0222831
0.0229156
2.94029
0.0571019
0.0238672
0.0370217
0.0227232
0.0246348
0.0239505
3.40904
0.0268528
2.34669
0.0381672
0.0246542
0.0291769
0.330381
0.0274027
2.95401
0.0241343
18.7099
0.0241581
0.0248229
0.0370735
2.67329
0.0261063
0.0248907
0.0248909
0.031018
0.0287057
0.0266548
0.0656818
0.347911
0.0285693
0.165134
0.0268355
0.0261388
0.0239871
2.92044
0.0267883
1.6631
0.024462
0.0237842
0.024328
0.0265225
5.87491
0.0247213
0.0258868
0.0250208
0.0251549
0.0241141
0.0244371
2.17895
0.02611
0.0246468
0.023307
0.0247664
0.0257649
0.024631
0.0242901
0.0227155
2.90122
3.06235
5.02151
0.0347509
0.0368856
0.0781965
0.0286692
3.9888
0.0244497
0.0551496
0.022646
0.0284239
0.0341086
0.0692116
0.023897
0.0251129
0.0262004
0.0285359
1.77711
0.0915113
0.0293343
0.0227488
0.0246838
0.0236565
0.085904
2.41962
15.6177
20.206
0.0266858
0.0230671
0.63392
0.024098
1.99593
0.025922
0.0231847
0.0244848
0.0256545
0.0592688
3.05831
0.0240443
0.0772218
0.0365033
3.14486
0.0318065
0.0228646
0.026435
0.0394955
0.0599489
0.0243663
5.97981
0.0245722
2.31402
2.80847
0.0252225
0.0610817
0.0389564
0.0454651
0.0242609
0.0226524
0.0231127
5.93893
5.03575
0.0239043
0.0264095
0.0246936
3.68143
0.0379035
0.0244796
0.0355812
0.0244254
0.524027
0.0260666
0.035057
0.0302217
2.96343
3.29535
2.51887
0.0242501
0.0231414
0.0568862
0.0249388
0.0231321
0.0242835
0.0251258
0.024567
2.55281
2.26929
6.48388
0.046291
0.0284769
0.0370829
3.84431
4.35599
2.63272
0.0315002
0.0232091
0.0233959
0.026865
0.697759
0.0258207
0.0238949
3.56859
0.0302879
5.70522
0.0237683
0.162622
0.0288109
0.0345555
7.45384
2.43906
0.0297862
0.0233827
0.0488386
0.0248119
2.15779
0.0459041
2.32615
0.350394
0.785035
0.0233999
0.0253747
0.0626316
0.0548805
3.51346
0.0260304
0.0229852
0.0242308
0.0246855
0.0244471
0.0266986
0.0754252
0.023363
0.0228849
0.0221402
0.0244709
0.032835
0.025264
0.0951566
0.0233837
0.0287642
0.0492819
2.63059
0.159153
0.0245527
0.0232239
0.0340101
0.0597432
0.0242988
0.024472
0.281072
0.0246649
0.0650311
0.0473074
0.0227895
0.0264557
6.10743
1.79109
0.024634
0.0232386
0.0237397
2.96227
0.0240716
0.636561
0.0246729
0.0266479
0.0249405
0.0239437
0.0361473
0.0839518
1.05489
0.0232014
2.32269
0.0253243
0.0248722
0.0351313
0.0241229
0.0254374
0.026858
0.0295434
0.0238925
0.053869
0.0240397
0.0245639
0.0242641
0.0281662
0.0316931
0.0237969
0.359089
0.0267704
0.0228887
3.03497
3.52268
0.0647206
0.0237553
0.0269631
0.0242754
0.0484997
0.0534587
0.0241327
0.0300243
0.024469
6.14
0.34076
0.024736
0.0261063
15.2788
0.0246922
2.89974
0.44193
0.0253898
0.0227268
17.4086
0.0278553
0.0369723
0.034096
0.131817
0.0240665
0.0252046
0.0704602
0.0241552
0.0259809
3.0691
0.0843792
0.176976
0.028725
0.0243656
0.0228951
0.0239553
0.0246951
0.0248273
0.035353
0.0335463
0.329674
3.67104
0.036788
2.0327
3.01699
0.0793469
0.0242724
0.0233227
0.0233496
0.0253805
0.0228583
0.0258691
0.0242623
0.0249161
0.0251154
0.022898
5.63795
3.13393
0.0242615
0.0816315
0.0246149
2.61932
0.0310485
0.0785702
0.0241046
0.0411107
0.0252277
0.0332077
0.0251848
0.0223348
5.89743
0.0273486
0.0454014
2.03776
0.027191
2.97942
0.0239615
0.622929
0.0228739
6.82385
0.0246159
0.0228874
0.0300849
0.0896768
0.0430142
0.0243573
0.0283129
0.0598681
0.0282897
0.0285063
0.03342
0.151578
0.0230408
0.10599
0.134783
0.0245145
0.0232765
0.0249899
3.11738
0.0287641
0.0240878
0.101679
0.0663426
0.0297917
1.26788
0.329109
0.0244101
0.0474447
0.0248704
2.64117
0.0278995
0.0244432
0.137582
0.0280558
0.101935
0.0332413
0.0243349
0.0281342
0.0382203
0.0249321
0.0325241
0.0254886
0.0247908
0.336987
0.0358909
0.0341792
0.0570977
0.0308582
0.0248688
0.158831
0.0233362
0.0252305
0.024673
0.0619783
0.0249676
0.025843
0.0245559
0.0664248
0.0244848
0.025253
0.0233221
0.0487664
2.42772
0.0268903
0.177215
0.0238469
0.0240081
0.0230566
1.3327
0.0231542
0.0230607
0.0233706
0.0228932
0.0258858
0.0631343
0.0241316
0.0377644
0.0230625
0.0244323
0.0240416
0.0221568
2.89272
0.0263711
0.0225448
0.0241448
0.0244306
0.0229615
0.0297948
0.0268471
0.0243639
0.0250018
1.83189
0.0242634
5.90545
0.0233994
0.0242263
0.021584
0.0229496
0.02309
0.480744
2.34816
2.82314
0.0245214
0.0523008
0.0767032
0.0479909
0.0262958
0.0242233
0.135285
0.0246071
0.0254402
0.0262007
0.0238181
0.0312816
0.0265071
0.0434191
0.0273309
0.0226083
0.0248148
0.0245045
0.0279293
0.0241433
0.10262
0.981039
0.024845
0.0490616
0.0245799
0.0225895
0.0222768
0.0275378
3.60472
0.0233381
2.54572
2.10489
0.0240306
0.694052
0.0245108
0.0244625
0.0672054
0.0254559
0.0439411
0.0240485
5.65939
0.0241787
0.0383215
0.0226023
1.4188
0.025602
0.0255844
0.0238828
0.0480075
0.0234191
0.0658012
0.0238899
0.0239411
0.0233082
0.0285631
0.102503
5.27963
0.0240508
2.46883
5.93559
0.036854
0.0311153
0.323204
2.97851
0.0646758
1.58566
0.357806
0.0230496
0.0232944
0.035761
0.0244237
0.0244675
0.0562516
0.0478671
2.71502
0.0242867
2.41117
0.0246647
0.0815626
2.70505
0.0345556
0.0232586
0.149985
0.0268867
0.0250857
3.04886
0.0269022
0.0251352
0.024027
2.48437
0.0225972
1.99719
0.0245138
0.0563716
0.0402138
0.043964
3.50372
0.0260268
3.00516
0.0469229
0.0226086
0.150931
0.025114
0.0476081
0.0225925
0.0294304
0.874036
2.56193
0.0225915
0.182356
5.64296
0.022605
1.1631
0.0283942
0.0271268
2.88479
3.1244
0.0232065
0.0407183
0.106802
0.167935
0.0296027
0.0247522
0.0292823
0.0237266
0.94382
0.0232192
0.0263124
0.022605
0.0260301
0.0270712
0.0279648
0.479054
0.709659
0.0248135
0.0543626
0.024899
2.24404
0.0255866
0.0253778
0.0991572
0.0243807
0.0236465
0.0249705
0.0222023
0.0244491
0.0286175
0.0252403
0.0227135
0.0252457
0.024456
4.26186
0.0242611
0.0241619
0.0242941
0.025363
3.37089
0.0228593
0.0240333
0.164173
1.29214
0.0228527
0.157028
0.0249285
0.888225
0.0512292
5.49609
0.0294729
0.0246945
1.54015
0.024564
0.114519
0.0244287
0.0518395
0.0239788
0.0600484
0.0534034
0.0243032
1.05202
0.0259813
5.94864
0.071269
0.0236924
0.025454
0.0228712
0.0294418
0.0249405
0.737014
2.38359
0.0223817
0.025432
0.0253694
0.0240675
0.0244957
0.0285121
0.0232808
0.0631469
1.51958
0.0244147
0.0237967
0.0271424
0.0229222
0.0252569
0.0232671
3.15906
0.0262972
1.34022
5.49441
0.0770154
0.0246232
0.0247554
1.9287
0.0264282
0.0249542
2.22768
7.26522
0.0254549
0.0298392
0.0243394
0.0258734
0.0292142
0.0414979
0.0237883
2.07331
2.82848
0.0470007
0.0243819
2.10736
6.78379
0.0283559
0.026982
0.0244875
0.0245452
0.0226073
0.0244206
0.0244776
0.180757
0.0249584
0.0246838
0.0289187
0.0240445
2.38298
0.0241555
0.0236419
0.0226201
0.0251946
0.0328858
0.0508779
0.0243258
0.0248336
0.106879
0.0228846
0.0247998
0.0239736
0.0259644
0.994575
1.13598
0.0238708
0.0246679
4.69268
0.0504913
0.023424
0.0222156
0.0226024
0.0241532
0.036146
0.0243262
0.0236607
0.0240376
0.0250722
0.967582
0.055603
0.0245717
0.045306
0.66071
0.0271691
0.12383
0.054469
1.73006
0.153507
0.171703
0.0259879
2.8156
0.755537
0.0812262
2.68723
0.179537
0.0258713
0.171211
0.0261392
2.80338
2.98733
2.06581
2.39317
0.0225884
0.979645
0.0248327
0.0226676
0.0423182
5.38121
0.0286439
0.0413709
0.0245303
0.0226408
0.0263055
0.0248294
0.0263902
0.0226407
0.335716
0.0476402
0.0348617
0.0239159
0.0232538
0.0365123
0.0239923
0.0367403
0.0248526
0.0243372
0.0226524
0.0249255
0.0250739
0.0246798
0.0240879
0.0225967
0.0649299
0.0240904
0.0554126
1.81591
1.54861
0.0316642
0.133521
0.0232398
3.00376
0.0276913
1.13099
0.0231962
0.0226031
0.0244324
0.0308027
0.0245045
0.0248637
2.59115
0.143478
3.0271
3.01086
0.181827
0.656069
0.0244954
0.0249599
0.453626
1.67727
0.0243392
0.02446
0.0236121
0.325171
0.0249464
2.62836
17.3142
3.13818
2.89912
0.0311252
0.0296518
18.0997
1.96097
0.732079
0.0244804
7.9529
0.0244735
0.329649
0.0226111
0.0243764
0.0244366
0.0228482
3.00678
0.0236528
0.051322
0.0748561
1.33779
0.0244481
0.0297055
0.0353952
2.39119
2.5131
0.032892
0.0955655
2.33858
0.0226132
0.0226222
0.0310935
0.0273409
0.0769726
0.0844221
0.0248147
0.0483574
1.44426
0.0231656
0.0236216
1.29208
5.39436
0.032998
0.0243436
0.026947
2.28167
0.0248416
0.0325854
0.0228445
0.0523616
0.0262939
3.28618
2.05875
0.0246797
0.0286707
0.0243753
0.128336
0.0266126
0.0365967
0.0253293
0.0243827
2.97651
0.0432919
0.0469247
0.0254698
0.0260121
0.0274446
1.40691
0.0710518
0.0444871
0.0819409
1.89664
0.547394
0.0263619
0.112908
6.39451
0.0226348
0.0251308
0.0502491
2.56865
0.0231855
0.0236698
1.28694
0.0824749
0.0241087
0.0350956
0.0245078
0.0500403
0.681461
0.022667
2.272
0.516208
0.0240065
0.0247455
0.0236824
0.0229946
0.0232124
0.02731
5.37419
0.0232265
0.0251937
0.0739122
1.79532
0.0221887
0.0449465
0.0232957
0.0229944
0.0239578
0.0240365
0.0242703
0.0282088
0.0254491
5.05396
4.62005
0.0501253
3.13957
0.605875
0.0292426
0.0241748
0.383447
0.0226777
0.0233309
0.0286983
1.97566
0.454962
2.3412
1.12213
3.02935
0.0241335
6.61308
0.0343366
1.14735
2.98669
0.0242574
0.0251254
0.0290801
0.0237269
0.024927
0.0285397
2.97794
0.0242646
0.0332042
0.0229086
3.1558
0.0240846
2.82018
0.0242632
0.021665
2.75991
0.0584501
0.0256414
0.0270121
0.0234187
0.125446
0.115545
0.0233005
0.024272
0.0236008
0.0469942
0.0742981
0.0773844
2.29405
0.0265338
0.0281908
0.0246735
0.0246112
0.0342832
0.0244893
0.023699
0.0235591
0.0246846
0.0241024
0.0247224
1.14834
0.0248201
0.0241211
1.59045
0.0874083
0.0249544
0.0591008
0.593085
0.0256925
0.0256545
2.86817
0.0254704
1.73658
0.700847
0.0243366
0.028373
3.1185
0.0242401
0.0281063
0.100041
0.070711
0.0240221
2.1198
6.88946
0.0270589
0.026159
0.0630812
0.086894
0.0221346
0.0240315
0.0244341
0.0264736
2.92888
1.42099
1.52414
2.29699
2.8617
0.0282826
0.0273843
0.403061
0.0222691
0.033074
0.0459687
0.0302124
0.0229256
0.0463224
0.0234733
0.0247614
1.83959
1.80373
0.050081
1.1298
0.0254167
0.0263106
0.162187
1.84301
0.0813963
2.43944
0.0254881
0.170659
2.26712
0.0424238
0.0272738
0.281731
0.0303045
0.131372
0.0245639
0.0427503
0.029705
0.0580924
0.0246649
0.0761505
0.0270889
0.0239899
0.024832
1.28698
1.00755
0.0283657
0.0436008
0.838267
2.91752
0.0226611
0.0287589
0.032939
0.15836
0.0248354
0.0233614
0.0249621
0.0252669
1.66194
0.0269072
0.161343
0.0242091
0.0249469
2.0875
0.0244527
0.0246982
0.0430822
0.0278576
0.0246651
0.0244687
0.0257966
0.0433222
0.0344797
0.0299179
0.045259
0.0251843
0.0245099
0.0247978
0.0245652
0.54015
0.0261341
2.86818
0.0260952
0.0242619
0.0465001
0.024743
0.0268722
0.0257972
0.0244013
0.0246245
0.0246735
2.73273
0.0242696
0.0350855
0.0246904
2.89364
1.72983
2.2969
0.0247805
2.52249
0.0247602
0.0358679
0.0245063
0.0242733
1.77967
0.04271
0.0247754
0.0537186
3.61005
0.0271962
2.4394
0.0268647
1.32551
0.634406
0.0246974
0.0244648
0.02471
0.0485179
0.0238128
0.0236594
0.0242815
1.22912
0.179314
0.107961
0.0253875
0.0244581
0.942646
2.74282
1.43972
0.895006
1.10062
0.0238242
1.64889
0.0254752
0.0360981
1.06489
0.0231388
0.0247073
0.0267381
0.627523
0.17174
2.93002
0.0240403
0.026538
0.025162
0.0750126
2.73221
0.0288207
0.0501304
0.0256189
0.0329171
0.0292797
0.0232001
2.86527
2.50333
0.0264783
0.0267445
0.0269963
0.162572
2.61672
0.0271966
0.0239358
0.0245485
0.0239713
0.0245003
2.95841
0.082844
0.0239142
0.044286
0.0245499
0.024125
0.0250997
0.0241506
0.024553
4.45973
0.0427766
0.0422075
0.0239285
0.065965
0.0229682
0.0239814
0.023739
0.0236502
0.0228556
0.0248513
2.88983
0.0236555
0.695971
1.39361
0.0725862
0.0372939
0.0245877
1.84768
0.958868
0.024864
6.65013
0.0264874
0.261053
0.023822
0.138079
0.0433381
0.0240286
0.0259626
0.0257504
0.173135
0.0243695
0.0243592
0.0239295
0.0561006
0.0249525
0.0241173
0.0555063
0.0289199
0.0232849
0.0245449
0.283049
0.0243858
2.49799
0.0265742
0.0330034
0.0754937
2.35696
1.5093
0.024967
0.024653
0.0246674
0.0250032
2.57794
3.38294
0.0269715
0.0236837
0.97356
0.025835
0.0252545
0.0228595
0.0374469
0.0250439
0.116001
2.70053
0.0254942
0.166309
1.7001
0.0535971
0.0724128
0.0848184
1.77547
0.324769
0.0267327
0.579482
0.0257498
0.0406766
1.32198
0.0281154
0.0246798
0.0249563
1.41891
0.80659
1.12532
0.0264973
0.0243101
0.191556
0.0261296
5.75809
0.0229558
2.87173
0.104241
0.024037
0.0239691
2.01278
0.0285021
0.321246
0.0266563
0.0282123
0.0267962
0.148368
0.0244322
0.0288915
2.68947
4.85755
1.82098
2.15172
0.023997
0.316308
0.024102
0.0273392
0.0256134
0.415642
0.0227197
0.0414689
0.0244933
0.0248313
0.0578391
3.26249
2.50199
0.0270482
0.0657811
6.7038
0.0238868
0.0245499
0.024343
0.0250258
0.154068
0.0249815
0.0245313
2.01999
0.0246478
2.7029
3.05138
0.0550672
0.0230956
0.0225047
0.0348319
0.196881
0.0289941
0.0236579
0.0236404
0.0230745
0.048149
6.58644
0.154549
0.0244072
0.0360818
0.0239392
0.137845
2.38161
0.0564414
0.0246753
0.0471156
0.033758
0.0238292
0.0263925
0.0766757
0.0247711
3.16041
0.107324
0.0232988
0.681871
0.0517797
0.0248348
0.0241656
0.0234312
0.0245538
0.0255764
0.0229146
0.0246551
0.023998
0.028036
0.0245373
0.025076
0.0243458
1.69681
0.0260599
0.0233367
0.326166
0.156532
2.64197
0.0233238
0.0240836
0.0249055
0.0232015
0.023121
0.0247079
0.0806031
0.09516
0.0253543
0.0243369
0.0244491
0.0264629
0.044501
0.0251578
0.0233095
0.116071
0.0248343
0.0242979
0.15345
3.10633
2.94335
0.0312834
0.0243713
0.0311617
2.80875
0.0239522
0.0246984
0.0278618
0.0245616
3.47267
0.0255714
0.0245608
0.023308
0.0242885
0.733779
0.0240127
0.0232049
0.866776
0.0478372
2.63108
0.0230193
3.84075
0.023287
0.0284383
0.0242601
2.68859
0.0234457
0.0298803
0.0297041
0.0303654
0.0283447
0.0459042
0.0249452
3.14867
0.0288523
0.157302
0.0248262
0.0283977
2.4593
0.0291454
0.0503945
0.0239246
0.0239214
0.0256634
0.0324356
0.0360274
2.95119
2.84347
0.0240248
0.0230526
0.650909
0.0244136
0.144834
2.62591
1.90451
0.316408
1.23856
2.13055
0.0230151
0.682761
0.0336113
0.831727
0.0322511
0.0774497
1.38904
0.0249871
0.0231735
0.0238982
0.0244019
0.317953
1.69329
0.0331953
0.177109
0.0221721
0.0237113
0.0269596
0.271069
0.0241865
0.0276072
0.0239029
0.024349
0.0320819
3.92798
8.81635
0.0242987
0.0727897
0.0239312
0.0246347
0.0507484
0.0271892
0.0285088
1.48583
0.0224523
1.68547
0.0237921
0.0233949
0.0259569
0.0232438
2.81146
2.46245
0.0334
0.025153
0.0227762
0.0253136
0.0225143
0.0249918
0.0274222
0.0300804
0.131314
0.161088
0.0458428
0.0463191
0.0339481
2.0974
0.128014
0.0300601
0.0249329
0.0306472
0.0410094
1.27284
0.02798
0.0291858
0.0234002
0.0261026
0.0793435
0.0240636
0.110284
0.0247044
0.022551
0.0403511
2.36488
0.0247134
0.0253438
3.53338
0.092714
0.159347
0.0307562
0.0931917
0.302085
0.0270903
0.0243529
2.65764
0.0526173
0.023748
0.295869
0.0223259
2.70814
0.0299555
0.0285706
0.0255484
0.023011
0.653496
0.0263289
0.0561681
2.64496
0.0471564
1.78022
0.0589834
1.34726
13.4893
0.0244917
0.0244408
0.0243985
3.0862
2.83893
3.15287
3.0073
2.54699
3.31527
0.0244172
0.0248791
0.0239018
3.95935
5.38562
0.0273372
2.1206
0.0239335
3.6622
0.0246497
0.0251686
2.90606
0.0267742
0.0247903
0.15679
0.0280529
0.0263987
0.0252363
0.0265156
0.0618417
1.75914
0.024424
0.0238477
0.102222
0.87489
1.42049
0.0242789
0.0251599
0.0510246
0.0234312
0.0385662
1.88468
0.0321743
0.028714
0.0336194
0.023151
2.89976
0.023445
0.0475584
0.0246236
0.0261721
1.99673
0.100041
0.024549
0.0239723
0.0244052
0.0275593
0.046136
0.0221208
0.0242807
0.0264359
0.0328119
0.0287421
0.0249275
0.02567
0.183121
0.0231661
2.34821
0.0753564
0.0269318
0.0235783
0.0435814
0.0619769
0.0323266
12.5986
1.07798
0.0881885
3.06421
0.0246459
1.56664
0.0245678
0.336421
0.0237698
0.447592
0.0236415
2.75962
0.732677
0.0597026
0.0242524
3.36956
1.55683
5.19332
0.0246823
0.0657148
0.036197
2.41386
0.0447965
3.40762
0.0245077
0.0245468
0.033876
0.119055
2.12496
0.031758
0.0265827
0.591115
0.0446823
0.0267246
0.0267379
0.0240254
2.43049
0.0248899
0.0238124
0.0248011
0.452403
0.12913
0.0230483
1.54154
2.77876
0.0236713
0.0237475
0.0266799
0.024293
2.01282
0.0242837
0.154714
2.13393
0.0240428
0.0290938
1.93058
0.0498224
0.0245277
0.0242403
6.53313
0.0233793
0.0237657
0.0590601
3.1644
0.0258467
1.86046
0.0248975
3.28288
0.0269917
0.164303
0.0237978
0.0243915
3.10192
0.0350061
0.0244862
3.70773
0.184595
2.46087
0.573382
1.5569
0.283407
0.0266768
0.0268523
0.0238107
0.0241889
0.0234591
1.52192
1.92423
0.5904
0.0245768
0.15192
0.0956173
0.0249174
0.0243909
0.0241992
0.042414
2.3977
0.0252115
2.19499
0.0314613
0.0247439
0.0236997
0.0458669
2.12934
0.0304756
0.0259028
5.11191
0.610446
0.0854851
0.0318403
0.0264839
0.0243046
6.59506
0.0246498
1.79364
0.0234264
0.0241643
2.6703
0.023086
0.0418309
0.0712325
0.369631
0.0239021
0.0234396
2.30403
0.0249151
0.0242688
0.0246204
0.0353446
0.0268437
1.29015
0.0245633
0.0237367
0.0399865
0.868166
0.0246291
2.19816
0.0245636
0.0266685
0.0346458
1.49212
0.0243539
0.0239021
0.0260811
0.0242999
0.0411699
0.036452
0.0237258
0.0244674
2.74195
2.04169
0.0238946
0.023792
0.0221022
3.30786
0.0262253
0.0262042
2.1484
0.0977236
0.0243903
0.632125
0.0287853
0.0249839
0.0272698
0.0247447
0.0236082
0.0242289
0.0239352
0.0231297
0.0245366
0.0237823
0.0261038
0.0235536
0.0247046
0.0205378
0.0612147
0.0516103
0.0245344
2.2432
0.0246553
0.0291458
0.0249153
0.0245137
0.0461261
0.0684391
0.024312
0.023213
0.0262157
0.0401158
0.0246558
0.534887
2.23227
3.15796
0.783648
0.0230835
3.52828
2.11589
0.131921
0.0451998
1.91748
0.0265124
0.0249887
0.149544
0.0249025
0.0251117
0.0243479
0.0314643
0.0243337
0.0236124
2.19165
0.0447842
0.0432247
0.023747
0.0508683
0.0255193
0.0244156
0.0243815
0.0234497
0.0248504
0.0246249
0.0247211
0.0494171
3.11448
0.0233686
2.23609
3.92123
0.0245128
0.0242043
0.147507
1.45439
0.0242875
0.0244798
2.42273
0.0244287
0.0244227
0.0755996
0.0231297
0.0245365
0.0244374
0.0247669
1.09225
3.02723
0.0249998
0.0242202
0.0244199
0.023938
0.0225732
0.0240541
0.0243829
0.0250026
2.41601
1.75249
0.0247662
0.0447242
0.490649
0.02558
0.158373
0.0290216
0.024774
0.0239458
0.0237619
0.0232908
0.0255831
0.292961
0.0244959
0.0686836
5.5188
1.75619
2.98364
0.0243572
0.0289442
0.0278029
0.0862786
0.0290427
0.0259608
0.0267855
0.167028
0.0247344
0.0262729
0.0957457
0.764602
0.0466334
0.0271845
0.0241968
2.48472
2.90564
3.51551
0.0245184
0.0240305
0.0234339
21.6134
1.54023
0.0224748
0.0363665
0.109791
0.832385
0.0348018
0.0256866
0.0882911
0.0237288
0.0232587
0.0246341
0.0269051
1.98323
0.0234243
0.0289073
0.0240202
0.131416
5.1179
0.0682694
2.38743
0.580268
2.00364
1.84632
0.0254905
0.0352919
0.0244999
3.05939
0.0243451
0.392261
0.0293531
0.622391
0.0543182
0.582573
0.716205
0.030524
0.024002
2.09735
2.24477
0.0242484
2.26846
0.0270048
0.0244081
0.0288002
2.74343
0.0239717
0.0223452
0.0245207
0.024518
3.04165
0.0410526
0.0243395
0.0261877
0.0300318
0.19103
0.0320697
0.0739146
1.08948
0.0749252
0.0445867
0.169787
2.08257
0.0337857
1.60295
0.373874
1.90604
0.0930472
0.316378
0.0239183
0.0477566
0.0238678
2.57636
2.64998
0.0246327
0.0270756
0.0515992
2.74424
0.0471424
1.78908
0.0255045
0.0226197
0.0239512
2.97301
0.0267587
0.0445865
2.39822
0.0230611
0.0231237
0.0259775
3.63759
2.63567
0.0243494
0.0236241
0.0240006
2.17314
0.0236265
4.63137
1.95448
0.0230964
0.0262224
0.0285481
0.0230843
0.0482453
0.0245527
0.263515
0.109519
0.0247297
0.0235398
0.0228086
2.2685
0.0259275
0.0546577
3.11346
1.99052
0.0261351
2.87937
0.987493
1.65596
0.113653
0.0265142
0.0244752
2.11851
0.0425515
0.0245148
0.0216139
2.39909
0.0440698
0.0245612
0.0508509
0.0226681
0.024485
0.0251332
0.023112
2.61257
0.0651723
0.044875
0.0565205
0.0906488
0.0275496
0.0255397
1.20409
2.70344
7.56812
3.97164
0.0251263
0.0248496
1.29857
0.0228872
8.895
0.0247157
0.0233886
0.0451536
0.0618061
0.043698
0.0650007
5.30511
0.0227774
0.0443486
0.0432991
0.614546
5.12231
2.08285
1.59106
0.0240593
1.55139
0.0300544
0.0249154
0.217247
0.0230553
0.0266606
1.93123
0.0286337
0.032488
0.375549
3.67647
0.572604
0.0605257
2.11961
0.168901
0.0254352
0.0239181
2.43949
0.0257365
1.87667
2.1587
4.22903
0.0242603
0.0244829
0.0229597
0.0704385
0.0221819
0.0244057
0.0232231
2.3073
0.0256538
0.0245386
1.49851
0.0237764
12.7593
0.0410846
0.0287384
1.41329
4.21265
0.0732358
0.155461
0.0291529
0.0943943
1.62548
0.0242549
2.24079
0.0519341
0.024516
2.99263
0.0293252
2.78275
0.0239552
0.024652
0.0231685
0.0241775
0.870278
0.0243967
0.0242552
0.161455
0.0242728
0.0239624
0.586368
1.53177
3.76177
0.0245016
0.0242237
2.83439
0.0229633
0.0825511
0.0242487
1.77616
0.0736616
2.46228
0.114054
0.0474447
0.023991
0.0238926
0.164889
0.0549262
1.08681
0.0815202
0.080981
0.201927
0.0240628
2.1417
0.16168
2.48214
0.461375
0.0341092
2.71853
0.111137
0.885927
0.0525129
0.0248368
1.14398
4.11127
0.0512655
0.0260389
1.24337
0.0236986
2.62123
0.0239308
2.28773
0.0230288
1.05978
0.028584
0.023558
0.0235028
2.57413
6.93836
1.91415
0.0242637
0.0242474
0.0499459
0.0243667
0.0246123
0.0272221
2.68285
0.0497773
0.0231393
0.0244405
2.29344
0.0258185
0.109917
0.0244376
0.0248246
2.7355
1.6513
2.48145
0.023653
2.34348
0.0240246
0.0489318
0.0243439
0.0270627
0.129221
0.0242281
2.7889
0.0257873
0.621791
0.16903
0.0245769
0.0243334
0.0285361
0.0278555
2.38689
1.55867
0.0289322
0.249795
0.0231474
2.84855
1.31398
0.0245627
0.129121
0.0227592
0.529805
0.112451
2.80882
0.0248498
2.45125
0.027666
0.0242359
0.0247591
0.0783548
0.024638
0.0244556
2.57896
0.0296618
3.72325
2.59019
0.0287085
0.0234947
0.0278306
2.64579
2.50651
0.0247204
0.0527075
0.158989
0.0248028
0.162283
0.0245561
0.0749969
0.0268406
0.0256072
0.0431426
0.499409
0.0339706
0.0247314
0.835298
0.0939465
0.0252763
0.0246778
0.0251591
0.0239337
2.75759
0.0246229
0.0269499
3.25219
0.0265734
1.36409
0.0235374
0.346707
0.0250541
1.3255
0.0423057
0.0287547
0.104396
0.0221448
0.0221268
1.85373
0.0254119
1.10461
0.0231568
0.0636567
0.0462863
0.0244066
0.0980027
0.0330055
5.88839
0.0285648
2.37783
0.127088
0.0236295
0.0245694
2.1293
0.0878887
0.0221767
0.0245822
0.0324411
0.0253372
2.90586
0.0243336
0.466982
0.0244874
1.69808
0.191002
0.060404
0.0476916
0.0248782
2.75577
0.0237501
0.711295
0.0598209
2.00459
0.0634362
2.73145
0.0243797
0.0245401
0.107157
0.551085
0.0242744
2.74806
0.0235705
0.172893
0.0517373
2.7341
0.0247766
0.0335055
0.059592
0.0294683
0.0483332
0.0238054
0.0247696
0.062127
0.0732998
0.0862255
0.024804
3.2646
2.25484
3.27795
0.0252561
2.78734
0.187025
0.166514
0.0236537
0.02474
0.024841
0.0283272
2.59732
0.0269997
2.77691
0.024664
2.43253
0.11064
0.0247802
0.10427
0.0248836
2.70199
0.725623
11.9727
0.0340509
0.025188
0.0285011
0.165221
0.0454227
0.0228784
1.76859
3.45575
0.0249901
3.15984
0.180514
0.204656
1.08923
0.0247026
0.94254
3.07064
0.025398
0.0453652
0.0347777
2.91573
5.14007
3.88965
2.57265
0.0282539
0.0393724
3.01935
0.0245458
0.0253502
0.0330982
3.43202
0.0252463
3.7023
0.0249746
1.88799
0.0239779
0.0968103
0.0259358
0.0237793
0.0246853
0.0259678
2.84805
0.029496
2.71558
0.167526
0.0248222
0.0248315
0.101159
0.163346
0.0246499
2.73932
0.0415862
0.255617
0.0917381
0.0292529
2.60931
0.0257448
0.0316119
0.0246346
0.056085
0.0473659
0.0247047
0.0557743
0.0261395
0.158702
0.0251883
0.110066
0.119723
0.0288108
0.174387
0.348774
0.0256811
0.0332714
0.0255238
3.17173
0.0252658
2.13624
0.0247063
0.0327019
0.025199
3.73133
0.0234165
0.0427454
0.0237649
0.022633
2.24742
0.0255345
0.239443
2.58401
0.133294
2.65009
0.0246536
0.023122
0.0254047
2.06604
0.0242767
0.0249721
0.0257446
0.0262058
0.023893
2.85555
0.069772
0.0240365
2.68636
0.02548
0.0277938
2.65596
0.03861
1.47441
0.0245399
0.0290207
0.048726
0.0261704
2.10301
2.98291
4.863
0.024393
1.90482
0.053907
2.56142
0.0254037
0.0695808
0.0547505
0.024766
0.0231483
0.0247385
0.587197
0.0328021
0.0693917
2.65754
2.86647
0.0506174
0.0515145
0.0496128
0.0835726
0.023511
1.77383
0.200554
0.0590081
1.11295
0.0242319
0.0278939
0.0240721
0.146776
0.0293282
0.0278979
0.0351044
0.0252942
0.0705151
0.0275778
0.168855
0.0245352
0.0296399
0.024791
2.9672
0.027763
0.0239752
2.31815
0.073566
0.0261635
0.0240028
0.0248363
0.0243624
0.0247579
0.108325
3.14749
0.024754
0.0372599
0.045669
0.0247728
0.0248791
3.44642
0.0611055
0.0486093
3.02635
2.6805
0.106227
0.0243933
2.72238
0.0337241
0.0602537
0.156602
0.0325572
0.170532
2.58861
0.0258806
4.60333
0.0740406
0.0694336
0.0727307
0.0520273
0.299748
0.0748583
0.448439
8.22572
1.43805
0.391962
0.661382
0.027838
1.176
1.43775
0.026851
0.0529453
0.0276821
0.0244519
0.0241616
0.0248228
2.77176
3.10001
0.0252298
2.61092
3.89601
0.028002
2.97447
0.665241
2.84275
3.0398
0.0350984
0.0251057
0.023914
2.92586
0.153996
0.0240379
2.86808
3.10113
0.0441448
3.29625
0.0683302
0.0242781
3.08534
0.0248612
3.56637
0.0249058
2.6529
2.08412
0.034358
2.40939
0.023652
0.0754753
0.0256978
0.0353326
0.15978
0.0247892
0.0248489
0.188352
2.58631
0.216095
0.0235617
0.0279609
0.0360457
0.0498945
0.0251577
0.184881
2.25044
0.0269268
0.0256539
0.0460217
1.7182
0.024525
0.0252381
0.0245357
0.0277162
2.93451
0.0323105
0.0591943
0.162965
0.025428
0.024525
2.65108
2.18241
0.0248252
4.01009
0.40245
0.0366592
0.227132
0.913276
1.5728
1.83906
0.0319779
2.83472
6.19126
0.169254
0.026786
2.62746
0.0244109
0.0245
0.177044
0.0329561
0.045645
0.0981097
0.0258446
0.0238391
0.0247622
0.0247772
0.0246154
0.0422447
0.18187
0.02384
0.023132
0.037552
0.1639
0.0237453
0.0247984
0.0279169
2.73037
0.0437578
0.0238654
2.33215
1.62036
0.032561
1.89692
0.0230423
0.1468
0.0224209
0.438483
0.0988589
0.0323251
1.50796
0.0244284
0.0278596
0.0384369
0.353884
0.0324357
0.0320959
0.052157
0.028357
0.0230693
0.0255842
0.0245258
0.0246856
0.0243709
0.0443184