/*--------------------------------*- C++ -*----------------------------------*\
| =========                 |                                                 |
| \\      /  F ield         | OpenFOAM: The Open Source CFD Toolbox           |
|  \\    /   O peration     | Version:  v2012                                 |
|   \\  /    A nd           | Website:  www.openfoam.com                      |
|    \\/     M anipulation  |                                                 |
\*---------------------------------------------------------------------------*/
FoamFile
{
    version     2.0;
    format      ascii;
    class       volScalarField;
    location    "400";
    object      p;
}
// * * * * * * * * * * * * * * * * * * * * * * * * * * * * * * * * * * * * * //

dimensions      [0 2 -2 0 0 0 0];


internalField   nonuniform List<scalar> 
15335
(
-0.0291361
-0.025223
-0.00667674
0.00165511
-0.0143671
0.00268409
-0.0330958
0.00160492
0.000479717
0.000449165
-0.00867352
0.00191782
0.00971889
-0.0123267
-0.0221219
2.0696e-05
-0.0267813
-0.0378302
0.00122677
-0.0190546
0.000479309
-0.0271292
-0.0192711
0.0004637
-0.00527954
-0.0236244
-0.0340877
0.00136062
-0.0230989
0.0018735
0.000848257
-0.0319707
0.000464411
0.00581974
-0.0312889
-0.0291459
0.000619564
0.00582371
-0.0129209
-0.0365552
0.0014893
-0.0296497
0.000453528
0.0080929
7.44117e-05
0.00132814
-0.0162621
6.46612e-05
-0.0243489
0.00182799
0.000477567
0.00078852
-0.00204738
0.00456874
-0.0808753
0.00038493
-0.00896784
0.0015636
0.0060161
-0.0424794
-0.025556
2.85754e-05
-0.00190641
0.00422346
-0.0140349
-0.0356473
-5.71124e-05
-0.00104374
-0.00966977
0.000342614
0.00179853
-0.0190376
-0.00279762
7.42657e-05
0.00194647
0.0135216
-0.0265368
0.00026368
0.00108543
-0.0288115
-0.0251322
-0.0208779
-0.0211026
-0.0238392
-0.00486535
-0.0760416
0.0042584
-0.0335137
0.00244436
0.0044976
-0.024238
0.0102143
0.000204672
-0.0307489
-0.0186938
-0.0240999
0.000411713
-0.0363672
0.000825476
-0.0354201
0.000417794
0.00502829
-0.0256057
1.25613e-05
0.000521405
0.000385517
-0.0799576
0.00390101
0.00257196
-0.0147474
0.000490404
0.00715798
0.00160466
0.00120126
0.00149805
0.00123204
-0.0291357
0.000996547
-0.0262846
-0.0309634
0.00482414
-0.0334475
-0.083076
0.00118531
-0.0308488
0.0011961
0.000790335
-0.0287401
-0.031079
0.00249026
0.00112679
-0.0339483
0.000822385
-0.0283942
0.000652185
0.00048928
0.00340317
0.000351318
-0.0149674
0.00557984
-0.00762114
-0.00730127
0.00170773
-0.0228829
-0.0848341
-0.00821731
0.00766778
0.00186419
-0.00642662
0.0089769
0.000500829
-0.0296048
1.91971e-05
-0.0178846
-0.0653849
0.00317344
-0.02344
0.00380084
0.00100161
-0.00423829
0.00220601
0.00334203
-0.00257607
0.00657392
0.00176577
0.0016897
0.000940551
-0.0335993
0.000519082
0.00188691
-0.0130802
0.00231862
-0.00839321
0.00321413
0.00433897
-0.00504229
-0.0237985
0.000535255
-0.0245358
-0.0387607
-0.00791367
0.00100449
0.00149166
-0.0144591
-0.0143003
-0.0409342
-0.0236879
0.000712934
0.00235973
-0.0797724
0.000107234
-0.0401518
-0.0244369
0.00145592
-0.00575797
-0.0259874
-0.00809952
2.02056e-05
-0.0153071
-0.0414474
2.53551e-05
0.00447705
0.00110263
0.00951163
-0.0360533
0.00242817
-0.000544321
0.000976605
-0.0324693
-0.0315919
-0.0271559
0.00471159
0.00147489
0.0033897
-0.0273689
0.00350352
0.00174275
-0.0240761
0.00126437
0.000222252
-0.00501994
0.00772274
-0.0583333
-0.0242801
0.00185708
-0.0720619
-0.0234131
0.00135977
-0.0324559
-0.0253594
0.0017371
-0.0410205
-0.0664989
-0.0207385
-0.00388397
-0.00754648
0.00273974
0.0124428
-0.0302491
0.00152986
0.00864088
-0.00209821
0.00658136
-0.0134396
-0.0298819
-0.0148479
-0.000664599
0.00378347
-0.0574072
-0.0300793
-0.0176433
0.000467267
-0.0363164
0.00190822
0.000565871
-0.0295828
0.00175024
0.000891608
-0.0594725
0.000571425
-0.0233499
-0.0347088
-0.0304232
-0.0414533
-0.0837396
-0.0519078
-0.0662371
0.00070947
-0.0277577
-0.00853027
-0.0327153
2.39493e-05
-0.02606
0.000636146
-0.00377293
-0.0682363
-0.0873646
0.00359902
-0.00551897
-0.034649
0.00140178
0.000428102
-0.00215995
-0.00624606
-0.0334413
-0.00614346
-0.00479407
0.00171491
-0.0408405
-0.018207
-0.0359242
-0.0119287
0.000924674
0.00235018
-0.0382218
-0.0183431
-0.0130687
0.000960654
-0.0082706
-0.00192295
0.00106086
-0.0212145
0.00788222
0.000989829
-0.0387494
0.00141293
0.00139152
0.00221133
-0.053233
-0.0227966
-0.0816874
-0.0146428
0.00505102
-0.0255542
0.00128857
0.00181467
0.00041031
0.000462322
-0.0083753
0.00151776
-0.00155422
0.00171587
0.0142025
-0.062677
-0.0184549
-0.0820048
-0.0357792
0.00046593
0.000349604
0.000323654
0.00140721
0.014502
-0.0346994
0.00479194
-0.0225541
0.000383093
0.00318567
-0.017285
-0.0124479
-0.0312488
-0.00852653
-0.0277906
-0.0319406
-0.00901477
0.000202616
-0.0300565
-0.015647
-0.0574653
-0.0134287
-0.0154323
0.00962503
0.000412026
0.00155815
-0.0052057
0.00639069
-0.0141883
0.00198104
0.000351234
0.00181368
0.00611253
0.00190453
0.00141721
-0.0172757
0.00209354
0.000153875
0.00172805
-0.00835761
-0.00868962
-0.0246731
0.000923284
0.00199001
0.000649897
-0.0202953
0.00169449
0.000776771
0.00124467
-1.37843e-05
1.41936e-05
-0.000175795
0.00969744
-0.0598144
-0.030709
0.00234583
0.00678265
-0.0739372
-0.00913966
0.00146908
-0.0495354
0.00267048
0.00227362
-0.0105393
0.00598092
0.000814087
-0.01524
0.0127727
0.00307012
-0.00451256
1.61598e-05
0.00175661
-0.0482545
-0.0223793
-0.000211973
-0.00141459
0.000537586
0.000356399
-0.0287759
0.000676362
-0.00806162
-0.00759521
-0.0042817
0.000515443
-0.0034719
0.00183893
-0.0130362
-0.0215932
0.00120575
0.00101265
-0.0150503
0.00303612
0.00169526
-0.0249922
0.00206386
-0.0300894
-2.82922e-05
-0.00439925
0.0115641
0.00121791
0.00300441
0.00116563
-0.0302179
-0.0234741
0.00165613
3.27808e-05
0.000453571
2.01983e-05
0.000647846
-0.0285468
-0.0247059
0.00208454
-0.023144
0.000425286
0.00118718
0.0012253
-0.0672438
-0.0145327
-0.0648249
-0.0202226
-0.000978103
-0.0181753
5.89356e-05
0.00251422
-0.0272853
0.00137917
-0.0279136
0.0012119
0.003779
-0.0217869
-0.0301339
0.00161762
-0.00646215
0.00385368
-0.0161107
0.00165559
-0.0115808
-0.0250529
-0.000348357
0.00214889
-0.0261509
-0.0144905
-0.0126633
0.00221779
-0.0284122
-0.0149413
-0.0509685
0.00037442
0.00223789
0.000345248
-0.0070222
-0.027838
-0.00403396
0.0039526
-0.000490511
0.00114018
0.00170255
0.00177057
-0.058369
0.00222961
0.00101872
0.00106802
0.00369783
0.000399694
0.000149521
0.000705944
7.92348e-06
-0.0283676
-0.0345593
-0.0235314
-0.0213356
-0.022855
-0.0311798
0.00174737
-0.0301728
-0.000979226
-0.0289203
0.000363214
-0.01697
-0.02122
-0.025471
0.00183515
0.00168489
0.00255604
0.00514631
-0.0514673
-0.0331436
6.96381e-05
0.000468115
-0.00390756
0.000380197
-0.0293168
-0.0575844
-0.0405932
-0.0772949
-0.0143566
0.000754216
-0.00116799
0.00175271
-0.0508124
0.00204389
0.000899774
0.00334257
-0.00837685
-0.0299249
-0.0227276
0.00170897
-0.0320275
-0.00799158
-0.00296462
0.00186091
0.000438185
-0.00679379
0.00504333
-0.0246774
0.00119829
-0.0439104
5.83115e-06
-0.0595608
-0.0318782
-0.0083459
-0.0271435
-0.0208695
-0.023007
0.00203745
0.000385514
0.000781126
-0.0351108
-0.0453691
0.00182454
0.00274644
-0.00151524
-0.0550835
-0.0192984
0.00035612
-0.0223403
-0.000627994
0.00592406
-0.00734391
-0.0207128
-0.0158035
-0.0268341
-0.0455298
-0.066358
0.00103271
0.00109452
-0.0291312
-0.00341124
0.00107526
0.00201482
0.00174187
-0.00238722
-0.0458137
-0.0590556
-0.0624177
-0.0238864
0.00505307
-0.0228982
-0.0831557
-0.0286645
-0.0392786
-0.0201146
0.000970876
0.00115189
0.00328791
-0.0227618
0.00214172
0.00183505
-0.0636171
0.00418213
-0.0530249
0.00219866
-0.0369312
-0.0146419
-0.0211599
-0.0329505
-0.0546489
0.00470961
0.00142746
-0.0140498
0.00354774
0.0183082
-0.0232461
0.0171921
-1.38894e-05
-0.0383742
0.00133693
-0.00753808
0.000117313
-0.0287237
-0.0236579
-0.0133194
0.000689846
0.000581152
0.00145093
-0.000912781
-0.00926685
-0.0336214
0.00111171
0.000582671
3.05494e-05
0.000802306
-0.00739646
0.00360127
-0.0343827
0.00135073
-0.0148366
-0.0272941
-0.0387438
-0.0406825
-0.00217378
0.000736858
-0.0213382
-0.0271054
0.000506713
0.00186876
-0.00953731
-0.00116454
-0.00128073
-0.022468
0.000446434
0.00137424
-0.0234576
0.0188063
-0.00134585
0.00102267
0.0021504
-0.0349151
0.000168504
-0.0362251
-0.00343125
-0.0094673
-0.00329758
0.00253643
-0.0215424
-0.032133
0.00655234
0.0007376
-0.0268136
-0.00991061
-0.0061712
0.000174181
0.00289193
0.00170845
-0.014348
-0.0185377
0.00184644
-0.0285024
0.00083814
0.00237546
0.000904361
0.0013592
0.00178518
0.00224118
0.000124754
0.000385096
0.000492
-0.000897734
-0.0207905
-0.0160182
0.00219066
-0.00590005
0.000881793
0.00856508
-0.0116008
0.00138729
-0.00504538
0.000756405
-0.0325799
0.0095928
-0.00427982
0.0017856
-0.0790136
0.00129561
-0.0290803
-0.0355069
0.00176039
0.000424132
-0.0430504
0.00343822
-0.00727751
-0.0204687
0.00249421
0.00160099
0.0025752
0.00198389
0.0029548
0.00161653
-0.0241346
0.00967353
-0.0283488
-0.017295
0.00288234
0.000459604
0.00231415
-0.00381465
0.00375662
0.000201006
-0.0208221
-0.000299576
-0.0416151
-0.0102664
-0.0336656
-0.0225955
-0.025422
0.00307318
0.00102755
0.00138938
-0.0103263
0.000522901
0.00173644
0.00101952
0.0021386
0.00215616
0.000652367
-0.0436269
-0.0226388
0.00108517
-0.0253509
-4.05932e-05
-0.0401324
-0.019692
-0.0322673
0.00170981
-0.0244295
-0.00466075
0.00367862
-0.00450779
2.53175e-05
-0.0549695
0.00103645
-0.023977
-0.0333123
0.000519523
-0.026745
0.00223828
-0.0374515
0.000505063
-0.0350615
0.000268714
0.000643711
-0.0187683
0.0108242
-0.0252456
0.000259414
0.00320553
-0.0291592
0.00356585
-0.0172183
0.00409904
-0.025947
0.00071789
0.00198932
-0.034238
-0.00157454
0.00102962
-0.0073639
-0.0216291
0.00470564
0.000175886
-0.0284874
-0.0216389
0.00047755
0.0132007
-0.000175802
0.00328271
0.00833329
-0.00593513
-0.0398404
0.00536695
0.000204619
-0.0393704
-0.00640796
-0.0288888
-0.0209634
0.00285269
0.00115716
0.00104446
-0.00637899
-0.00792044
-0.0109171
0.00159801
6.88615e-05
-0.0223944
0.00237268
-0.000506209
-0.00498727
-0.00089928
-0.024355
0.00135606
0.00176583
-0.00361217
-0.0255205
-0.00370597
0.00115522
0.00396088
-0.0209296
0.00202927
0.00180718
0.0013362
-0.0173974
-0.056242
-0.0147436
-0.0278904
4.45453e-05
0.000288199
0.00033888
0.00749701
0.000861175
0.000975816
0.00128015
0.00060511
-0.00351277
-0.028494
0.00279985
-0.0213353
0.000969531
-0.000683654
0.00164835
1.66634e-05
-0.0298735
0.00386894
1.22453e-05
0.00134814
0.0017223
0.000687831
-0.0187146
-0.0113996
-5.33005e-05
0.00180447
0.0200002
0.0027198
-0.0355382
0.0014519
0.00300052
2.76437e-06
0.00068611
0.000233429
-0.000931051
-0.0296699
-0.0315699
0.00210658
-0.0163985
-0.013987
-0.026536
-0.00731973
0.00297581
-0.0332118
0.000711737
0.00335209
0.0039355
0.00140782
0.000181875
0.00387272
0.0010481
-0.0136351
0.000320303
-0.00549586
-0.00139528
0.00314859
0.00136761
-0.0355252
0.00513698
0.00375116
-0.0267984
-0.000135858
0.000252062
2.81321e-05
-0.0140155
-0.0335841
0.00112668
-0.0458487
0.000455735
0.0016759
0.00396358
0.00243194
0.000207454
-0.0114564
-0.0107249
-0.0254927
0.00271979
-0.0412584
0.00291229
-0.0200199
0.000258761
-0.0524041
-0.00263276
0.00192012
0.000981369
-0.0270035
0.00152925
-0.0124143
0.00101078
0.00229036
0.00130568
0.000464572
0.00212875
-0.0592149
0.00270381
-0.0520485
-0.0397932
-0.0211578
0.00225199
-0.000178058
-0.0262825
-0.0292914
-0.023109
0.000317927
0.000742492
0.00128589
-0.0223223
0.000628549
0.00086669
-0.0283834
-0.0168679
-0.0347565
0.000794512
-0.0570077
0.00336004
-0.0289553
-0.0342777
-0.021445
0.00100986
-0.0281117
-0.0152158
0.000748518
-0.0535313
-0.0113996
-0.00822417
0.00185214
-0.0514382
0.000285051
-0.0379571
-0.000734219
-0.0292205
0.0076605
0.00674426
-0.0276389
0.00400197
-0.0258581
-0.0227719
0.000297476
-0.0285097
0.0014627
-0.00750448
0.000266913
-0.0183995
-0.0326117
-0.0449242
0.000217906
-0.0245273
-0.0265561
0.000276755
0.0118123
0.000927051
-1.78073e-05
-0.030115
-0.0790199
0.00120236
0.00261032
-0.0273342
-0.0240592
0.000619843
0.00176312
-0.0167941
0.00214547
0.00730605
0.00122252
0.00163683
0.000223818
0.00383415
-0.00628872
0.0018739
0.0094702
0.00332807
-0.00493479
-0.0278702
0.00163631
-0.0599605
0.00162005
-0.00768074
-0.0350566
0.00174234
0.00198169
-0.00231445
2.73469e-05
0.00178484
0.00567656
0.00027399
0.000136366
0.00184883
0.00167184
-0.0208833
0.00108458
0.00128978
0.00274593
-0.0102058
-0.042138
0.000644699
0.00178356
-0.0309781
-0.0334576
0.000627822
-0.0352875
-0.00300644
0.00964152
-0.0279273
-0.0620279
0.000985208
-0.0037351
0.0140925
0.00131497
-0.0386809
-0.000553941
-0.0156635
0.00260822
-0.0217459
-9.80074e-05
0.00222275
-0.0178431
0.000225113
-0.0812853
0.00856207
0.000295786
-0.00461626
0.000523352
0.000913474
-0.00428039
-0.0229084
-0.0249481
2.51757e-06
0.00164199
-0.0102414
0.00159485
0.00185318
-0.00646579
0.00125409
0.00897136
0.0146193
0.00225762
0.00204929
0.00262972
0.00011862
-0.00956961
0.00123911
-0.0220757
0.00391586
-0.0278978
-0.0397713
-0.0259854
0.000808741
0.00158264
-0.0512771
-0.000407528
-0.000574844
-0.0590605
-0.0792013
-0.0106569
-0.00556838
0.000873913
-0.00140811
0.00086151
-0.0246939
0.00205726
-0.0280669
-0.031894
-0.0262668
0.000772748
-0.0549116
-0.0788371
0.00170974
-0.0154796
0.00189177
0.00227828
0.00018673
0.00243595
0.000591635
-0.0252296
-0.00685424
-0.00387534
0.00585738
0.00174198
-0.060746
0.00133836
0.00183456
0.000191475
-0.00851575
0.00612586
-0.00736776
0.0022671
-0.000711311
-0.0277191
0.000440385
-0.00450051
0.00259073
-0.00143572
0.00539441
0.0110987
0.00177579
0.00350935
-0.0529378
-0.027073
0.00143862
2.09242e-05
0.000305788
0.00136228
-0.00666611
0.000899539
0.00184713
0.000292228
-0.00102195
-0.0136808
-0.0226311
0.000293572
0.00695819
0.00320655
-0.00170226
-0.00976371
-0.027745
0.00903813
-0.000486897
-0.0305469
0.00040889
-0.0313535
0.00731024
0.00925423
-0.0354546
-0.0244951
-0.00744176
-0.0308657
-0.0106275
-0.0313668
-0.0238097
-0.0543658
0.000607819
0.000230288
0.00935198
-0.00529347
0.000391561
-0.0235524
-0.0293151
0.00574315
0.00791887
-0.00191274
0.000369733
-0.0109369
0.00208724
-0.000652987
0.000158279
0.000298185
0.0028399
-0.0185925
2.53196e-05
0.00120907
-0.00596976
0.00148475
-0.0229008
-0.00595151
0.00232308
0.000161287
-0.00666368
-0.000879021
-0.00236119
0.00281728
0.000198079
-0.01061
0.00156299
-0.0241566
-0.0130438
-0.0520319
0.000961275
-0.0337797
0.00119331
-0.0261619
0.00112898
0.010252
0.000863509
0.000242845
0.000630126
0.000694697
0.0024892
-0.00607828
-0.0803504
-0.0348149
-0.0528264
-0.0220568
-0.0254448
-0.0458599
-0.00060563
-0.00658087
-7.65789e-05
-0.0534973
0.000472697
-0.000565939
0.00172755
-0.00282633
-0.0008233
-0.0295334
-0.030246
-0.021799
-0.0419918
0.0051145
-0.0184898
-0.0258121
-0.0369716
0.00442207
0.00187438
-0.037601
-0.000708185
1.58177e-05
0.000208421
-0.000156056
-0.000598071
0.000447583
-0.0263224
0.00199041
0.00669422
-0.013211
0.0135949
4.95235e-05
-0.0174458
-0.0223788
-0.059109
-0.06689
-0.0207815
0.0018198
-0.0262178
0.000315321
0.000168612
0.00540873
0.0028811
-0.0282217
-0.0222335
-0.00485295
-0.0270649
-0.0475238
0.000888001
0.00175823
-0.0143828
-0.0764958
-0.0196933
0.000437446
0.000159206
-0.0596368
0.00364508
0.00300896
0.000507982
-0.0282744
0.000259971
-0.0318035
0.0100242
-0.00197281
0.00188752
0.0011325
-0.0160118
-0.013758
-0.022869
0.00148823
0.00106615
-0.0242571
-0.0134017
-0.0260018
0.00360456
-0.00760128
0.000473018
-0.0523768
0.00793098
-0.0254254
0.00199795
-0.0291186
-0.0465748
-0.0108221
-0.0103528
-0.0895091
0.00017699
0.000283212
0.00676897
-0.0299201
0.00110453
0.00202791
-0.0194362
-0.0231252
0.00168326
0.000479815
-0.000766872
0.00314255
-0.0332703
0.000146771
-0.0616018
0.0118578
0.00193163
-0.00459125
0.00204736
0.000860026
0.0011464
0.00172722
-0.0231647
0.00116202
-0.00916869
-0.0249716
-0.0477628
2.36904e-05
0.000105993
0.00115253
0.00086518
0.00172264
0.0018112
0.00168457
0.00121615
-0.00487337
-0.0715647
-0.078027
-0.0272457
-0.0631749
0.00921191
0.00331239
0.00288689
-0.0160142
0.000150148
0.00105478
-0.0164008
-0.00466454
-0.0467073
0.0109542
0.0104577
-0.0223472
0.00282976
-0.0512854
-0.0147887
-0.0493972
-0.0261762
0.0010005
0.000266813
-0.0180567
0.00213472
-0.00645443
0.000241062
-0.0267904
0.00173934
-0.0206169
0.000499202
-0.0454974
0.00160833
-0.0322338
0.000867748
6.32871e-05
-0.0341262
-0.0243839
0.00170217
-0.00151599
0.000108511
-0.0395313
-0.0354961
0.00101916
0.00115979
0.000276068
-0.0263458
0.00992642
-0.0258388
-0.0643878
-0.0111261
-0.017153
-0.000970264
0.00314745
-0.0073952
-0.000683177
0.00208812
0.000223154
-0.00169674
0.00154296
0.000703994
-0.0469078
-0.00548312
0.00177886
-0.0383398
0.000652894
-0.00604704
-0.00531116
0.00194828
0.00190646
0.00356794
-0.0302209
-0.0102599
-0.0523051
0.00336119
0.000158842
-0.0171081
-0.0456142
0.00196748
0.00124613
-0.0366554
-0.0246817
0.00192447
-0.0558052
-0.0306558
0.00480531
-0.00859851
-0.00525128
0.000754265
1.59403e-05
0.00188184
-0.000775633
-0.0130848
-0.0252171
0.0155972
0.00844942
-0.062694
-0.0628438
0.00105673
0.00235657
-0.0182719
2.74939e-05
-0.0148328
-0.0263993
-0.0189285
0.000485325
-0.0259568
0.000232042
0.00215166
-0.0518993
-0.0154748
0.00882524
0.0116318
-0.00258684
-0.0138111
-0.0247045
-0.0191171
-5.54026e-05
-0.0673481
-0.00252815
-0.00124536
-0.0634394
-0.0252283
0.000497658
-0.00762008
-0.0191289
-0.0351067
0.00113992
-0.0238289
-0.0176254
-0.0115717
-0.00362819
0.000394515
0.0029593
0.00173038
0.00190897
-0.0520444
-0.0286437
-0.00552683
-0.025545
0.00492304
-0.0282145
0.000367568
0.00166725
-0.00850267
0.0124994
-0.0035937
0.00120987
-0.00653997
-0.00960995
0.00090453
-0.0118369
-0.0288226
0.00280403
0.00377885
-0.0525881
0.00117652
-0.0024609
-0.0236531
-0.00593451
-0.00364662
-0.00101363
-0.0123181
-0.0255405
0.000109026
-0.0187694
-0.0168779
0.000948666
0.00199458
-0.000297566
0.00310475
-0.045859
-0.00879025
-0.0281968
-0.012624
0.00279016
-0.0222525
-0.00449015
-0.014098
-0.00706859
0.002325
0.000455238
-0.00151893
-0.0342549
0.00100923
-0.0151943
0.00123355
0.00217561
-0.0162233
0.0126162
-0.004241
-0.0231902
0.00221823
-0.0190968
0.00315868
0.00108925
-0.00618196
-0.025268
0.00210295
-0.0228677
-0.0213543
0.0049455
-0.05421
0.00346206
-0.038793
0.00239495
-0.00388116
0.00178537
-0.00211188
0.00846924
0.00206489
0.00199888
0.00144812
0.00968166
0.000607837
-0.038599
-0.00988535
0.00161873
-0.0517311
-0.0348
0.0146331
0.00711256
0.00535544
0.000338347
-0.0528115
0.00135779
0.00477452
-0.0337674
0.000604191
-0.00409703
0.00289189
0.00193303
-0.000274204
-0.0256206
0.00171753
0.00439068
0.00151288
0.00965352
-0.0342414
-0.00404579
-0.000762918
0.0013776
0.00584253
-0.0135472
0.00111786
-0.0304108
-0.0810065
0.00274682
-0.0137728
-0.0133194
-0.0321744
-0.0393055
-0.00875113
0.00246096
0.00330926
0.00252102
0.000759232
-0.0465927
-0.023205
0.00228433
-0.0142203
0.00042771
0.00134913
0.000556639
0.00132584
0.00246638
-0.0229052
-0.00554075
-0.00633935
0.00231223
-0.00957915
0.000797888
0.00197599
0.00215772
0.00164515
0.000495826
0.00309533
-0.0481302
0.00199754
0.00379872
0.0120365
-0.0274958
0.00516559
0.00279205
-0.0176344
0.00581561
-0.00387662
-0.0604851
-0.000115994
-0.000168188
0.00208326
0.00183781
-0.0252063
0.00174275
0.000201575
-0.00246851
-0.0247987
0.00130027
0.0014892
0.00203825
-0.0286026
0.000639454
0.00288041
0.00748409
-0.0176479
0.0010557
-0.0021191
0.000531579
0.000238515
-0.0503126
-0.0116918
0.00344855
-0.0262597
-0.0655515
-0.0458389
-0.00705781
-0.00146739
-0.00367882
0.000759399
-0.0446806
-0.0537537
-0.00551734
0.002048
0.0108437
-0.0125084
-0.00952876
0.000468899
0.000229506
0.00167164
-0.0210322
-0.0359243
-0.0109651
-0.0392989
-0.00456242
-0.0269807
-0.0213933
-0.0307745
-0.00126397
0.000208135
0.00283934
0.00140514
-0.0121797
-0.0246601
0.0116351
-0.0170348
-0.00298337
-0.00692245
-0.0233895
0.00462618
0.00938496
0.00269382
0.00211093
-0.0455458
-0.0111561
-0.0263943
0.000782091
-0.0300028
-0.0278882
0.00269149
0.00228836
-0.0516655
-0.0163632
0.00025114
0.00501402
-0.0159668
0.00189795
-0.0397871
-0.000827461
-0.0178812
-0.067749
-0.068828
-0.0327303
-0.0593006
0.00197101
0.000194627
0.00152888
-0.00921372
-0.0029113
-0.0138503
0.000140575
-0.0225872
0.000488701
-0.00538799
-0.0246281
-0.0209904
-0.0497662
0.00355782
0.00948885
-0.0440631
0.00227277
0.00220539
0.00122264
0.00137987
-0.0450356
-0.00442455
0.00037044
-0.0562347
-0.00325618
-0.0575939
-0.0474428
0.00407292
0.00079188
9.01797e-06
-0.0208067
-0.041206
0.00478245
0.00167979
0.00196922
0.000717722
-0.0268214
-0.0221548
-0.0398708
0.00174107
0.0013018
0.00178183
-0.0420667
-0.0651254
-0.0250573
-0.00177871
-0.0219241
0.000539994
0.00232312
0.00474728
-0.0278334
-0.00462684
-0.021869
-0.0195093
0.00135884
-0.0492946
0.00593138
-0.00577776
0.00134063
0.001503
0.00271124
0.0020209
0.000123763
-0.00210392
0.00172074
-0.0166918
0.0017127
-0.000638776
0.000679145
-0.0312999
-0.0123244
0.00126944
0.000206491
-0.0278282
-0.0402241
0.00123984
0.0016871
0.00134987
3.57674e-05
0.000605517
-0.00374674
-0.0209153
-0.0314271
0.00219053
0.000570473
0.00103185
-0.0141739
0.00461983
-0.00812993
0.00114285
-0.036021
-0.000477299
0.00295366
-0.0461146
-0.0761139
-0.0261267
-0.000620729
0.00156332
-0.00830434
-0.0537277
0.00177047
-0.00379705
-0.016774
0.00343748
-0.0591096
0.00174802
0.00292678
0.00118625
0.00283861
0.00415317
0.00174235
0.000887293
0.00547592
0.00735143
-0.0413245
0.000899296
-0.0208651
0.0013378
0.00371342
0.00122283
-0.0376625
0.0014882
-0.0151889
-0.0176685
-0.0025264
-0.0168897
-0.0260514
-0.00667508
-0.0647497
-0.003615
-0.0298881
-0.00568476
-0.0174172
-0.0298875
-0.0131025
-0.0277653
0.00200826
0.00183211
0.00373502
-0.0202896
-0.014834
-0.026636
0.000484742
0.00236866
0.00048517
0.00413756
0.000418142
-0.0291187
-0.0415574
-0.0274416
3.22946e-06
-0.030649
-0.0559883
0.000881875
0.0129206
-0.0203868
-0.0504069
-0.0101774
-0.0261985
-0.030668
-0.0069375
0.000848785
0.00237731
0.0022661
0.000336196
-0.0817586
-0.0207063
-0.0398892
5.77472e-06
0.00210831
0.00201544
0.0121919
0.00115488
-0.0135485
0.00205703
4.00363e-05
-0.0203897
-0.0503784
-0.0492453
0.00118906
-0.0311427
0.0024334
0.00310594
-0.0222089
-0.0136672
-0.0175451
-0.0248799
0.000104241
-0.0169829
0.00187801
0.000928539
-0.0122543
0.000108406
-0.0321577
-0.0536584
-0.0209221
0.00177043
0.000486046
-0.000226763
7.58884e-05
-0.00731655
0.00221543
0.00538201
-0.0259959
-0.0414753
0.00455068
-0.0146356
-0.0205517
-0.0568499
-0.0198535
-0.0187825
0.00228202
-0.00222517
0.00714583
-0.045925
-0.0164838
0.000475962
0.000255254
-0.0107007
-0.0257569
0.00274334
-0.0267758
-0.00322733
7.85595e-05
-0.0221685
-0.0650861
-0.00407192
-0.00235979
-0.0370671
-0.0357985
-0.0316293
-0.019527
-0.0225686
0.000436076
0.00482197
0.0011557
-0.0411922
-0.0281902
2.24094e-05
-0.000289399
2.59391e-06
-0.037144
-0.0183577
5.16382e-05
0.00208205
0.000718722
-0.030049
0.00318401
-0.0269666
-0.048073
-0.0266116
-0.0476745
0.00713711
0.0113935
-0.0791403
0.00231095
-0.000864189
0.00010603
-0.0234394
-0.041204
-0.0288418
-0.0299102
-0.0453171
-0.0240345
0.00155793
-0.00624727
0.00199653
-0.0239684
-0.0571589
-0.00509302
-0.0576039
0.000443767
-0.0232827
-0.00157688
-0.00860739
-0.0502763
0.000345537
-0.00254652
-0.0413133
-0.0170761
-0.0113637
-0.00401678
-0.01439
-0.0228084
-0.0156612
0.000461333
0.00203516
-0.0265721
0.00527673
-0.0334042
0.0017877
-0.00885111
-0.0268578
0.0015934
-0.00587478
-0.0810118
0.00594122
0.00176897
0.000790493
0.00102669
-0.0693395
0.000115982
0.00789051
0.000750622
-0.0111012
-0.0122803
-0.0376288
0.000969066
0.00199752
0.000248968
0.000249808
-0.0227787
1.57721e-06
0.00125196
0.000336458
-0.0201238
-0.00318748
-0.00657816
-0.00693844
-0.0452349
0.00104252
0.00618194
-0.0297051
0.00428539
0.000243845
0.00137724
0.00212819
-0.0203453
-0.0809838
-0.0481658
-0.0292995
-0.0394909
-0.00113894
-0.0820269
0.00316119
0.000234094
0.00205005
-0.0347222
0.00195794
-0.0344589
0.00382359
-0.0292316
0.00087766
-0.027185
0.0142704
-0.0425185
-0.00323454
-0.0257526
0.00727672
-0.0546139
-0.023546
-0.0203362
-0.00163688
0.00253846
-0.0151686
-0.0349866
-0.056678
-0.00087496
-0.0134799
0.00249896
-0.0220928
0.00415061
-0.0129715
0.00172434
-0.0574881
-0.00600653
0.00187628
-0.00496731
-0.0176938
-0.0198422
0.000432227
-0.0466504
-0.0444057
0.00203052
0.00146127
0.0049388
0.00280092
-0.0281765
0.00180908
-0.029395
0.00346092
0.00171144
-0.0142969
-0.0317782
-0.0267112
-0.00164941
0.000953136
-0.0257921
0.00149874
0.00188748
-0.0283955
-0.0578877
0.000424287
-0.0295169
0.000713444
-0.0560214
-0.00927516
-0.0392766
0.0014896
0.000511646
-0.0447238
-0.0221061
0.00336281
-0.0307769
-0.0375664
-0.052663
0.00101477
-0.0818095
-0.0324282
0.00415132
-0.00515131
0.00206829
0.0011438
0.000215585
-0.0817761
-0.0504809
0.00161948
0.000118203
-0.0404356
-0.0216232
-0.00237714
0.00162206
0.00277203
-0.0240156
0.00153184
-0.00922112
-0.0433925
-0.00890722
-0.000359432
0.00139797
-0.0211119
-0.0242133
-0.0188081
-0.0126767
-0.0660529
0.0105374
-0.0100296
0.00172229
-0.0140891
0.0004873
-0.0774654
0.000198604
-0.0822946
0.00159033
0.00136817
-0.0379704
0.00101177
-0.00497222
-0.0309715
-0.000276411
0.00204087
0.0016151
-0.0596786
-0.00378241
0.000908253
0.00271866
0.00703462
0.000153909
0.0118496
0.00142567
0.000195296
-0.0243321
-0.0505185
-0.00298361
-0.0420232
0.00293677
0.000324525
-0.00803626
0.0134926
0.00165808
0.00230068
-0.00602486
0.00289074
-0.0247021
-0.0188549
0.0015466
0.00195513
-0.0355549
-0.0489068
0.0020761
0.00222063
0.000109562
-0.0276053
0.0045329
0.00044564
-0.0561045
-0.0371751
0.00283302
0.00126508
0.00361248
-0.00633914
0.00226363
0.00287162
0.00127334
0.00180493
0.00178931
0.000311249
-0.00179628
0.000213419
-0.00380161
0.00168652
0.00298451
-0.000190282
0.0100066
-0.0280545
0.00343558
-0.0284021
-0.00288102
0.00181262
-0.00635909
-0.00167331
-0.00529521
-0.0304977
0.000471934
0.000100621
0.00155993
0.00780168
-0.00350507
0.0135005
-0.0576923
-0.0310391
-0.0449338
0.000990229
-0.0259394
-0.0548142
-0.0248198
-0.0261208
-0.0315857
0.00484999
-0.00688848
-0.0321564
-0.00613341
-0.00829847
0.000574903
0.00347377
0.000773444
0.00190959
-0.0575384
-0.0241918
-0.00700047
0.00142106
-0.0262635
0.00185483
0.000264702
0.00184872
0.0015297
-0.00573183
-0.00205859
-0.00230646
-0.0224595
-0.0319332
0.00147673
-0.0657624
-0.02934
0.00357712
0.00141823
-0.031228
-0.0300843
0.00060253
0.00210708
-0.0571876
-0.000719078
-0.000716052
-0.030069
-2.52339e-05
0.00386288
0.00230872
-0.00388989
0.0124431
-0.0600274
-0.00424459
0.00198939
-0.000278568
0.0025162
3.95138e-06
0.00276679
0.000359356
0.00163158
-0.0561013
-0.0343104
-0.00256308
0.00821611
-0.0329802
-0.0113264
-0.0386444
-0.0179142
0.00227761
0.00204164
0.00198786
0.000292838
-0.00440449
0.0129945
-0.00151431
-0.0320519
-0.0813528
0.00241183
-0.0266532
0.00137798
-0.0167771
-0.0166626
-0.00892125
-0.00455913
0.00332068
-0.00232247
-0.0314649
-0.00454576
-0.0123545
-0.0355157
-0.0492899
-0.025509
-0.00473471
0.00137203
-0.0504136
-0.0284134
-0.029747
-0.000486923
0.00270353
0.0015955
-0.0756626
0.0152742
0.000108076
-0.0224499
-0.0220531
-0.0511281
0.00126882
0.00166372
0.0105547
0.00158542
0.00129455
0.000176721
-0.0133179
-0.0251588
0.00159005
-0.0116165
0.002487
-0.0172842
-0.0597335
-0.0267914
-0.0559788
0.00127515
-0.0412576
-0.0828028
0.00225055
0.00527137
-0.00156305
-0.0134573
0.00132787
0.000538016
0.00461424
0.00237096
-0.0260077
0.00124307
0.00331455
0.00553927
0.00245198
-0.0517955
-0.0501742
0.0011569
-0.0567172
-0.0156361
0.000109461
0.003939
-0.0349923
0.00200876
5.10661e-05
0.000143319
0.00193188
-0.0800325
0.00743791
9.73875e-05
-0.0119838
0.00240091
-0.034227
-0.0180156
-0.023714
-0.0283626
-0.0251367
-0.0259494
-0.0287819
-0.0516994
-0.0214134
-0.0267956
-0.0315627
-0.047821
0.00312734
-0.0224665
0.00221944
-0.0261388
8.93304e-05
-0.0435433
-0.0596939
-0.00264303
0.00467441
0.00519039
-0.035369
-0.00448586
-0.0812688
0.000170625
6.9522e-05
9.19038e-05
-0.0275404
0.00190526
-0.0253085
-0.0602769
0.000551717
0.000987074
-0.0108241
-0.0266014
-0.0405388
6.58855e-05
0.00193332
0.00177263
-0.0139142
0.00106297
-0.0587232
-0.033553
0.00094697
0.0012012
0.00166666
0.00074303
-0.0155242
3.04179e-05
0.00030129
-0.0344362
9.92478e-05
0.00171765
0.000246617
-0.062004
-0.0119689
0.00459062
-0.0258786
-0.0545862
0.0034274
-0.0311755
-0.0490985
-0.0485713
-0.018359
0.000128637
-0.00111507
-0.0539411
0.00737641
-0.000282673
-1.22462e-05
-0.0592915
-0.0225556
-0.00229348
0.00763046
6.42134e-05
0.000653144
-0.00825687
0.000960845
-0.0585451
0.00512078
-0.026071
-0.0253644
0.000772721
7.67512e-05
-0.00817465
-0.0113784
-0.036448
-0.0757693
-0.0806222
-0.00857645
-0.00591235
0.0109652
0.000523063
-0.071944
-0.00430268
0.000901459
0.00817421
0.00217048
-0.0247275
-0.0313378
-0.074481
0.000473249
-0.0248121
-0.0233196
0.0124576
-0.048372
-0.0527233
-0.00333014
0.00276109
-0.0255037
0.00562048
-0.00630793
-0.0448007
0.00070946
-0.0144619
-0.0473147
0.00178857
-0.00899151
-0.0479937
-0.0276555
0.0019176
-0.0125219
0.00868318
-0.0231565
0.000135182
0.00195668
-0.0530235
-0.0121631
-0.0297981
-0.0248936
-0.0239822
0.00128773
0.00227143
4.07032e-05
-0.0292823
7.98331e-06
0.00141799
0.000152714
-0.0557013
-0.00378631
0.00327275
-0.00544016
0.00200081
-0.0807472
-0.00177329
0.00178088
-0.00139924
-0.0766574
-0.00939763
-0.0323122
-0.0121668
-0.0282215
-0.0296804
0.00213444
-0.050187
0.00679662
0.00115323
-0.024425
0.00487991
-0.042551
0.00200982
0.0029524
0.00113896
0.000137947
-0.049606
0.00254026
0.00141171
-0.0373381
0.00232189
0.000103829
0.00149171
-7.07801e-05
-0.058513
0.000768859
0.00122546
-0.0321484
0.00033528
-0.0200296
0.00232093
-0.0296373
-0.0330658
-0.0520127
-0.0335222
-0.0255803
0.00182608
3.84426e-05
-0.0339428
-0.0270427
-0.00830702
0.00545232
-0.0285451
-0.0446581
0.00161849
-0.0573307
-0.0437328
-0.0515618
-0.047577
-0.0216501
-0.0348682
-0.0313885
-0.0102397
-0.0251138
-0.00535378
-0.0322995
-0.0209378
-0.0270337
-0.0116405
0.0113371
0.00135601
-0.0417793
0.00195536
-0.0672683
0.000192658
-0.0440371
-0.0176228
0.00128929
0.000154836
-0.0606443
-0.0590077
-0.0260978
0.00290568
0.00186926