/*--------------------------------*- C++ -*----------------------------------*\
| =========                 |                                                 |
| \\      /  F ield         | OpenFOAM: The Open Source CFD Toolbox           |
|  \\    /   O peration     | Version:  v2012                                 |
|   \\  /    A nd           | Website:  www.openfoam.com                      |
|    \\/     M anipulation  |                                                 |
\*---------------------------------------------------------------------------*/
FoamFile
{
    version     2.0;
    format      ascii;
    class       surfaceScalarField;
    location    "400";
    object      phi;
}
// * * * * * * * * * * * * * * * * * * * * * * * * * * * * * * * * * * * * * //

dimensions      [0 3 -1 0 0 0 0];
oriented        oriented;


internalField   nonuniform List<scalar> 
22766
(
0.0421646
-0.00489273
-0.0372719
0.0792887
0.00455173
-0.0838404
0.215249
-0.0675695
-0.14768
0.693323
-0.34252
-0.350803
0.0430941
0.101743
-0.144837
0.506896
-0.442241
-0.0646552
-0.0443077
-0.0650412
0.109349
-0.647024
0.545938
0.101086
-0.525813
0.638993
-0.113179
0.413297
-0.244568
-0.168729
-0.028274
0.206991
-0.178717
-0.0779808
0.577442
-0.499461
0.0556754
-0.284155
0.22848
-0.203527
0.0359584
0.167569
0.150205
-0.137796
-0.012409
0.117813
0.464644
-0.582457
-0.0636313
0.0997443
-0.036113
0.128816
-0.0196981
-0.109118
0.0423245
0.400524
-0.442848
-0.0049804
-0.130782
0.135763
0.124915
-0.650729
-0.0360337
0.0638907
-0.027857
-0.0877597
-0.0537428
0.141502
-0.493813
0.618728
0.0993856
0.115864
0.0296169
-0.041651
0.0120342
-0.0606418
-0.0299293
0.0905712
-0.592801
0.447428
0.145374
0.134611
-0.14833
0.0137194
-0.123502
-0.374877
0.498379
0.60866
-0.46128
-0.14738
-0.0253438
0.110423
-0.0850792
0.465689
0.150842
-0.616531
-0.14838
0.388742
-0.240362
-0.117026
0.0916825
-0.0472034
-0.050158
0.0973614
0.186181
0.227116
0.00781565
0.310045
-0.317861
-0.191055
-0.0124715
0.0249396
0.103877
0.58796
-0.494705
-0.0932548
-0.0417055
-0.0282989
0.0700043
0.714909
-0.600635
-0.114274
-0.291257
0.068442
0.222815
0.132706
-0.499001
0.366295
0.61953
-0.496124
-0.123406
0.178466
-0.0351992
-0.143267
-0.118488
-0.456742
0.57523
-0.134068
0.143544
-0.00947531
0.479113
-0.643735
0.164622
-0.558462
0.064649
-0.653874
0.518642
0.135232
0.284569
-0.288502
0.00393348
-0.17506
-0.27294
0.448
0.00658414
0.00723373
-0.0138179
-0.330833
0.46354
0.217924
-0.10174
-0.116184
-0.409367
-0.100438
0.509805
0.333271
-0.325456
-0.0247838
0.0247838
-0.0160146
0.0953033
0.10516
0.473217
-0.578376
0.285414
-0.00084519
-0.369402
0.411128
-0.0417256
-0.128986
0.17208
-0.0489506
0.04847
0.000480657
-0.12296
-0.376041
0.405132
-0.150938
-0.254195
0.204397
-0.223091
0.0186942
-0.515928
0.699258
-0.183329
0.429604
0.0318438
-0.461447
0.0612068
-0.148967
0.305314
-0.121416
-0.183898
-0.514938
0.391977
-0.0994482
-0.228345
0.327793
-0.212249
0.011329
0.20092
-0.0926769
0.0290457
0.560961
-0.0952719
0.474647
0.132298
-0.606944
0.0562566
-0.10346
-0.0525748
0.0405317
0.0120431
0.0235525
-0.1354
0.111848
-0.0938796
0.117432
0.116503
-0.0896224
-0.0268805
0.205628
-0.0029339
-0.202694
-0.0318246
0.0384088
-0.0619984
-0.307404
0.0338017
-0.0944435
0.430167
0.0767298
-0.478323
0.303264
0.0342902
-0.0294753
-0.00481496
0.274026
-0.21835
-0.142995
-0.371943
0.0735566
-0.0524209
-0.0211358
-0.137179
0.132199
0.08886
0.0276429
-0.529915
0.652557
-0.122643
-0.042316
-0.00663467
0.14812
0.46054
0.0444854
-0.0389469
-0.00553853
-0.659291
0.129376
-0.214775
0.343191
-0.128415
-0.0736432
0.0968437
-0.0232004
0.624051
-0.506238
0.593844
0.00360075
-0.597445
0.518094
0.134463
0.0106414
-0.00693193
-0.00370943
0.323096
0.0985124
-0.421609
0.597405
-0.300975
-0.296431
-0.105973
-0.0861805
0.192154
0.589369
-0.589369
0.0628237
-0.296184
0.23336
-0.48237
0.358868
-0.563911
0.0105872
0.553324
-0.133194
-0.430718
-0.42656
0.586875
-0.160315
-0.0118237
0.121575
-0.109751
0.620256
-0.145609
0.0656099
-0.0756331
0.0100232
0.0350916
-0.0297886
-0.00530293
-0.377622
0.162847
0.105296
0.00448789
-0.109784
0.00469188
-0.00201262
-0.00267926
0.359052
-0.316728
-0.0874142
-0.0296121
0.59985
-0.188428
-0.411422
0.0960914
0.351694
-0.447785
0.026388
-0.0624217
-0.127205
0.0397908
0.219311
0.378095
-0.624391
0.493936
0.130455
0.102772
0.00252395
0.0192651
0.383834
-0.4031
0.0410585
0.00110604
0.0789033
-0.512319
0.433416
0.399379
-0.542374
0.0442939
0.336652
-0.380946
-0.634012
0.118083
0.0654938
-0.171467
0.133415
-0.281795
-0.19582
0.247556
-0.0517357
-5.60422e-05
0.116107
-0.116051
-0.729945
0.548809
0.181135
0.0385949
-0.008978
0.00135568
0.0033362
0.0914471
-0.251172
0.159725
-0.0526725
-0.159577
0.188957
0.30169
-0.490647
0.326704
-0.112913
-0.213791
0.0551328
-0.286023
0.23089
0.0991821
0.494662
-0.100553
0.0902731
0.01028
0.539661
-0.10535
-0.434311
0.130279
0.0359762
-0.166255
0.00114239
-0.0622277
0.0610853
-0.38549
-0.0288419
0.414332
0.123441
-0.100839
-0.0226021
0.451403
-0.128307
0.619855
-0.495879
-0.123976
-0.030324
0.235952
-0.437597
0.55064
-0.113043
0.127899
-0.503089
0.375191
0.124425
0.180889
-0.126988
0.332891
-0.205902
-0.296426
0.485383
0.268246
0.425077
0.449332
-0.598947
0.149615
-0.0741651
-0.669154
0.281505
0.387649
0.448509
-0.52649
0.0278133
-0.188109
0.160296
-0.270892
-0.142394
0.413286
0.132097
-0.201078
0.0689813
0.0244777
-0.409967
-0.252612
0.331971
-0.0793599
0.0469157
-0.207615
0.1607
-0.0228327
-0.0297421
-0.408081
-0.261073
-0.104808
0.100297
0.00451136
-0.0353515
0.0464599
-0.0111084
-0.231351
0.0355311
0.747741
-0.419684
-0.328057
-0.299855
0.625374
-0.325519
0.249284
-0.147541
0.0887462
0.160537
0.126965
-0.0715075
-0.0554575
0.0338183
0.403237
0.344504
0.0501625
-0.552379
0.502217
-0.000312474
0.0109538
0.650204
-0.220341
-0.429863
0.0131185
-0.116648
-0.0174197
0.171088
0.416872
0.116713
-0.255931
0.139217
0.0658548
-0.000244878
-0.0992547
0.558535
-0.453375
-0.0706676
-0.0808133
0.151481
-0.0594695
-0.0272201
0.0866897
-0.120539
0.573637
-0.453099
-0.359097
0.106485
0.626079
-0.486514
-0.139565
-0.222979
0.278112
0.00216944
-0.54492
0.184725
0.360195
-0.19815
0.164608
0.0335423
-0.129345
-0.338403
0.467748
0.0906948
0.0197283
0.0276649
0.0133936
0.0284698
0.0712745
-0.461068
0.274626
0.186442
0.245766
0.428073
-0.673839
0.504693
-0.376794
0.0909676
-0.0624978
0.403241
-0.233042
-0.170199
-0.391756
-0.255267
-0.137047
0.10049
0.036557
0.569301
-0.0233631
0.332658
-0.652821
0.320163
0.224714
-0.177798
-0.228433
0.00796797
0.0537577
-0.0617257
-0.0159484
-0.491703
0.191848
-0.0366656
0.023861
0.0128046
0.148051
-0.0994235
-0.0486278
-0.31654
0.272108
0.0444322
0.07899
-0.123298
-0.0896579
0.419016
0.097498
-0.516514
0.0627928
0.0641721
-0.00190894
0.0461599
-0.0442509
0.0168844
-0.127096
0.110211
0.295134
-0.0683442
-0.22679
-0.0184498
0.204983
-0.186533
-0.401842
-0.0649344
0.466776
-0.133828
0.250286
-0.0332727
0.000123372
0.0331493
0.0671459
0.228106
-0.295252
-0.217581
0.358325
-0.218209
-0.0556414
0.273851
-0.0210399
-0.179954
0.200994
0.0463212
-0.0186562
-0.186225
0.0424687
0.143756
0.0680799
-0.456655
0.388575
0.158449
0.244792
-0.115519
0.0436572
0.0718616
0.0359653
0.0375914
-0.0244737
0.154753
0.450962
-0.587021
0.136059
-0.00439619
0.064727
-0.0603308
0.661161
-0.309782
-0.351379
0.17071
0.368841
-0.539551
0.0119056
0.0519851
0.232019
-0.331467
0.532437
-0.513172
-0.0476445
0.0556125
0.515303
-0.344592
0.0703101
-0.018581
-0.051729
0.00319587
-0.0548131
0.0516172
-0.0309642
-0.00230849
-0.0861312
0.0266617
0.00373266
-0.00237698
0.0293898
-0.0317082
0.00231831
-0.0461754
0.0473178
0.578489
-0.486947
-0.0915415
0.0300177
0.0609499
-0.0805804
0.231087
-0.150507
-0.148432
0.113306
0.0351263
-0.126833
0.595173
-0.468339
-0.0393352
-0.00485862
0.0441939
0.503876
-0.424973
0.23931
0.0144095
-0.253719
-0.0410451
0.0391362
0.0293321
-0.00623507
-0.023097
0.479004
-0.0462154
-0.432789
0.269077
-0.152364
-0.00714315
-0.0369996
0.0441427
-0.636123
0.198404
0.437719
0.10516
-0.410251
0.305092
0.264311
-0.268347
0.00403594
-0.299181
0.273238
0.0259428
-0.0819303
-0.066502
-0.235871
-0.0633099
0.182555
-0.185489
0.401808
0.164308
-0.566116
0.0693031
-0.0965232
-0.106943
0.142919
-0.0826104
0.0782142
-0.0200491
0.191089
-0.171039
0.618788
-0.169456
-0.440465
0.169573
-0.0288079
0.0338559
-0.00504804
0.153803
-0.0196297
-0.134174
-0.196034
0.174994
-0.146543
-0.452404
-0.242254
0.161674
0.00243826
0.261873
0.0208669
-0.455218
0.434351
-0.177768
0.0381437
0.139624
-0.375332
0.286996
0.0883358
0.424104
-0.122527
0.103972
0.0185541
-0.386797
-0.249326
-0.394398
0.434164
-0.496101
0.0619371
-0.000469371
0.0298592
0.129659
0.018392
0.0116103
0.0177218
0.040744
0.154443
-0.195187
-0.432452
0.277303
0.15515
-0.0459615
0.00662627
0.159911
0.459619
0.364735
-0.669657
0.28595
0.383707
-0.665504
0.27922
0.386284
0.202813
0.591815
-0.112702
0.253442
-0.390478
0.137036
0.490701
-0.611439
0.120739
0.158346
-0.28698
0.128634
-0.0610546
-0.0120004
0.073055
0.139033
0.0147705
-0.00331485
0.00130224
0.0819573
-0.0570177
-0.405783
-0.259721
0.669915
-0.292022
-0.377893
-0.639871
0.196448
0.443424
-0.115454
-0.462886
0.578339
-0.0950437
0.25339
-0.0582863
0.0614821
-0.210961
-0.250108
-0.122844
0.13672
-0.0138757
-0.11295
0.631044
-0.348098
0.637182
-0.289085
-0.171117
0.146643
0.188799
-0.152841
0.0525137
-0.0165484
-0.215814
0.00257852
0.213235
0.0043836
0.117407
-0.12179
-0.018605
-0.113188
0.131793
-0.024126
-0.191688
0.0412507
0.548118
-0.0639532
0.0222477
-0.156848
-0.0635203
-0.0519985
-0.153609
0.181422
-0.171775
0.192274
-0.0204988
0.403367
-0.213483
-0.189884
-0.408871
-0.260786
0.2832
-0.416393
-0.0859393
0.0858833
-0.357828
0.433272
-0.0754442
-0.182244
0.166926
0.0153184
0.177295
-0.487077
0.247071
0.422844
0.00510197
0.43902
-0.444122
0.318459
-0.0655453
-0.473163
0.439854
0.0333087
0.457543
-0.572997
0.0345661
0.12029
-0.154856
-0.445135
-0.0280279
-0.310198
0.378278
0.517966
-0.0883621
0.223803
-0.132355
0.00591333
0.117009
0.0265346
0.223076
0.193224
-0.4163
-0.30202
0.479315
-0.661192
0.527347
0.133846
-0.12296
0.139844
0.526293
-0.124484
0.592189
-0.488031
-0.104158
-0.63958
0.21302
-0.148775
-0.481035
0.62981
0.0321016
0.507559
0.171733
-0.350405
0.178672
0.298689
0.104678
-0.0993125
0.0838094
0.0155031
-0.0565806
-0.0706245
-0.499568
0.32381
0.175759
0.0619826
-0.280192
-0.0250553
0.180271
-0.285498
0.531264
0.038391
-0.0533809
0.01499
0.0862098
0.402319
-0.488529
-0.159335
-0.28113
0.0661502
0.175859
-0.242009
0.117226
-0.244214
-0.505754
-0.188238
0.0164624
-0.228872
-0.269669
0.0256611
0.244008
0.167651
-0.299799
0.132148
-0.553175
0.447825
0.0871988
-0.370084
0.282885
-0.0172986
0.0556896
0.0147897
0.135415
0.718938
-0.310848
-0.40809
0.169118
0.0478045
-0.216922
0.769381
-0.400541
0.114758
0.307913
-0.422671
-0.111361
0.124924
-0.0135628
0.596742
-0.058352
-0.53839
0.068758
-0.245465
0.176707
0.150355
0.321391
-0.15374
0.500285
0.269097
0.310197
-0.244894
-0.0653026
-0.471617
0.476719
-0.0270294
-0.169005
-0.160585
-0.0171829
0.437042
0.149832
-0.199567
0.422643
-0.0602154
-0.12601
0.376793
-0.405635
0.528144
-0.109128
-0.11652
0.0927639
0.023756
0.522572
-0.353434
-0.169138
-0.0486408
0.0792641
-0.0306233
0.377683
-0.20595
-0.213885
0.183561
-0.050048
0.261179
-0.211131
-0.123661
0.482713
-0.0315349
0.408328
0.190942
0.408909
0.0328188
-0.0814595
0.0113812
0.0589288
-0.570748
0.161381
-0.559407
0.440919
0.368691
0.350247
0.484755
0.094794
-0.579549
0.523559
0.0731827
-0.0554471
0.00896964
0.0464774
-0.0360228
-0.0804971
0.422717
0.0998546
-0.146151
0.131594
0.0145575
0.251338
0.463571
-0.403579
0.180387
0.223193
-0.626119
0.48589
0.140229
-0.043042
0.00199685
-0.199233
0.0169885
-0.00682345
-0.0542311
-0.124669
0.166587
-0.0419184
-0.2783
0.412794
-0.134493
0.00962306
0.134562
-0.144185
-0.5618
0.105145
-0.325609
-0.0415124
-0.0139347
-0.135626
-0.32577
0.461396
0.0239298
-0.0239298
-0.330855
-0.295264
0.334182
-0.417554
0.083372
-0.0148196
0.113911
-0.0990917
-0.0658988
0.0554514
0.0104474
-0.425595
-0.0879204
0.513515
0.0908327
0.335778
0.115625
0.0100525
0.168414
-0.517227
0.41679
0.173489
-0.193538
0.0623029
-0.136105
0.0738021
0.346357
-0.439751
0.0933935
-0.111818
0.578708
-0.46689
-0.0256224
-0.0670545
-0.0454876
-0.153745
-0.199791
0.172761
-0.450359
0.0127615
0.0480478
-0.0390782
-0.141638
0.182382
-0.0687762
-0.0156687
0.0844449
0.0221183
-0.331748
0.309629
0.470382
-0.621017
0.150635
0.395808
-0.290648
0.0843905
0.102826
-0.187216
0.0142297
0.0208618
-0.211491
-0.124038
0.335529
-0.233171
-0.111519
0.34469
-0.0745629
-0.20722
0.281783
-0.315221
-0.00131881
-0.461699
0.526218
-0.0556553
0.276828
-0.0544581
-0.22237
-0.237821
-0.165758
0.137051
0.489028
-0.0779579
0.41214
0.561933
-0.162101
-0.399833
0.400902
0.161032
-0.328002
0.424094
0.439902
-0.588678
0.00946817
0.0385797
0.0363131
-0.0027676
-0.0335455
0.0252007
0.00908955
0.0931801
-0.118144
0.0249642
-0.00953052
0.144141
0.00717815
0.110526
-0.117704
0.0329205
-0.0210149
0.329257
0.0758749
-0.110853
-0.00692925
0.117782
-0.145621
-0.488391
0.0436808
-0.182434
0.138753
0.119701
-0.0265205
0.127655
-0.0653524
-0.425005
-0.124492
0.549497
-0.345364
0.101016
0.244348
0.0486851
0.228143
0.485871
-0.189197
-0.296674
-0.0699368
0.0810768
-0.01114
-0.100535
-0.273112
0.60577
-0.572756
-0.0278792
0.315407
-0.0995002
-0.215907
-0.554315
0.419291
0.135024
-0.0245839
-0.0669952
0.0915791
-0.0496382
0.0469903
0.00264791
-0.000729547
-0.0240543
0.0116311
-0.0185631
0.0197316
0.159183
-0.178914
0.498483
0.0937056
-0.0952246
-0.102926
0.413298
0.0875217
-0.50082
-0.0887591
0.0188223
-0.278414
0.223956
0.472718
0.14607
-0.163455
-0.273923
0.437378
-0.0543971
-0.196775
-0.10165
0.0898261
0.0303306
0.00764345
-0.0379741
-0.101583
0.514881
0.130667
0.00114136
-0.131808
0.199174
-0.0235848
-0.175589
0.0950546
-0.100193
0.00513872
0.394898
0.076636
-0.471534
-0.464852
-0.0900373
0.554889
-0.118625
0.203015
-0.149399
-0.283054
-0.055775
-0.0865677
0.142343
-0.261959
-0.217216
0.479175
-0.0368385
0.000117249
0.0367213
-0.24609
-0.148824
0.394914
0.0662972
-0.0782976
-0.00884746
-0.0388253
0.0476728
-0.173496
0.07248
0.0248563
-0.0973363
0.0466411
-0.17131
0.113693
-0.0972937
-0.0163995
-0.301617
-0.0957812
0.397398
-0.513007
0.636871
-0.123865
-0.0941708
0.612812
-0.0269875
0.0329135
-0.00592596
-0.00207237
-0.0171975
0.0192699
0.143474
-0.568479
-0.220983
0.367562
0.00209563
-0.0336613
0.0315657
-0.146573
-0.00561206
0.152185
0.256553
-0.234435
-0.147327
-0.428413
0.163215
0.265197
-0.326156
0.415594
-0.0894384
-0.221223
0.202773
-0.0178959
-0.117504
0.149894
-0.185093
-0.0533881
0.0118757
0.033042
-0.0351144
0.0502713
-0.00411145
-0.468807
0.339462
0.537687
-0.395901
-0.141786
0.0164915
-0.127853
0.265303
-0.225827
-0.0394759
0.430329
0.107358
0.0862859
-0.387903
-0.00445633
0.486808
-0.482351
0.231807
0.107172
-0.338979
0.0489486
-0.00139272
-0.0475559
0.0770692
-0.010772
-0.0339938
0.000797589
0.0331962
-0.0741788
-0.0628679
0.205686
0.280185
-0.0398029
-0.108527
0.00247318
-0.000566838
-0.00190634
-0.00196925
-0.0278194
-0.0400437
0.0459693
-0.00592556
0.00257643
-0.125536
0.473312
-0.433449
-0.245921
0.271583
-0.0825705
0.0259498
0.0566208
0.333791
-0.445609
0.626985
-0.521101
-0.105883
-0.00142146
-0.200648
0.0543575
-0.0679593
0.0136019
0.566749
-0.0963664
0.090538
-0.0258109
-0.226091
0.165876
-0.000227324
-0.115928
0.116155
-0.0260295
0.0253933
0.000636243
0.0534489
-0.011887
-0.0415619
0.0983334
0.233638
-0.599161
0.136275
-0.125562
0.35557
-0.311276
-0.0749358
0.103328
0.0977377
0.0159555
-0.108063
0.0331272
0.340941
-0.45351
0.112569
-0.0687583
-0.00966878
0.0784271
-0.152176
0.599604
-0.277751
0.0814629
0.196288
-0.0536206
0.217874
-0.164253
-0.0032419
0.124817
-0.0381561
0.0385161
0.201647
0.0189513
0.48243
0.0960586
-0.419323
-0.241869
-0.42538
0.16166
0.26372
0.256983
-0.407921
-0.204884
0.0318169
0.173067
0.0377312
-0.0975441
0.59148
-0.654482
0.408951
0.245531
0.469174
-0.596007
-0.425925
0.561409
-0.135484
-0.207783
0.0264389
0.181344
-0.521908
0.173811
0.0622618
-0.0921911
-0.6483
-0.137345
0.109243
0.0102288
-0.119472
0.00641622
-0.0180808
0.0873839
0.346514
-0.114706
0.202187
-0.465279
0.263092
-0.0148501
-0.113993
0.128843
-0.0271544
0.0996344
0.32879
0.0648875
-0.393678
-0.0361074
0.613549
-0.0435301
0.179758
-0.136228
-0.382592
0.104292
-0.0405709
0.209689
-0.106171
-0.0166729
0.335776
0.303217
-0.107528
0.598228
-0.0304955
0.00102017
-0.137091
0.210739
-0.073648
0.360649
-0.107207
0.0637564
-0.559635
-0.442006
0.602668
-0.160662
-0.0036273
0.0399404
0.136525
-0.593268
-0.112833
0.140095
-0.0272627
0.302646
0.0075503
-0.163447
-0.0414375
0.249685
0.0156176
-0.396105
0.510629
-0.114524
-0.112647
0.0978279
-0.10601
-0.120463
-0.254869
0.482129
-0.279942
-0.0535911
-0.022042
-0.192729
-0.0757821
0.268511
-0.266381
-0.0207763
0.287157
0.597494
-0.187912
-0.409582
-0.0259156
-0.392596
0.418511
0.520654
-0.423156
0.189057
-0.0221308
-0.127556
0.502493
-0.0963694
0.100753
-0.651106
0.512994
0.138113
0.528295
-0.478132
-0.47749
0.139087
-0.562949
0.562949
0.398582
-0.00368379
-0.260053
-0.360964
-0.104825
0.445766
0.42923
0.131731
-0.149024
-0.458402
0.607426
-0.0131765
0.108231
0.0181269
-0.03629
0.0181631
0.0580918
-0.138905
0.124743
-0.184611
0.235128
-0.0505172
-0.125796
0.296919
0.0380089
-0.334928
0.0372463
0.151553
-0.476128
0.340501
0.0299005
-0.207955
0.178055
0.539375
-0.155541
-0.00127737
-0.0247522
-0.206393
-0.00698003
0.213373
0.1099
0.525919
0.0320039
-0.557923
0.0354921
-0.244993
0.0540311
-0.0428216
-0.0112095
0.0107962
-0.123629
0.477743
0.147632
-0.407953
0.0116308
0.013153
-0.389519
-0.11357
0.175288
0.023886
0.119821
0.435171
-0.569213
0.134043
0.127165
0.355339
-0.482504
0.038431
-0.59081
0.514321
-0.0801573
0.295314
-0.321229
0.541014
-0.0150947
0.0461804
-0.0158498
-0.276359
0.061907
0.214452
-0.0908702
0.0158087
0.0750616
-0.106326
0.150007
0.374081
-0.405616
0.57557
-0.124608
0.361517
-0.49548
0.133963
-0.0965231
0.313129
-0.216606
-0.081776
0.240238
-0.0079659
-0.232272
-0.137897
0.13767
0.34522
-0.434356
0.0018871
0.029697
-0.0315841
-0.14988
-0.0732112
0.0750613
-0.0232142
-0.0518471
-0.033659
0.0413024
-0.0667767
0.100791
-0.0340143
0.360902
0.112666
-0.473569
-0.612435
0.488436
0.123999
0.583544
-0.126001
0.249898
-0.486608
0.617893
-0.131285
-0.211268
-0.135016
-0.333792
-0.155653
-0.316652
0.472305
0.308007
-0.463659
0.278253
0.245306
-0.0325487
-0.00428979
0.045565
-0.0425704
-0.00299462
-0.47761
0.342594
0.029582
-0.0963587
-0.110175
0.36903
-0.258855
-0.00783441
-0.0375368
0.0453712
-0.129073
0.131649
0.0159011
0.114766
0.54426
0.00454926
0.137028
-0.0200192
0.0562504
0.144137
-0.200388
0.183697
0.040592
-0.224289
0.217587
-0.161336
0.670967
-0.19775
-0.0303676
0.0324632
0.078407
0.378413
-0.45682
-0.0262142
0.126704
0.027004
0.0480573
0.544142
-0.114912
-0.00990507
-0.0434831
0.159841
0.390799
0.0160044
-0.0847627
0.450998
-0.600022
0.000370682
-0.0273582
-0.412643
0.302468
0.533008
-0.254755
-0.0213007
0.142348
-0.121047
0.210475
-0.260523
-0.114016
0.129085
-0.0150683
0.411742
-0.296984
0.150432
-0.401945
0.251514
-0.143367
0.122832
0.0205348
0.0894852
-0.165364
0.00635923
0.159004
-0.0390917
0.222789
0.0712212
-0.576907
0.097471
0.479436
0.524972
-0.0898009
0.155153
-0.0765631
-0.0785903
0.15497
-0.296868
0.141897
0.533501
0.0594113
-0.592912
0.217932
-0.304656
0.0867237
0.046977
-0.00141196
-0.483901
0.528216
0.121989
0.0964301
-0.0229456
-0.0734846
0.164359
-0.0347001
0.239624
-0.262714
0.0230894
-0.325895
0.251005
0.0748904
0.34037
-0.439338
-0.441622
0.278167
-0.037503
0.334422
0.0354095
-0.301791
0.0403911
-0.0482256
0.308801
-0.175386
0.085231
-0.343887
0.258656
0.0701059
-0.089804
0.0224913
0.177024
-0.199516
0.088741
0.0076891
0.126089
-0.140939
-0.067115
0.441196
0.532547
-0.52196
-0.612156
0.263437
0.348719
0.303396
-0.115109
-0.197178
-0.0106057
0.233472
-0.167321
-0.441406
-0.080735
0.522141
0.441303
-0.100933
-0.158114
0.118311
-0.161983
-0.337585
0.1443
-0.197921
-0.183984
0.23737
0.0565477
-0.293918
-0.063337
0.0863074
-0.0229704
0.471392
0.112151
-0.339451
-0.304284
0.241503
-0.338026
0.0699226
-0.125698
0.0693069
0.0990999
0.377234
-0.476334
0.383271
0.157043
0.0311525
0.133207
0.0489159
-0.322191
0.273275
0.627199
-0.293408
0.59231
-0.120918
0.0817534
0.0720987
-0.153852
0.00381072
0.183564
-0.163832
-0.0608526
-0.569268
0.448729
-0.157503
-0.395605
0.553108
-0.3928
0.00365475
0.176687
-0.180342
-0.624635
0.163356
0.21726
-0.483284
0.266024
-0.479669
-0.224459
-0.430023
0.0409898
0.19832
-0.124173
0.129428
-0.0052543
-0.468293
0.0664518
-0.0422637
0.119263
-0.076999
0.503242
-0.285982
-0.181614
-0.246799
0.522515
-0.184639
-0.337875
0.670773
-0.206129
0.0425987
0.0114324
0.31521
-0.373797
0.058587
0.489237
0.0750436
-0.564281
-0.139346
-0.336782
-0.457371
0.452915
0.502448
0.11118
-0.613628
-0.031614
0.147342
-0.115728
0.174528
-0.181751
0.00722336
-0.215237
-0.172011
0.387248
0.177871
0.449328
0.0684706
-0.205562
-0.341158
0.423142
-0.081984
0.00410559
0.47116
-0.110258
0.430268
-0.586738
0.15647
-0.0389231
0.541371
0.597436
-0.167167
-0.0270072
0.191615
0.0182271
-0.070648
-0.0378338
0.0472784
-0.00944461
-0.274725
0.323641
0.157889
-0.178369
0.02048
0.163579
-0.182513
0.018934
0.12469
0.0012044
-0.125895
0.218443
-0.0134599
0.361708
0.109452
0.0723817
0.0827717
-0.411987
0.55483
-0.142843
0.0973462
0.242796
-0.340142
0.196554
-0.353387
0.156833
-0.203492
0.624145
-0.420652
0.443453
0.154041
-0.0776803
0.392891
-0.381374
-0.230782
-0.0230525
-0.160423
0.183475
0.282286
0.416972
-0.308449
0.128267
0.180183
0.309897
-0.154927
-0.244087
0.394518
-0.483914
0.344568
0.0215767
0.0488937
-0.0704705
-0.0373156
-0.320512
0.393907
0.210179
-0.604086
-0.0168351
-0.0986013
0.115436
0.131593
-0.717827
0.259583
0.458244
0.601839
-0.413546
-0.188293
-0.152039
0.0286695
-0.0314371
-0.584058
-0.00443228
-0.135042
-0.00148748
0.13653
0.126354
0.39616
0.24956
0.447166
-0.31078
-0.136386
-0.246517
-0.172112
0.157716
0.0143958
-0.242163
0.209979
0.032184
-0.127936
0.0139198
0.46288
-0.37667
0.0297569
-0.0278698
0.469662
-0.107955
0.0200139
-0.286804
-0.431022
-0.0732945
0.0863462
-0.0130517
0.147361
0.116913
-0.264274
-0.31604
0.0876949
-0.552294
0.149662
0.402632
-0.0127018
0.121945
-0.109219
-0.385486
-0.0229892
-0.149123
-0.39571
-0.156584
0.503384
-0.141866
0.480267
0.112044
0.0147224
-0.498056
0.483334
0.418108
0.106863
0.0352807
-0.00197195
-0.0333087
0.397946
-0.0078188
-0.0396422
0.047461
-0.0248186
-0.00364666
0.0284653
-0.136143
-0.532408
0.193681
0.338727
-0.16242
-0.0453462
0.0554895
-0.0101433
0.00378301
-0.127956
-0.0787451
0.0254346
0.0533105
-0.107153
-0.0784239
0.601518
-0.121251
-0.0880831
-0.0700308
-0.499017
0.180574
0.318442
0.515841
0.104415
-0.148808
0.0528523
0.0959553
-0.0710481
0.152801
-0.044927
0.0377839
-0.377846
-0.27326
0.0514697
-0.00447943
0.36113
-0.0889067
0.0643228
0.00439291
-0.0413925
0.00570799
0.597258
0.103755
-0.0794228
-0.0243324
-0.113319
-0.0749191
0.147396
-0.30773
0.160334
0.0963151
-0.0515772
-0.044738
0.201713
-0.0271857
0.0691861
-0.249868
0.180682
-0.516502
0.143069
0.373432
-0.0509613
0.0431425
-0.720226
0.288809
0.431418
-0.0698767
-0.0526499
0.417986
-0.166427
-0.251559
0.0140715
-0.2782
-0.066118
0.344318
-0.250698
-0.0454859
-0.033609
0.0316398
-0.326806
0.0936345
0.0421066
-0.0469652
0.105888
0.0308321
-0.275716
-0.444511
0.0393206
0.0644346
-0.0732565
-0.000588514
0.171956
-0.171367
-0.733349
0.446545
-0.138557
0.0238634
-0.069648
0.0457846
-0.0047275
0.0465465
-0.041819
-0.714313
0.259423
0.45489
-0.0150797
-0.0576591
0.0727388
0.0321957
-0.0276153
-0.00458036
-0.44454
-0.07822
-0.247675
-0.209027
-0.380342
0.547474
0.000426349
-0.547901
-0.0510161
0.0461234
0.00183414
0.00113627
-0.540257
0.431144
0.109112
-0.361042
-0.171367
0.093704
-0.0272893
-0.0664146
0.0212299
-0.0845669
-0.0175141
0.257138
-0.400999
0.129368
0.271631
-0.129549
0.164116
-0.571086
0.442353
0.128733
-0.375776
0.0965927
0.279183
-0.399495
-0.140761
0.0923708
-0.277816
-0.436498
-0.130252
0.0365025
-0.221113
0.000124219
0.490417
-0.490541
-0.0013666
-0.205027
-0.335508
0.0733019
0.262206
0.0824042
-0.306437
0.224033
-0.133054
0.062765
0.0702887
0.0867386
-0.078122
0.0123752
0.0657468
-0.0879344
-0.0929958
-0.184756
0.0838385
0.183772
-0.539062
0.131652
0.40741
-0.133657
-0.154845
0.543805
-0.527635
-0.0161701
0.0614698
0.292946
-0.354415
-0.289555
0.360859
-0.0713038
0.233028
-0.453369
-0.615811
0.439193
0.176618
0.333035
-0.0931373
0.485055
-0.391918
0.0273166
-0.00918964
-0.430258
0.289261
0.140997
0.522421
-0.121898
-0.408273
0.252428
-0.0765686
-0.0042875
0.0339845
0.681039
-0.461317
-0.219723
-0.558647
0.19771
0.360937
-0.0568926
0.0881261
-0.0312335
0.0684407
-0.0445774
0.309958
0.371081
-0.0193744
-0.063236
0.128269
0.312809
0.112864
-0.102635
-0.0350617
0.00106793
0.443037
-0.36463
0.0682348
-0.0842349
-0.126831
0.211066
-0.465871
0.135016
0.0157497
0.0769108
-0.0926605
-0.43074
0.249126
-0.0135776
0.505997
-0.103677
-0.128278
0.166422
-0.106597
0.250897
-0.462504
0.32011
0.160614
-0.148153
-0.0124615
-0.600222
0.16386
0.436362
-0.0119933
0.0117695
0.000223885
0.087825
-0.313265
0.22544
-0.56204
0.404537
-0.259229
0.189104
0.0701255
0.0997375
-0.586346
0.00449941
0.438538
0.0450462
-0.23933
0.194284
-0.0272895
-0.055281
-0.0657017
0.0676255
-0.00192376
0.632211
-0.147456
0.432733
0.0596986
0.491652
-0.364487
0.301935
-0.42861
0.126675
-0.182795
0.205286
0.467523
0.133995
0.336698
0.173618
-0.257853
-0.142133
-0.328127
0.47026
0.521758
-0.4471
-0.0746571
-0.50515
0.543581
-0.604697
0.427575
0.177122
-0.248727
0.172945
0.600402
-0.132878
0.0502812
-0.0416728
-0.00860833
-0.031143
-0.322244
0.0179227
0.0561208
-0.0740435
0.0331264
0.104383
-0.123874
0.0194907
-0.560984
0.135059
-0.239338
0.0123006
-0.243573
0.25867
-0.0150973
-0.315975
0.241412
-0.0634746
-0.0146474
-0.00114178
0.00361496
-0.182464
-0.0354911
-0.172464
-0.557396
0.122927
0.434469
-0.102747
-0.130382
0.233128
-0.415185
0.0224658
0.114562
0.431449
0.0903086
-0.0812027
0.0529039
0.0410415
-0.049889
-0.125224
0.108389
0.531803
-0.0159626
0.00701708
0.0720296
-0.0790467
-0.00475961
-0.0197175
0.471486
-0.451769
-0.180833
0.0675139
-0.14674
0.448675
0.318909
-0.461042
-0.705033
0.252396
0.452637
0.533892
-0.136068
-0.397824
-0.0365399
0.563886
0.0589332
-0.0543814
-0.125204
0.328867
-0.203663
0.254505
0.0609016
0.0991872
-0.295515
-0.263131
-0.00919269
0.0496741
-0.0404814
-0.132257
-0.351658
-0.563358
0.419717
0.143641
-0.26884
-0.436193
0.246073
-0.176886
-0.328805
0.238144
0.0906614
0.166827
-0.167415
-0.63987
0.311743
0.309746
-0.0723763
0.072995
0.0207089
0.110718
0.113372
0.20463
-0.318002
0.109892
-0.231164
0.128417
-0.0717191
0.358715
0.263168
0.00545594
-0.268624
0.119807
-0.514258
0.394451
-0.143964
-0.294681
0.438645
0.0733378
-0.0189803
-0.131527
0.0329259
-0.00712488
-0.379672
-0.458381
-0.724767
0.449051
-0.482295
0.350038
0.214452
-0.0391637
-0.152696
-0.4047
-0.4067
-0.156659
-0.426244
-0.128071
0.256185
-0.277874
0.0216884
-0.139187
-0.0173548
0.156541
-0.121346
-0.0392386
-0.162396
0.581687
0.0821928
-0.265203
0.335381
-0.0701774
0.205448
-0.26468
0.0592315
0.04212
-0.14386
-0.0748675
-0.0581861
-0.005051
-0.157397
0.162448
-0.170155
0.183157
-0.013002
0.0639239
0.0153401
0.491019
-0.653416
0.00848735
-0.397875
-0.188534
0.00519587
0.0656242
-0.080704
0.0409144
0.172491
-0.213406
0.0192795
-0.0761721
0.0244787
-0.202765
0.178287
0.00845312
0.0337942
0.00480066
0.0997882
-0.0876297
-0.0121585
-0.148219
-0.717025
0.439209
0.334048
-0.0830434
0.267892
-0.185488
-0.625957
0.130172
-0.118403
-0.0117686
0.0303898
-0.00398712
-0.0264027
0.318682
0.0421773
-0.315703
-0.2364
-0.109137
0.345537
0.49125
0.198839
-0.17436
-0.371962
0.25708
0.114882
-0.249399
0.00582627
-0.698811
0.233113
0.465698
-0.0941184
-0.0694081
0.215894
-0.146486
0.00644083
0.143229
-0.14967
0.525683
0.0479547
0.473105
0.127297
0.0327529
0.181699
0.243309
-0.446801
-0.131362
-0.113732
-0.175776
0.289508
-0.279865
-0.360004
-0.263432
-0.435379
0.0569269
-0.313705
0.256778
0.268586
-0.0124006
0.0294209
0.275589
-0.30501
0.0717555
0.368293
-0.440049
-0.711933
0.443093
0.188599
-0.0308828
0.494916
-0.192982
-0.301934
0.0299533
0.0818265
-0.11178
-0.134553
0.0195525
0.115
0.0893768
-0.0732232
-0.0161536
0.603057
-0.403392
-0.199665
-0.0534952
0.125877
0.590888
-0.117783
-0.00669695
0.0488035
0.46095
-0.36185
0.250872
0.0122965
-0.616458
0.489054
0.127404
-0.457442
-0.247822
-0.251195
0.365973
0.237084
0.109466
0.337701
0.172912
-0.285825
-0.000506036
0.00293786
0.0658764
-0.0852508
0.0225007
0.0738144
-0.042637
0.0781017
-0.0191686
0.0132229
0.0682066
-0.0814295
-0.290205
0.371896
-0.0816908
0.26263
-0.197689
-0.0649411
0.265432
-0.337753
0.0859466
-0.0944376
0.00849101
-0.123392
0.431305
-0.221775
-0.128078
0.349854
-0.540154
0.145455
0.394699
-0.140002
0.0447776
-0.259427
-0.0158678
-0.050031
0.0186268
0.00771074
-0.0364816
0.0321941
0.336707
-0.238374
0.117638
-0.138938
-0.00437627
-0.0195535
0.109177
-0.00520422
0.321796
-0.249279
-0.0725172
-0.260721
-0.0278317
0.00301306
0.133906
-0.355681
0.11047
-0.45251
-0.311082
0.095845
-0.209789
-0.220951
-0.547467
0.457429
-0.0520432
-0.416801
0.572605
-0.155804
-0.157029
-0.231556
0.388585
0.160267
0.00331244
0.108812
-0.161663
-0.0892349
-0.254653
-0.0109459
0.131235
-0.00537218
-0.135472
0.140844
-0.0568372
0.0363624
0.0139089
-0.0154726
0.141561
-0.20989
0.183255
0.0266346
0.000153053
-0.442481
-0.705863
0.442431
0.0881131
0.248594
-0.50515
-0.0943537
0.0252181
0.0691355
-0.149928
0.128256
0.0216728
-0.193066
0.00637703
0.116077
-0.122454
-0.0715702
0.00506676
0.0665035
-0.151918
-0.388704
-0.15145
0.0214277
-0.026841
0.0396455
0.0804174
-0.13416
0.605822
-0.161654
-0.444169
0.568735
-0.0777158
0.0135946
0.0329836
0.322586
-0.455815
0.319147
0.136668
0.107464
0.510429
0.105935
-0.359794
-0.293622
-0.03229
0.0295561
0.00273382
-0.126126
0.121075
-0.1943
0.32211
-0.12781
0.0235227
0.452305
-0.475828
-0.434178
0.17222
0.0120493
-0.151386
0.139337
-0.164635
0.126222
-0.287035
-0.105883
0.591773
-0.00350278
0.037297
-0.164842
0.175915
-0.0110733
0.13354