/*--------------------------------*- C++ -*----------------------------------*\
| =========                 |                                                 |
| \\      /  F ield         | OpenFOAM: The Open Source CFD Toolbox           |
|  \\    /   O peration     | Version:  v2012                                 |
|   \\  /    A nd           | Website:  www.openfoam.com                      |
|    \\/     M anipulation  |                                                 |
\*---------------------------------------------------------------------------*/
FoamFile
{
    version     2.0;
    format      ascii;
    class       surfaceScalarField;
    location    "400";
    object      phi_0;
}
// * * * * * * * * * * * * * * * * * * * * * * * * * * * * * * * * * * * * * //

dimensions      [0 3 -1 0 0 0 0];
oriented        oriented;


internalField   nonuniform List<scalar> 
22766
(
0.0421646
-0.00489272
-0.0372718
0.0792886
0.00455176
-0.0838404
0.215249
-0.0675691
-0.14768
0.693323
-0.34252
-0.350803
0.0430941
0.101743
-0.144837
0.506896
-0.442241
-0.0646552
-0.0443076
-0.0650412
0.109349
-0.647024
0.545938
0.101086
-0.525813
0.638993
-0.113179
0.413297
-0.244568
-0.168729
-0.028274
0.206991
-0.178717
-0.0779808
0.577442
-0.499461
0.0556749
-0.284155
0.22848
-0.203527
0.0359585
0.167568
0.150205
-0.137796
-0.012409
0.117813
0.464644
-0.582457
-0.0636312
0.0997443
-0.0361131
0.128817
-0.0196983
-0.109118
0.0423245
0.400524
-0.442848
-0.0049804
-0.130782
0.135763
0.124915
-0.650729
-0.0360353
0.0638917
-0.0278564
-0.0877597
-0.0537428
0.141502
-0.493813
0.618728
0.099385
0.115864
0.0296169
-0.041651
0.0120342
-0.0606417
-0.0299293
0.090571
-0.592801
0.447428
0.145374
0.134611
-0.14833
0.0137194
-0.123501
-0.374877
0.498378
0.60866
-0.46128
-0.14738
-0.0253438
0.110423
-0.0850791
0.465689
0.150842
-0.616531
-0.14838
0.388743
-0.240362
-0.117026
0.0916824
-0.0472035
-0.0501579
0.0973614
0.186181
0.227116
0.00781582
0.310045
-0.317861
-0.191055
-0.0124715
0.0249398
0.103877
0.58796
-0.494705
-0.0932548
-0.0417055
-0.0282989
0.0700044
0.714909
-0.600635
-0.114274
-0.291257
0.0684418
0.222815
0.132707
-0.499001
0.366295
0.61953
-0.496124
-0.123406
0.178466
-0.0351992
-0.143267
-0.118488
-0.456742
0.57523
-0.134068
0.143543
-0.00947531
0.479113
-0.643735
0.164622
-0.558462
0.064649
-0.653874
0.518642
0.135232
0.284569
-0.288502
0.00393348
-0.17506
-0.272941
0.448
0.00658436
0.00723339
-0.0138178
-0.330834
0.46354
0.217924
-0.10174
-0.116184
-0.409368
-0.100437
0.509805
0.333271
-0.325455
-0.0247839
0.0247839
-0.0160147
0.0953033
0.10516
0.473217
-0.578376
0.285414
-0.000845192
-0.369402
0.411128
-0.0417257
-0.128986
0.17208
-0.0489507
0.04847
0.000480748
-0.122961
-0.376041
0.405132
-0.150938
-0.254195
0.204397
-0.223091
0.0186942
-0.515928
0.699258
-0.183329
0.429604
0.0318436
-0.461447
0.0612068
-0.148967
0.305314
-0.121416
-0.183898
-0.514938
0.391977
-0.0994482
-0.228345
0.327793
-0.212249
0.0113286
0.20092
-0.0926769
0.0290457
0.560961
-0.0952719
0.474647
0.132298
-0.606944
0.0562565
-0.10346
-0.0525748
0.0405318
0.0120431
0.0235525
-0.1354
0.111848
-0.0938796
0.117432
0.116503
-0.0896224
-0.0268805
0.205628
-0.00293389
-0.202694
-0.0318238
0.0384082
-0.0619983
-0.307404
0.0338017
-0.0944434
0.430167
0.0767298
-0.478324
0.303264
0.0342902
-0.0294752
-0.00481495
0.274025
-0.21835
-0.142996
-0.371942
0.0735567
-0.0524209
-0.0211359
-0.137179
0.132199
0.08886
0.027643
-0.529915
0.652557
-0.122643
-0.0423159
-0.0066348
0.14812
0.46054
0.0444855
-0.0389468
-0.00553863
-0.659291
0.129376
-0.214775
0.343191
-0.128415
-0.0736432
0.0968437
-0.0232005
0.624051
-0.506238
0.593844
0.00360075
-0.597445
0.518094
0.134463
0.0106413
-0.006932
-0.0037093
0.323096
0.0985124
-0.421609
0.597405
-0.300975
-0.296431
-0.105973
-0.0861804
0.192154
0.589369
-0.589369
0.0628235
-0.296184
0.23336
-0.482369
0.358868
-0.563911
0.0105872
0.553324
-0.133194
-0.430718
-0.42656
0.586875
-0.160315
-0.0118237
0.121575
-0.109751
0.620256
-0.145609
0.0656099
-0.0756332
0.0100233
0.0350915
-0.0297886
-0.00530292
-0.377622
0.162847
0.105296
0.00448799
-0.109784
0.00469176
-0.00201256
-0.0026792
0.359052
-0.316728
-0.0874142
-0.0296121
0.59985
-0.188428
-0.411422
0.0960914
0.351694
-0.447785
0.0263871
-0.0624224
-0.127205
0.0397908
0.219311
0.378095
-0.624391
0.493936
0.130455
0.102772
0.00252384
0.0192651
0.383834
-0.4031
0.0410585
0.00110604
0.0789033
-0.512319
0.433416
0.399379
-0.542374
0.0442939
0.336652
-0.380946
-0.634012
0.118083
0.0654937
-0.171467
0.133415
-0.281795
-0.19582
0.247556
-0.0517357
-5.74764e-05
0.116108
-0.116051
-0.729945
0.548809
0.181135
0.0385949
-0.00897799
0.00135558
0.00333618
0.0914471
-0.251172
0.159725
-0.0526719
-0.159577
0.188957
0.30169
-0.490647
0.326704
-0.112913
-0.213791
0.0551325
-0.286023
0.23089
0.0991821
0.494662
-0.100552
0.0902735
0.0102788
0.539661
-0.10535
-0.434311
0.130279
0.0359762
-0.166255
0.00114188
-0.0622275
0.0610857
-0.38549
-0.0288419
0.414332
0.123441
-0.100839
-0.0226022
0.451403
-0.128307
0.619855
-0.495879
-0.123976
-0.030324
0.235952
-0.437597
0.55064
-0.113043
0.127899
-0.503089
0.37519
0.124425
0.180889
-0.126988
0.332891
-0.205902
-0.296426
0.485383
0.268246
0.425077
0.449332
-0.598947
0.149615
-0.0741651
-0.669154
0.281505
0.387649
0.448509
-0.52649
0.0278133
-0.188109
0.160296
-0.270892
-0.142394
0.413286
0.132097
-0.201078
0.0689813
0.0244777
-0.409967
-0.252612
0.331971
-0.0793598
0.0469157
-0.207615
0.1607
-0.0228327
-0.0297422
-0.408081
-0.261073
-0.104808
0.100297
0.0045114
-0.0353514
0.04646
-0.0111086
-0.231351
0.0355311
0.74774
-0.419684
-0.328056
-0.299855
0.625374
-0.325519
0.249284
-0.147541
0.0887462
0.160537
0.126965
-0.0715072
-0.0554575
0.0338184
0.403236
0.344504
0.0501625
-0.552379
0.502217
-0.000312361
0.0109537
0.650204
-0.220341
-0.429863
0.0131186
-0.116648
-0.0174197
0.171088
0.416872
0.116713
-0.255931
0.139217
0.0658548
-0.000244984
-0.0992547
0.558535
-0.453375
-0.0706678
-0.0808132
0.151481
-0.0594693
-0.0272201
0.0866894
-0.12054
0.573638
-0.453098
-0.359097
0.106485
0.626079
-0.486514
-0.139565
-0.222979
0.278111
0.00216951
-0.54492
0.184725
0.360195
-0.19815
0.164609
0.0335419
-0.129345
-0.338403
0.467748
0.0906947
0.0197283
0.0276649
0.0133936
0.0284698
0.0712745
-0.461069
0.274627
0.186442
0.245766
0.428073
-0.673839
0.504693
-0.376794
0.0909677
-0.0624978
0.403241
-0.233042
-0.170199
-0.391756
-0.255267
-0.137047
0.10049
0.036557
0.569301
-0.0233631
0.332655
-0.65282
0.320165
0.224714
-0.177798
-0.228433
0.00796778
0.0537579
-0.0617257
-0.0159485
-0.491703
0.191848
-0.0366658
0.0238611
0.0128047
0.148051
-0.0994235
-0.0486279
-0.31654
0.272108
0.0444322
0.0789901
-0.123298
-0.0896579
0.419016
0.097498
-0.516514
0.0627929
0.0641719
-0.00190902
0.0461603
-0.0442512
0.0168844
-0.127096
0.110211
0.295134
-0.0683442
-0.22679
-0.0184499
0.204983
-0.186533
-0.401842
-0.0649344
0.466776
-0.133831
0.250288
-0.0332726
0.000123379
0.0331492
0.0671459
0.228106
-0.295251
-0.217581
0.358325
-0.218209
-0.0556414
0.273851
-0.0210399
-0.179954
0.200994
0.0463212
-0.0186562
-0.186225
0.0424687
0.143756
0.0680791
-0.456655
0.388576
0.158449
0.244792
-0.115519
0.0436566
0.071862
0.0359654
0.0375914
-0.0244737
0.154753
0.450962
-0.587021
0.136059
-0.00439629
0.064727
-0.0603307
0.661161
-0.309782
-0.351379
0.17071
0.368841
-0.539551
0.011907
0.0519847
0.232019
-0.331467
0.532437
-0.513172
-0.0476447
0.0556125
0.515303
-0.344592
0.0703101
-0.0185811
-0.0517291
0.00319553
-0.054813
0.0516175
-0.0309641
-0.0023085
-0.0861309
0.0266616
0.00373251
-0.00237692
0.0293901
-0.0317084
0.00231833
-0.0461757
0.0473176
0.578489
-0.486947
-0.0915415
0.0300177
0.0609499
-0.0805804
0.231087
-0.150507
-0.148433
0.113306
0.0351263
-0.126833
0.595173
-0.468339
-0.0393353
-0.00485857
0.0441939
0.503876
-0.424973
0.23931
0.0144095
-0.253719
-0.0410455
0.0391365
0.0293322
-0.00623508
-0.0230971
0.479004
-0.0462156
-0.432789
0.269077
-0.152364
-0.00714324
-0.0369995
0.0441428
-0.636123
0.198404
0.437719
0.10516
-0.410251
0.305092
0.264311
-0.268347
0.00403594
-0.299181
0.273238
0.0259428
-0.0819304
-0.0665022
-0.235871
-0.0633099
0.182555
-0.185489
0.401808
0.164308
-0.566116
0.0693029
-0.096523
-0.106943
0.142919
-0.0826103
0.078214
-0.0200492
0.191089
-0.171039
0.618788
-0.169456
-0.440465
0.169573
-0.0288079
0.033856
-0.00504808
0.153803
-0.0196297
-0.134174
-0.196034
0.174994
-0.146543
-0.452404
-0.242254
0.161674
0.00243826
0.261873
0.0208677
-0.455218
0.43435
-0.177768
0.0381438
0.139624
-0.375333
0.286995
0.0883384
0.424104
-0.122526
0.103971
0.018555
-0.386797
-0.249326
-0.394398
0.434162
-0.4961
0.0619374
-0.000469375
0.0298595
0.129659
0.0183921
0.0116103
0.0177219
0.040744
0.154443
-0.195187
-0.432453
0.277303
0.15515
-0.0459615
0.00662624
0.159911
0.459619
0.364735
-0.669657
0.28595
0.383707
-0.665504
0.27922
0.386284
0.202813
0.591815
-0.112702
0.253442
-0.390478
0.137036
0.490701
-0.611439
0.120739
0.158351
-0.286983
0.128632
-0.0610548
-0.0120001
0.0730549
0.139033
0.0147705
-0.00331479
0.00130223
0.0819576
-0.0570178
-0.405783
-0.259721
0.669915
-0.292022
-0.377893
-0.639871
0.196448
0.443424
-0.115454
-0.462886
0.578339
-0.095042
0.253393
-0.0582864
0.061482
-0.210961
-0.250108
-0.122844
0.13672
-0.0138757
-0.11295
0.631044
-0.348098
0.637182
-0.289085
-0.171117
0.146643
0.188799
-0.152841
0.0525138
-0.0165484
-0.215814
0.00257849
0.213235
0.00438352
0.117407
-0.12179
-0.0186052
-0.113188
0.131793
-0.0241259
-0.191688
0.0412507
0.548118
-0.0639533
0.0222477
-0.156848
-0.0635197
-0.0519989
-0.153609
0.181422
-0.171775
0.192274
-0.0204988
0.403368
-0.213484
-0.189884
-0.408871
-0.260786
0.2832
-0.416393
-0.0859398
0.0858823
-0.357827
0.433274
-0.0754469
-0.182244
0.166926
0.0153184
0.177295
-0.487077
0.247071
0.422844
0.00510197
0.43902
-0.444122
0.318458
-0.0655457
-0.473163
0.439854
0.0333087
0.457543
-0.572997
0.0345661
0.12029
-0.154856
-0.445135
-0.0280279
-0.310199
0.378278
0.517966
-0.088362
0.223803
-0.132355
0.00591333
0.117009
0.0265346
0.223076
0.193224
-0.4163
-0.30202
0.479315
-0.661192
0.527347
0.133846
-0.12296
0.139844
0.526293
-0.124484
0.592189
-0.488031
-0.104158
-0.63958
0.21302
-0.148775
-0.481035
0.62981
0.0321016
0.507559
0.171733
-0.350405
0.178672
0.29869
0.104678
-0.0993123
0.0838098
0.0155025
-0.0565806
-0.0706244
-0.499569
0.32381
0.175759
0.0619826
-0.280192
-0.0250554
0.180271
-0.285498
0.531264
0.038391
-0.0533811
0.0149901
0.0862099
0.402319
-0.488529
-0.159335
-0.28113
0.0661502
0.175859
-0.242009
0.117226
-0.244214
-0.505754
-0.188238
0.0164624
-0.228873
-0.269669
0.025661
0.244008
0.167651
-0.299799
0.132148
-0.553175
0.447825
0.0871988
-0.370084
0.282885
-0.0172988
0.0556898
0.0147897
0.135415
0.718938
-0.310847
-0.408091
0.169118
0.0478045
-0.216922
0.769381
-0.400541
0.114758
0.307913
-0.422671
-0.111361
0.124924
-0.0135627
0.596742
-0.058352
-0.53839
0.068758
-0.245465
0.176707
0.150355
0.321391
-0.15374
0.500285
0.269097
0.310197
-0.244894
-0.0653026
-0.471617
0.476719
-0.0270294
-0.169005
-0.160585
-0.017183
0.437042
0.149832
-0.199567
0.422643
-0.0602154
-0.12601
0.376793
-0.405635
0.528144
-0.109128
-0.11652
0.0927639
0.023756
0.522572
-0.353434
-0.169138
-0.0486407
0.0792641
-0.0306234
0.377683
-0.20595
-0.213885
0.183561
-0.0500481
0.261178
-0.21113
-0.123661
0.482713
-0.0315349
0.408328
0.190942
0.408909
0.0328189
-0.0814596
0.0113812
0.0589289
-0.570748
0.161381
-0.559407
0.440919
0.368691
0.350247
0.484755
0.094794
-0.579549
0.523559
0.0731827
-0.0554471
0.0089696
0.0464775
-0.0360229
-0.080497
0.422717
0.0998546
-0.146151
0.131594
0.0145575
0.251338
0.463571
-0.403579
0.180387
0.223193
-0.626119
0.48589
0.140229
-0.0430423
0.00199684
-0.199233
0.0169885
-0.00682364
-0.0542312
-0.124669
0.166587
-0.0419184
-0.2783
0.412794
-0.134493
0.00962306
0.134562
-0.144185
-0.5618
0.105145
-0.325609
-0.0415125
-0.0139346
-0.135626
-0.32577
0.461396
0.0239297
-0.0239297
-0.330855
-0.295264
0.334182
-0.417554
0.083372
-0.0148196
0.113911
-0.0990917
-0.0658989
0.0554514
0.0104475
-0.425595
-0.0879203
0.513515
0.0908327
0.335778
0.115625
0.0100525
0.168414
-0.517227
0.41679
0.173489
-0.193538
0.062303
-0.136105
0.0738022
0.346357
-0.43975
0.0933925
-0.111818
0.578708
-0.46689
-0.0256225
-0.0670544
-0.0454876
-0.153745
-0.199791
0.172761
-0.450359
0.0127615
0.0480478
-0.0390782
-0.141638
0.182382
-0.0687763
-0.0156685
0.0844448
0.0221183
-0.331748
0.309629
0.470382
-0.621017
0.150635
0.395808
-0.290648
0.0843904
0.102826
-0.187216
0.0142297
0.0208618
-0.211491
-0.124038
0.335529
-0.233171
-0.111519
0.34469
-0.0745629
-0.20722
0.281783
-0.315221
-0.00131881
-0.461699
0.526218
-0.0556557
0.276828
-0.0544581
-0.22237
-0.237821
-0.165758
0.137051
0.489028
-0.0779579
0.41214
0.561933
-0.1621
-0.399833
0.400902
0.161031
-0.328002
0.424094
0.439902
-0.588678
0.00946815
0.0385797
0.036313
-0.00276756
-0.0335455
0.0252007
0.00908954
0.0931801
-0.118144
0.0249642
-0.00953052
0.144141
0.00717806
0.110526
-0.117704
0.0329215
-0.0210145
0.329257
0.0758749
-0.110853
-0.0069292
0.117782
-0.145621
-0.488391
0.0436808
-0.182434
0.138753
0.119701
-0.0265205
0.127655
-0.0653524
-0.425005
-0.124492
0.549497
-0.345364
0.101016
0.244348
0.0486851
0.228143
0.485871
-0.189197
-0.296674
-0.069937
0.0810768
-0.0111398
-0.100536
-0.273113
0.605769
-0.572756
-0.0278792
0.315407
-0.0995002
-0.215907
-0.554315
0.419291
0.135024
-0.024584
-0.0669951
0.0915791
-0.0496384
0.0469905
0.00264796
-0.000729566
-0.0240544
0.0116311
-0.0185631
0.0197316
0.159183
-0.178914
0.498483
0.0937056
-0.0952242
-0.102926
0.413298
0.0875217
-0.50082
-0.0887592
0.0188222
-0.278414
0.223956
0.472718
0.14607
-0.163455
-0.273923
0.437378
-0.0543971
-0.196775
-0.10165
0.089826
0.0303307
0.00764344
-0.0379741
-0.101583
0.514881
0.130667
0.00114148
-0.131809
0.199174
-0.0235849
-0.175589
0.0950552
-0.100193
0.00513748
0.394898
0.0766357
-0.471534
-0.464852
-0.0900373
0.554889
-0.118625
0.203015
-0.149399
-0.283054
-0.055775
-0.0865678
0.142343
-0.261959
-0.217216
0.479175
-0.0368388
0.000117255
0.0367215
-0.24609
-0.148824
0.394914
0.0662974
-0.0782975
-0.00884752
-0.0388253
0.0476728
-0.173496
0.0724799
0.0248563
-0.0973363
0.0466411
-0.17131
0.113693
-0.0972937
-0.0163995
-0.301617
-0.0957812
0.397398
-0.513007
0.636871
-0.123865
-0.0941708
0.612812
-0.0269875
0.0329135
-0.00592599
-0.00207241
-0.0171976
0.01927
0.143474
-0.568479
-0.220983
0.367562
0.00209564
-0.0336616
0.0315659
-0.146573
-0.00561207
0.152185
0.256553
-0.234435
-0.147327
-0.428413
0.163215
0.265197
-0.326155
0.415591
-0.0894366
-0.221223
0.202773
-0.0178959
-0.117504
0.149894
-0.185093
-0.0533882
0.0118757
0.0330422
-0.0351146
0.0502716
-0.00411139
-0.468807
0.339462
0.537687
-0.395901
-0.141786
0.0164915
-0.127853
0.265303
-0.225827
-0.0394759
0.430329
0.107358
0.0862859
-0.387903
-0.00445633
0.486808
-0.482351
0.231807
0.107172
-0.338979
0.0489489
-0.00139287
-0.047556
0.077069
-0.0107716
-0.0339941
0.000797582
0.0331965
-0.0741788
-0.0628678
0.205686
0.280184
-0.0398029
-0.108527
0.00247308
-0.000566879
-0.0019062
-0.00196924
-0.0278193
-0.0400437
0.0459694
-0.0059257
0.00257643
-0.125536
0.473312
-0.433449
-0.245922
0.271583
-0.0825704
0.0259498
0.0566206
0.333791
-0.445609
0.626985
-0.521101
-0.105883
-0.00142118
-0.200648
0.0543572
-0.0679595
0.0136023
0.566749
-0.0963664
0.0905378
-0.0258108
-0.226091
0.165876
-0.000227336
-0.115928
0.116155
-0.0260295
0.0253933
0.000636253
0.0534492
-0.011887
-0.0415621
0.0983333
0.233638
-0.599161
0.136275
-0.125562
0.35557
-0.311276
-0.0749372
0.103328
0.0977377
0.0159555
-0.108064
0.0331267
0.340941
-0.453509
0.112568
-0.0687583
-0.00966865
0.078427
-0.152176
0.599604
-0.277751
0.0814629
0.196288
-0.0536206
0.217874
-0.164253
-0.00324183
0.124817
-0.0381569
0.0385162
0.201647
0.0189513
0.48243
0.0960586
-0.419323
-0.241869
-0.42538
0.16166
0.26372
0.256983
-0.407921
-0.204884
0.031817
0.173067
0.037731
-0.0975441
0.59148
-0.654482
0.408951
0.245531
0.469174
-0.596007
-0.425925
0.561409
-0.135484
-0.207783
0.0264389
0.181344
-0.521908
0.173811
0.0622617
-0.092191
-0.6483
-0.137345
0.109243
0.0102288
-0.119472
0.00641633
-0.0180808
0.0873837
0.346514
-0.114706
0.202187
-0.465279
0.263092
-0.0148501
-0.113993
0.128843
-0.0271544
0.0996343
0.32879
0.0648875
-0.393678
-0.0361074
0.613549
-0.0435298
0.179757
-0.136227
-0.382592
0.104292
-0.0405709
0.209689
-0.106171
-0.0166729
0.335776
0.303217
-0.107528
0.598228
-0.0304954
0.00102017
-0.137091
0.210739
-0.0736481
0.360649
-0.107207
0.0637564
-0.559635
-0.442006
0.602668
-0.160662
-0.00362736
0.0399404
0.136525
-0.593268
-0.112834
0.140096
-0.0272624
0.302646
0.0075503
-0.163447
-0.0414375
0.249685
0.0156176
-0.396105
0.510629
-0.114524
-0.112647
0.0978279
-0.10601
-0.120466
-0.254867
0.482129
-0.279942
-0.0535911
-0.0220421
-0.192729
-0.0757821
0.268511
-0.266381
-0.0207763
0.287157
0.597495
-0.187913
-0.409582
-0.0259156
-0.392596
0.418511
0.520654
-0.423156
0.189057
-0.0221308
-0.127556
0.502493
-0.0963694
0.100753
-0.651106
0.512994
0.138113
0.528295
-0.478132
-0.47749
0.139087
-0.562949
0.562949
0.398582
-0.0036836
-0.260053
-0.360964
-0.104824
0.445765
0.42923
0.131731
-0.149024
-0.458402
0.607426
-0.0131753
0.108231
0.0181269
-0.03629
0.0181631
0.0580919
-0.138905
0.124743
-0.184611
0.235128
-0.0505172
-0.125796
0.29692
0.0380087
-0.334928
0.0372464
0.151553
-0.476128
0.340501
0.0299005
-0.207955
0.178055
0.539375
-0.155541
-0.00127738
-0.0247521
-0.206393
-0.00698008
0.213373
0.1099
0.525919
0.0320039
-0.557923
0.0354922
-0.244993
0.0540311
-0.0428217
-0.0112095
0.010796
-0.12363
0.477743
0.147632
-0.407953
0.0116309
0.0131531
-0.389519
-0.11357
0.175288
0.023886
0.119821
0.435169
-0.569214
0.134045
0.127165
0.355339
-0.482504
0.038431
-0.59081
0.514319
-0.0801571
0.295314
-0.321229
0.541014
-0.0150947
0.0461805
-0.0158499
-0.276359
0.0619069
0.214452
-0.0908703
0.0158087
0.0750616
-0.106326
0.150007
0.374081
-0.405616
0.57557
-0.124608
0.361517
-0.49548
0.133963
-0.0965231
0.313129
-0.216606
-0.0817759
0.240238
-0.00796591
-0.232272
-0.137897
0.13767
0.34522
-0.434356
0.00188713
0.0296971
-0.0315842
-0.14988
-0.0732112
0.0750613
-0.0232141
-0.0518472
-0.033659
0.0413025
-0.0667767
0.100791
-0.0340144
0.360902
0.112666
-0.473569
-0.612435
0.488436
0.123999
0.583544
-0.126001
0.249898
-0.486608
0.617893
-0.131285
-0.211268
-0.135016
-0.333792
-0.155653
-0.316652
0.472305
0.308007
-0.463659
0.278253
0.245306
-0.0325489
-0.00428984
0.0455651
-0.0425704
-0.00299464
-0.47761
0.342594
0.0295821
-0.0963588
-0.110175
0.36903
-0.258855
-0.00783457
-0.0375367
0.0453713
-0.129073
0.131649
0.015901
0.114766
0.54426
0.00454926
0.137028
-0.0200192
0.0562504
0.144137
-0.200388
0.183697
0.040592
-0.224289
0.217587
-0.161336
0.670967
-0.19775
-0.0303679
0.0324635
0.0784071
0.378413
-0.45682
-0.0262143
0.126704
0.0270039
0.0480574
0.544142
-0.114912
-0.00990501
-0.0434832
0.159841
0.390799
0.0160042
-0.0847626
0.450998
-0.600022
0.000370692
-0.0273582
-0.412643
0.302468
0.533008
-0.254755
-0.0213007
0.142348
-0.121047
0.210475
-0.260523
-0.114016
0.129085
-0.0150683
0.411742
-0.296984
0.150432
-0.401945
0.251514
-0.143367
0.122832
0.0205348
0.0894854
-0.165364
0.00635923
0.159004
-0.0390917
0.222789
0.0712212
-0.576907
0.097471
0.479436
0.524971
-0.0898021
0.155154
-0.0765634
-0.0785906
0.15497
-0.296868
0.141897
0.533501
0.0594113
-0.592912
0.217932
-0.304656
0.0867237
0.0469771
-0.00141196
-0.483901
0.528216
0.121989
0.0964302
-0.0229456
-0.0734845
0.16436
-0.0347002
0.239624
-0.262713
0.0230894
-0.325894
0.251005
0.0748885
0.34037
-0.439338
-0.441622
0.278167
-0.0375028
0.334423
0.0354095
-0.301791
0.0403911
-0.0482257
0.308801
-0.175386
0.085231
-0.343887
0.258656
0.0701061
-0.0898044
0.0224913
0.177024
-0.199516
0.088741
0.00768916
0.126089
-0.140939
-0.067115
0.441196
0.532547
-0.52196
-0.612157
0.263438
0.348719
0.303396
-0.115109
-0.197178
-0.0106057
0.233472
-0.167321
-0.441406
-0.080735
0.522141
0.441303
-0.100933
-0.158114
0.118311
-0.161984
-0.337585
0.1443
-0.197921
-0.183984
0.23737
0.0565476
-0.293918
-0.0633369
0.0863074
-0.0229705
0.471392
0.112151
-0.339451
-0.304284
0.241503
-0.338026
0.0699227
-0.125698
0.0693069
0.0991001
0.377234
-0.476334
0.383271
0.157043
0.0311526
0.133207
0.0489159
-0.322191
0.273275
0.627199
-0.293408
0.59231
-0.120918
0.0817533
0.0720988
-0.153852
0.00381074
0.183564
-0.163832
-0.0608526
-0.569268
0.448729
-0.157503
-0.395605
0.553108
-0.3928
0.00365501
0.176687
-0.180342
-0.624635
0.163356
0.21726
-0.483284
0.266024
-0.479669
-0.224459
-0.430023
0.0409898
0.19832
-0.124173
0.129428
-0.00525424
-0.468293
0.0664518
-0.0422638
0.119263
-0.076999
0.503242
-0.285982
-0.181614
-0.246799
0.522515
-0.184639
-0.337875
0.670773
-0.206129
0.0425987
0.0114324
0.31521
-0.373797
0.0585869
0.489237
0.0750437
-0.564281
-0.139346
-0.336782
-0.457371
0.452915
0.502448
0.11118
-0.613628
-0.031614
0.147342
-0.115728
0.174528
-0.181751
0.00722336
-0.215237
-0.172011
0.387248
0.177871
0.449328
0.0684706
-0.205562
-0.341158
0.423142
-0.081984
0.00410561
0.47116
-0.110258
0.430268
-0.586738
0.15647
-0.0389231
0.541371
0.597436
-0.167167
-0.0270068
0.191615
0.0182272
-0.0706481
-0.0378338
0.0472784
-0.00944464
-0.274725
0.323641
0.157889
-0.178369
0.0204801
0.163579
-0.182513
0.0189341
0.12469
0.00120433
-0.125895
0.218443
-0.0134599
0.361708
0.109452
0.0723821
0.0827719
-0.411987
0.55483
-0.142843
0.0973462
0.242796
-0.340142
0.196554
-0.353387
0.156833
-0.203492
0.624145
-0.420652
0.443453
0.154042
-0.0776803
0.392891
-0.381374
-0.230783
-0.0230525
-0.160423
0.183475
0.282286
0.416972
-0.308449
0.128267
0.180183
0.309897
-0.154927
-0.244087
0.394518
-0.483914
0.344568
0.0215767
0.0488937
-0.0704704
-0.0373113
-0.320516
0.393907
0.210179
-0.604086
-0.0168351
-0.0986012
0.115436
0.131593
-0.717827
0.259583
0.458244
0.601839
-0.413546
-0.188293
-0.152039
0.0286695
-0.0314371
-0.584058
-0.00443221
-0.135044
-0.00148651
0.13653
0.126354
0.39616
0.249559
0.447166
-0.31078
-0.136386
-0.246517
-0.172112
0.157716
0.0143959
-0.242163
0.209979
0.032184
-0.127936
0.0139198
0.46288
-0.37667
0.0297571
-0.02787
0.469662
-0.107955
0.0200139
-0.286804
-0.431022
-0.0732946
0.0863459
-0.0130513
0.147361
0.116913
-0.264274
-0.31604
0.0876949
-0.552294
0.149662
0.402632
-0.0127017
0.121945
-0.109219
-0.385486
-0.0229892
-0.149123
-0.39571
-0.156584
0.503384
-0.141866
0.480267
0.112044
0.0147224
-0.498056
0.483334
0.418107
0.106865
0.035281
-0.00197196
-0.033309
0.397946
-0.00781889
-0.0396424
0.0474613
-0.0248187
-0.0036467
0.0284654
-0.136143
-0.532409
0.193682
0.338727
-0.162421
-0.0453463
0.0554895
-0.0101432
0.00378293
-0.127956
-0.078745
0.0254346
0.0533104
-0.107152
-0.0784239
0.601518
-0.121251
-0.0880831
-0.0700308
-0.499017
0.180574
0.318442
0.515841
0.104415
-0.148808
0.0528523
0.0959554
-0.0710481
0.152801
-0.0449271
0.0377838
-0.377846
-0.27326
0.05147
-0.00447948
0.36113
-0.0889067
0.0643227
0.00439297
-0.0413925
0.005708
0.597258
0.103755
-0.0794228
-0.0243325
-0.113319
-0.0749191
0.147396
-0.30773
0.160334
0.0963149
-0.0515771
-0.0447378
0.201713
-0.0271857
0.0691861
-0.249868
0.180682
-0.516502
0.143069
0.373432
-0.0509615
0.0431426
-0.720226
0.288809
0.431418
-0.0698756
-0.0526502
0.417986
-0.166427
-0.251559
0.0140714
-0.2782
-0.066118
0.344318
-0.250698
-0.0454858
-0.0336089
0.0316397
-0.326806
0.0936345
0.0421067
-0.0469652
0.105888
0.0308322
-0.275716
-0.444511
0.0393207
0.0644346
-0.0732565
-0.000588489
0.171956
-0.171367
-0.733349
0.446545
-0.138557
0.0238636
-0.0696481
0.0457845
-0.00472765
0.0465468
-0.0418191
-0.714313
0.259423
0.45489
-0.0150798
-0.057659
0.0727388
0.0321956
-0.0276152
-0.00458035
-0.44454
-0.0782191
-0.247675
-0.209027
-0.380342
0.547474
0.000426348
-0.547901
-0.0510162
0.0461234
0.00183398
0.00113672
-0.540257
0.431144
0.109112
-0.361042
-0.171367
0.093704
-0.0272894
-0.0664146
0.0212299
-0.0845669
-0.0175141
0.257138
-0.400999
0.129368
0.271631
-0.129549
0.164116
-0.571086
0.442353
0.128733
-0.375773
0.0965891
0.279184
-0.399495
-0.140761
0.0923706
-0.277816
-0.436498
-0.130252
0.0365025
-0.221113
0.000124219
0.490417
-0.490541
-0.00136659
-0.205027
-0.335511
0.073305
0.262206
0.0824042
-0.306437
0.224033
-0.133054
0.062765
0.0702886
0.0867386
-0.0781217
0.0123747
0.065747
-0.0879344
-0.0929958
-0.184756
0.0838384
0.183772
-0.539062
0.131652
0.40741
-0.133657
-0.154845
0.543805
-0.527635
-0.0161701
0.0614698
0.292946
-0.354415
-0.289555
0.360859
-0.071304
0.233028
-0.453369
-0.615811
0.439193
0.176618
0.333035
-0.0931373
0.485055
-0.391918
0.0273166
-0.00918963
-0.430258
0.289262
0.140997
0.522421
-0.121898
-0.408273
0.252428
-0.0765686
-0.00428757
0.0339846
0.681039
-0.461317
-0.219723
-0.558647
0.19771
0.360937
-0.0568925
0.0881261
-0.0312336
0.0684408
-0.0445772
0.309958
0.371081
-0.0193745
-0.0632358
0.128269
0.312808
0.112864
-0.102635
-0.035062
0.00106796
0.443037
-0.36463
0.0682348
-0.0842341
-0.126831
0.211065
-0.465871
0.135016
0.0157496
0.0769107
-0.0926604
-0.43074
0.249126
-0.0135777
0.505997
-0.103677
-0.128279
0.166422
-0.106597
0.250897
-0.462504
0.32011
0.160614
-0.148152
-0.0124622
-0.600222
0.16386
0.436362
-0.0119932
0.0117697
0.00022357
0.087825
-0.313265
0.22544
-0.56204
0.404537
-0.259229
0.189104
0.0701255
0.0997375
-0.586346
0.00449935
0.438537
0.0450462
-0.23933
0.194284
-0.0272896
-0.0552808
-0.0657017
0.0676255
-0.00192382
0.632211
-0.147456
0.432734
0.0596986
0.491652
-0.364487
0.301935
-0.42861
0.126675
-0.182795
0.205286
0.467523
0.133995
0.336699
0.173618
-0.257852
-0.142133
-0.328127
0.47026
0.521758
-0.4471
-0.0746571
-0.50515
0.543581
-0.604697
0.427575
0.177122
-0.248727
0.172945
0.600402
-0.132878
0.0502812
-0.0416728
-0.00860839
-0.031143
-0.322244
0.0179227
0.0561208
-0.0740435
0.0331264
0.104383
-0.123874
0.0194908
-0.560984
0.135059
-0.239338
0.0123004
-0.243573
0.25867
-0.0150974
-0.315975
0.241412
-0.0634748
-0.0146469
-0.0011419
0.00361498
-0.182464
-0.0354911
-0.172464
-0.557396
0.122927
0.434469
-0.102747
-0.130382
0.233128
-0.415184
0.0224658
0.114562
0.431449
0.0903086
-0.0812028
0.0529039
0.0410415
-0.049889
-0.125224
0.108389
0.531803
-0.0159626
0.00701669
0.0720298
-0.0790465
-0.00475984
-0.0197175
0.471486
-0.451769
-0.180833
0.067514
-0.14674
0.448675
0.318909
-0.461042
-0.705033
0.252396
0.452637
0.533892
-0.136068
-0.397824
-0.0365399
0.563886
0.0589332
-0.0543814
-0.125204
0.328867
-0.203663
0.254505
0.0609016
0.0991874
-0.295515
-0.263131
-0.00919261
0.0496742
-0.0404816
-0.132257
-0.351658
-0.563358
0.419717
0.143641
-0.26884
-0.436193
0.246073
-0.176886
-0.328805
0.238144
0.0906613
0.166827
-0.167415
-0.63987
0.311743
0.309746
-0.0723763
0.072995
0.020709
0.110718
0.113372
0.20463
-0.318002
0.109892
-0.231164
0.128417
-0.0717194
0.358714
0.263174
0.00545268
-0.268627
0.119807
-0.514258
0.394451
-0.143964
-0.294681
0.438645
0.0733381
-0.0189809
-0.131527
0.0329259
-0.00712488
-0.379672
-0.458381
-0.724767
0.449051
-0.482295
0.350038
0.214452
-0.0391637
-0.152696
-0.4047
-0.4067
-0.156659
-0.426244
-0.128071
0.256185
-0.277874
0.0216884
-0.139186
-0.0173551
0.156541
-0.121346
-0.0392386
-0.162396
0.581687
0.0821927
-0.265205
0.33538
-0.0701745
0.205448
-0.26468
0.0592315
0.0421199
-0.14386
-0.0748675
-0.0581861
-0.00505051
-0.157398
0.162449
-0.170155
0.183157
-0.0130018
0.063924
0.0153401
0.491019
-0.653416
0.00848737
-0.397874
-0.188534
0.00519594
0.0656242
-0.0807039
0.0409144
0.172491
-0.213406
0.0192796
-0.0761721
0.0244787
-0.202765
0.178287
0.00845316
0.0337942
0.00480064
0.0997877
-0.0876299
-0.0121578
-0.148219
-0.717025
0.439209
0.334048
-0.0830429
0.267892
-0.185488
-0.625957
0.130172
-0.118403
-0.0117686
0.0303897
-0.00398712
-0.0264026
0.318682
0.0421774
-0.315703
-0.2364
-0.109137
0.345537
0.49125
0.198839
-0.17436
-0.371962
0.25708
0.114882
-0.249399
0.00582628
-0.698811
0.233113
0.465698
-0.0941185
-0.0694081
0.215894
-0.146486
0.00644083
0.143229
-0.14967
0.525682
0.0479553
0.473105
0.127297
0.0327529
0.181699
0.243309
-0.446801
-0.131362
-0.113732
-0.175776
0.289508
-0.279865
-0.360004
-0.263432
-0.435379
0.0569269
-0.313705
0.256778
0.268586
-0.0124006
0.0294209
0.275589
-0.30501
0.0717555
0.368293
-0.440049
-0.711933
0.443093
0.188599
-0.0308829
0.494916
-0.192982
-0.301934
0.0299533
0.0818265
-0.11178
-0.134552
0.0195522
0.115
0.0893766
-0.0732233
-0.0161533
0.603058
-0.403393
-0.199665
-0.0534953
0.125877
0.590888
-0.117783
-0.00669689
0.0488036
0.46095
-0.36185
0.250873
0.0123013
-0.616458
0.489054
0.127404
-0.457442
-0.247822
-0.251195
0.365974
0.237084
0.109466
0.337701
0.172912
-0.285825
-0.000505658
0.00293774
0.0658763
-0.0852508
0.0225009
0.073814
-0.042637
0.0781017
-0.0191686
0.0132228
0.0682064
-0.0814292
-0.290205
0.371896
-0.0816908
0.26263
-0.197689
-0.0649411
0.265429
-0.337754
0.0859468
-0.0944372
0.00849033
-0.123392
0.431305
-0.221775
-0.128078
0.349854
-0.540154
0.145455
0.394699
-0.140002
0.0447779
-0.259427
-0.0158678
-0.0500311
0.0186268
0.00771077
-0.0364817
0.0321942
0.336707
-0.238374
0.117638
-0.138938
-0.00437626
-0.0195535
0.109176
-0.00520523
0.321798
-0.249277
-0.0725214
-0.260721
-0.0278318
0.00301309
0.133906
-0.355681
0.11047
-0.45251
-0.311082
0.095845
-0.209789
-0.220951
-0.547467
0.457429
-0.0520432
-0.416801
0.572605
-0.155804
-0.157029
-0.231555
0.388584
0.160267
0.00331233
0.108811
-0.161662
-0.0892349
-0.254653
-0.0109459
0.131235
-0.00537219
-0.135472
0.140844
-0.0568373
0.0363627
0.0139089
-0.0154726
0.141561
-0.20989
0.183255
0.0266345
0.000153145
-0.442481
-0.705863
0.442431
0.088113
0.248594
-0.50515
-0.0943537
0.0252182
0.0691355
-0.149929
0.128255
0.0216731
-0.193066
0.00637697
0.116077
-0.122454
-0.0715701
0.00506666
0.0665035
-0.151918
-0.388704
-0.15145
0.0214281
-0.0268411
0.0396458
0.0804174
-0.13416
0.605822
-0.161654
-0.444169
0.568735
-0.0777158
0.0135942
0.0329836
0.322586
-0.455814
0.319147
0.136667
0.107464
0.510429
0.105935
-0.359794
-0.293622
-0.0322899
0.0295561
0.00273384
-0.126127
0.121077
-0.1943
0.32211
-0.12781
0.0235227
0.452305
-0.475828
-0.434178
0.17222
0.0120497
-0.151386
0.139336
-0.164635
0.126222
-0.287035
-0.105883
0.591773
-0.00350276
0.037297
-0.164842
0.175915