/*--------------------------------*- C++ -*----------------------------------*\
| =========                 |                                                 |
| \\      /  F ield         | OpenFOAM: The Open Source CFD Toolbox           |
|  \\    /   O peration     | Version:  v2012                                 |
|   \\  /    A nd           | Website:  www.openfoam.com                      |
|    \\/     M anipulation  |                                                 |
\*---------------------------------------------------------------------------*/
FoamFile
{
    version     2.0;
    format      ascii;
    class       volVectorField;
    location    "400";
    object      U;
}
// * * * * * * * * * * * * * * * * * * * * * * * * * * * * * * * * * * * * * //

dimensions      [0 1 -1 0 0 0 0];


internalField   nonuniform List<vector> 
15335
(
(0.778245 0.013056 2.43173e-21)
(1.05194 0.0140999 -9.83014e-21)
(1.03806 -0.0330154 0)
(1.02281 -0.000234727 5.32046e-22)
(1.04542 -0.00419562 2.84505e-21)
(1.0229 0.00341253 -1.08796e-21)
(1.06205 -0.00436458 0)
(1.01867 -0.000236262 1.32151e-22)
(1.02648 0.000153443 3.41977e-22)
(1.02976 -0.00317991 0)
(1.03949 -0.000687312 1.56998e-21)
(1.02269 5.87259e-05 0)
(1.02123 -0.00705972 -1.18252e-21)
(1.04252 -0.0195906 0)
(1.05253 0.00136384 0)
(1.02687 1.24152e-05 5.48387e-24)
(1.05506 0.0133264 5.20018e-21)
(1.06469 -0.0225519 0)
(1.02509 -0.00052684 -2.94075e-22)
(1.04981 0.00250163 -5.13119e-21)
(1.02663 0.00016376 -2.31165e-22)
(0.437038 -0.0475484 1.06187e-20)
(1.04983 -0.00524863 6.55129e-21)
(1.02693 0.000183549 0)
(1.03751 -0.0328447 -1.08448e-21)
(0.67999 0.0133669 0)
(1.06266 0.00304651 0)
(1.02687 0.000507235 2.31512e-22)
(1.05337 0.0021116 -3.65456e-21)
(1.03674 0.00214098 0)
(1.02689 0.000357467 -1.45893e-22)
(1.06089 0.00389275 0)
(1.01955 -0.000193274 0)
(1.02588 -0.00304668 0)
(1.06033 0.00367916 0)
(1.05805 0.00918226 -8.04616e-21)
(1.02961 -0.0031623 0)
(1.02585 -0.00161018 1.99086e-21)
(1.04324 -0.0190499 -2.22397e-21)
(1.06382 -0.0231227 0)
(1.02525 0.000305532 8.81199e-22)
(1.01518 0.015148 -2.05023e-21)
(1.02572 8.66978e-05 -6.23921e-23)
(1.02275 -0.00919542 -1.14918e-21)
(0.882953 -0.00124475 -6.24945e-23)
(1.02626 0.000422944 2.1934e-22)
(1.04708 -0.00733552 -6.26091e-21)
(1.02076 -6.45109e-06 9.30824e-24)
(1.05441 0.00262288 7.97461e-21)
(1.02188 -0.000345579 0)
(1.02709 0.000199199 -1.12645e-22)
(1.02739 0.00038283 2.38885e-22)
(1.03271 -0.00401913 -2.12099e-23)
(1.02708 0.000417413 9.25218e-22)
(0.229088 -0.00266596 -4.36783e-20)
(0.854988 -0.000851018 9.12471e-24)
(1.03699 -0.0318561 0)
(1.02947 0.00152459 0)
(1.02559 -0.00157103 1.86253e-21)
(0.393975 0.0144082 1.12948e-20)
(1.05293 0.0138508 9.50433e-21)
(1.0293 7.27563e-05 0)
(1.0326 -0.00414378 -3.07266e-22)
(1.02729 -0.00268159 -1.73934e-22)
(1.04506 -0.00406562 2.32734e-21)
(0.770349 0.0138265 3.56923e-21)
(0.892605 -0.00135854 -1.30762e-24)
(1.02922 -7.66026e-05 5.91223e-22)
(1.04043 -0.0158424 1.58394e-21)
(1.02578 5.19614e-05 0)
(1.02992 0.00142333 9.62754e-22)
(1.04963 -0.00493045 -4.88371e-21)
(1.03326 -0.00333954 1.05412e-22)
(0.929627 -0.00158187 -2.13067e-23)
(1.02935 -0.00499966 8.56486e-22)
(0.895897 -0.0222658 0)
(1.05417 0.0136686 2.77141e-21)
(1.01643 7.47192e-05 -1.21694e-23)
(1.02295 -0.000159121 -3.76206e-23)
(1.0577 0.00899066 7.58423e-21)
(0.753384 0.0118142 -8.50653e-21)
(1.05134 0.00692253 -6.43631e-21)
(1.05151 0.00697666 0)
(1.05323 0.0102415 5.85609e-23)
(1.03596 -0.0137465 2.01363e-21)
(0.429432 -0.0205625 1.53883e-20)
(1.02728 -0.00281671 -4.30618e-22)
(1.06213 0.00317048 0)
(1.02319 0.00332583 6.36278e-22)
(1.02715 0.000268433 -1.18034e-21)
(0.595632 0.0170137 -1.25675e-23)
(1.01859 -0.00716995 -1.38398e-21)
(0.940074 -0.00139429 9.18906e-23)
(1.03483 0.0156043 6.10084e-21)
(1.04949 0.00250437 4.94184e-21)
(1.05346 0.0102702 -7.4547e-21)
(1.02595 8.67273e-05 0)
(0.77812 0.0138412 8.6906e-21)
(1.02699 0.000357559 0)
(0.773101 0.0137419 1.16549e-20)
(1.02611 0.000100266 5.75203e-23)
(1.02667 -0.00304034 2.03366e-21)
(1.05447 0.0132098 0)
(1.02712 2.22015e-05 8.0891e-26)
(1.02192 -4.54614e-05 0)
(1.02605 8.62467e-05 5.49578e-23)
(0.171847 0.0122276 -9.52102e-21)
(1.02733 -0.0012883 0)
(1.02894 0.00136117 -3.28712e-22)
(1.04467 -0.020618 0)
(1.00642 4.1075e-05 0)
(1.02388 -0.00953912 -1.07411e-21)
(1.02797 0.00157566 0)
(1.01819 -7.63462e-05 0)
(1.01986 -0.000255234 -2.75266e-22)
(1.02657 0.000440648 -4.30736e-22)
(1.05859 -0.00459395 1.28083e-21)
(1.02197 -1.32413e-05 -1.33086e-22)
(1.03014 0.0155191 9.89456e-21)
(0.601995 0.018025 -1.67787e-21)
(1.02688 -0.00310793 -1.29472e-21)
(1.06228 -0.00257989 1.35077e-20)
(-0.0192293 0.0725049 -1.76993e-20)
(1.02528 -0.000564054 0)
(1.05993 0.00415701 3.48517e-21)
(1.02737 0.000536134 -2.18394e-22)
(1.0254 4.73016e-05 0)
(0.55254 -0.0440455 0)
(1.06007 0.00473682 -3.78609e-21)
(1.02901 0.00138413 2.56999e-22)
(1.02783 0.000572228 3.62748e-22)
(1.06269 -0.00302417 -1.81368e-20)
(1.02146 -0.000153862 -4.58469e-22)
(0.769814 0.0129898 0)
(1.02843 0.000405029 2.07012e-22)
(0.976816 -0.00065263 -1.14907e-22)
(1.02749 -0.00187353 -2.94014e-22)
(1.02592 6.2397e-05 -5.2128e-23)
(1.04495 -0.0197967 0)
(1.02613 -0.00309897 3.65171e-22)
(1.03839 -0.00162782 0)
(0.800802 -0.0409361 2.08319e-21)
(1.02287 -0.000228406 0)
(0.69835 0.0121089 8.14308e-23)
(-0.019856 0.0775778 -2.05279e-20)
(1.03919 -0.00336303 3.70633e-21)
(0.867691 -0.0226171 2.23784e-21)
(1.03034 0.00151482 6.82664e-22)
(1.03633 0.00390814 -9.65951e-22)
(1.02193 -0.00874281 -2.4251e-21)
(1.0228 -9.61083e-05 3.65852e-23)
(0.711716 -0.0476531 -4.77457e-21)
(1.02487 -5.72242e-05 1.28819e-23)
(1.04875 0.00461008 0)
(0.873049 -0.0118789 1.21823e-20)
(1.0274 -0.00162136 -8.03285e-22)
(1.0528 0.0104813 -2.90579e-21)
(1.02734 -0.00122148 0)
(1.02674 0.000401273 0)
(1.03539 -0.0133868 -1.75403e-21)
(1.02528 -0.000564017 6.84279e-22)
(1.02819 0.00128358 -7.06597e-22)
(1.03305 -0.00343316 -1.26942e-22)
(1.02447 -0.0109915 0)
(1.03036 0.00157075 -3.53656e-22)
(1.02286 -0.000236671 5.60673e-22)
(1.02722 0.000429263 -1.55639e-22)
(0.68207 -0.049336 1.32721e-20)
(1.02868 0.00035318 0)
(1.02266 0.000111261 0)
(1.04413 -0.00059069 -4.33464e-21)
(1.02739 -0.00176757 3.57445e-22)
(1.03925 -0.00125493 -2.37225e-21)
(1.02745 -0.00173318 9.46021e-22)
(1.02719 -0.007476 -5.18784e-23)
(1.03636 -0.0104486 -7.37518e-22)
(0.758112 0.0107234 0)
(1.02869 0.000360176 0)
(1.0539 0.0100188 -3.86121e-21)
(0.791182 0.0129035 1.2967e-20)
(1.03873 -0.00161806 0)
(1.02784 0.000970882 -3.11782e-22)
(1.02072 -0.000345627 0)
(1.04553 -0.00450333 -2.82522e-21)
(1.04536 -0.00487012 2.38079e-21)
(1.06911 -0.00323966 0)
(1.05303 0.0105278 1.25813e-20)
(1.02734 0.000941628 -5.34403e-22)
(1.02185 7.11287e-05 0)
(0.10012 0.0199194 5.11463e-20)
(1.02203 -0.000168799 -5.03354e-23)
(0.773273 0.0143902 -1.32936e-20)
(1.05449 0.0029907 -1.15333e-20)
(1.02535 0.000313911 -4.57015e-22)
(1.0359 0.000326186 -4.30529e-23)
(1.01426 0.0141781 -8.13096e-21)
(1.03886 -0.00124391 1.81444e-21)
(1.02957 7.81358e-05 0)
(1.04511 -0.0221513 3.6142e-21)
(1.06816 0.00620035 -4.07934e-21)
(1.03107 0.00010132 -1.45679e-23)
(1.02705 -0.00791625 -5.52924e-22)
(1.02722 0.000490213 3.50745e-22)
(1.02142 -0.00873138 0)
(0.763013 0.0136931 -1.57939e-20)
(1.02928 0.0015187 -5.47079e-22)
(1.02654 -0.0327853 -2.82547e-22)
(1.02503 -8.49559e-05 -2.33433e-22)
(1.0613 0.00354729 2.55291e-21)
(0.7732 0.013139 -1.18505e-20)
(1.05529 0.0133509 0)
(1.02671 0.000686076 2.88616e-21)
(1.02575 0.000366054 4.09516e-22)
(1.02829 0.00140002 7.37493e-22)
(1.05424 0.0136843 -5.88448e-21)
(1.02809 -0.00819745 1.67496e-21)
(1.0197 -0.000141095 0)
(1.054 0.00604885 4.70657e-21)
(1.02097 -0.000278631 3.65109e-22)
(1.03946 0.000179122 -3.19847e-23)
(1.03634 -0.0109092 6.93798e-22)
(1.02314 -0.00971219 3.45218e-21)
(0.937651 -0.00128792 3.33672e-21)
(1.05367 0.00999025 0)
(1.01857 -0.000335899 0)
(0.675118 -0.00133815 -1.64377e-20)
(1.05285 -0.0200392 0)
(1.02977 -0.00467124 -2.98949e-22)
(1.0614 -0.00412261 0)
(1.0539 0.0134887 0)
(1.02969 0.00122178 -8.29306e-22)
(1.0693 -0.00393592 0)
(0.77434 0.00704786 0)
(1.05133 0.000496631 5.62355e-21)
(1.03444 -0.00313674 0)
(1.03876 -0.00594633 -1.90185e-21)
(1.0274 0.000309807 8.32626e-22)
(0.631424 -0.00345522 0)
(0.605714 0.017725 -3.81393e-21)
(1.02986 -0.00563101 3.56157e-23)
(1.02223 -0.00929463 1.18675e-21)
(1.03055 0.00635479 5.46991e-24)
(1.02403 -0.0141917 -1.58536e-21)
(1.04449 0.000506576 3.63852e-21)
(0.794431 0.0120255 9.65951e-21)
(1.04578 -0.00659136 1.52116e-21)
(1.00426 -3.55224e-05 -2.21067e-23)
(1.0278 -0.00795913 0)
(0.958922 -0.0219365 0)
(1.03346 0.0156209 -2.54741e-21)
(1.04853 0.004278 3.8038e-21)
(1.02794 0.000252907 -2.74871e-24)
(1.06228 0.00935481 4.69061e-21)
(1.02988 0.00150006 0)
(1.02693 0.000217433 0)
(0.401834 -0.0462306 -1.10566e-20)
(1.02949 -0.00482348 3.64582e-22)
(1.01875 -6.04408e-05 -1.62494e-23)
(0.912469 -0.0010965 -2.70291e-20)
(1.02673 0.000218661 0)
(0.986251 0.0138156 0)
(1.05156 0.0152512 6.27055e-22)
(0.625924 0.0174288 -1.7344e-21)
(1.0698 0.00694346 -4.6748e-21)
(-0.0193635 0.0748621 0)
(0.66553 0.022123 -1.07081e-20)
(0.85024 -0.0111139 1.56037e-20)
(1.02631 0.000241714 -1.85904e-22)
(1.05439 0.0136959 6.02729e-21)
(1.03922 -9.48371e-05 1.95669e-21)
(1.0614 -0.0201673 1.4697e-20)
(1.02579 -1.76182e-05 1.20937e-23)
(0.779383 0.0120471 9.31505e-21)
(1.02867 0.000423357 -2.02022e-22)
(1.03505 -0.00668917 -7.11368e-22)
(0.756616 0.00852375 -2.10113e-20)
(0.411452 0.0334226 0)
(1.02794 0.00114459 0)
(1.03554 0.000390978 -2.16748e-21)
(0.765988 0.0138415 8.95898e-21)
(1.02651 0.000463663 1.13411e-22)
(1.02629 2.30907e-05 1.43344e-22)
(1.03342 -0.00632814 2.65402e-23)
(1.03612 0.00314629 -1.17766e-21)
(1.06197 -0.0190917 3.8521e-21)
(1.03602 0.00336418 2.0799e-21)
(1.03585 -0.0143108 0)
(1.02285 -0.000199036 -2.91643e-22)
(1.06612 0.00575781 0)
(1.04904 0.0045505 4.52343e-21)
(1.06312 0.00901742 0)
(1.04306 -0.00395541 0)
(1.02704 0.000404947 4.5721e-22)
(1.0275 -0.00188543 -8.50282e-22)
(0.652907 0.0216197 8.75025e-21)
(1.04916 0.00143418 -1.12056e-21)
(1.04408 0.000674754 7.15043e-21)
(1.02712 0.000426937 -1.63989e-22)
(1.03892 0.00012106 -1.74484e-21)
(1.03319 -0.00646401 3.24706e-22)
(1.03535 0.00115714 1.73857e-22)
(1.05089 -0.0180076 0)
(0.866651 -0.0053064 1.20071e-21)
(1.02907 0.00127876 3.20914e-22)
(0.858798 -0.0424726 -6.35544e-21)
(1.02646 0.000458262 -1.50363e-22)
(1.02677 0.000500063 0)
(1.04303 0.00211636 -9.34824e-23)
(0.691959 0.0213054 0)
(1.05219 -0.0209512 0)
(0.467787 0.0209117 -1.68467e-20)
(1.04562 0.00527935 -2.26634e-23)
(1.02691 0.00128408 -2.40172e-21)
(0.762068 0.0122332 -9.5337e-21)
(1.02637 0.000429951 4.22924e-22)
(1.02996 0.00149085 0)
(1.02922 0.000318818 -1.21622e-22)
(1.02895 0.000337283 -1.64277e-22)
(1.03912 -0.000494986 4.44164e-22)
(1.01997 -7.82753e-05 -2.04624e-22)
(1.0296 0.00479962 -2.95242e-22)
(1.02134 -0.000283902 0)
(0.805873 -0.00247648 0)
(0.912964 -0.00554882 6.58077e-21)
(1.04925 0.00107396 0)
(-0.0147494 0.0744013 5.41534e-20)
(1.06355 -0.0224881 0)
(1.02897 0.000343245 -1.76523e-22)
(1.02937 0.000288508 -2.2398e-22)
(1.0297 0.000286311 -5.31265e-23)
(1.02554 0.000339386 0)
(0.74945 -0.00485757 -1.86795e-21)
(1.06268 0.014851 -9.60625e-21)
(1.02665 0.000568915 2.73356e-21)
(1.05254 0.0078757 4.06375e-21)
(1.0259 7.2606e-05 -5.67441e-23)
(1.02088 0.000113112 -1.03917e-21)
(1.04819 0.00431844 0)
(1.04255 -0.0206478 0)
(1.01508 0.0137576 0)
(1.03946 -0.0144999 1.42536e-22)
(1.05734 -0.00619327 0)
(1.06054 -0.017841 -1.13498e-20)
(1.03994 -0.0147578 -3.08923e-21)
(1.01097 -1.14448e-05 8.80137e-24)
(0.992736 0.0154613 0)
(1.0455 -0.0213717 -3.51425e-21)
(0.961726 -0.0210531 0)
(1.04449 -0.000793471 2.42183e-21)
(1.04636 0.00577274 -1.03577e-20)
(1.0212 -0.00570003 1.70044e-21)
(1.02923 0.000329088 0)
(1.02211 -0.000295398 1.75946e-22)
(0.722253 -0.0416807 -1.89565e-21)
(0.994044 -0.000972067 4.47635e-21)
(1.04525 0.000738769 -5.26275e-22)
(1.02942 0.0013809 0)
(1.0294 0.00028134 0)
(1.02252 -7.29893e-05 -6.17218e-22)
(0.698498 0.0017916 -8.93518e-22)
(1.02377 0.00283773 -2.66509e-22)
(1.0253 0.000305512 0)
(1.04816 -0.00325693 0)
(1.02353 0.00288945 0)
(1.02531 -0.000659956 2.0613e-22)
(1.02985 0.00138892 -3.48235e-22)
(1.03939 -0.00373241 -1.97187e-21)
(1.03949 -0.000928186 -2.75558e-21)
(1.05469 0.00225244 5.82925e-21)
(1.02503 0.00129709 -2.6765e-22)
(1.02946 0.00133215 0)
(1.02304 -0.000167219 0)
(1.05092 0.000493738 0)
(1.02254 -0.000142288 -1.9739e-23)
(1.02679 0.000316998 0)
(1.02674 0.000468422 1.96139e-22)
(1.02455 -7.64124e-05 1.40864e-24)
(1.02491 -5.32115e-05 -4.47574e-24)
(1.02753 0.00427918 3.90163e-23)
(1.02105 -0.0052527 -6.92376e-21)
(0.914779 -0.0246797 4.49562e-21)
(1.05972 0.00508361 9.39289e-21)
(1.02779 0.00167708 5.7614e-22)
(1.02378 -0.0149073 -5.8599e-22)
(0.639157 0.00221636 -1.73224e-20)
(1.03991 -0.0155909 1.62341e-21)
(1.02597 0.000400667 -8.56338e-22)
(0.870902 0.0102034 1.88707e-20)
(1.02701 0.000149084 1.3211e-21)
(1.02757 -0.00194836 -4.46809e-22)
(1.04122 0.0055517 -1.08822e-21)
(1.02512 -0.0108423 0)
(1.02727 0.000383138 0)
(1.04618 0.00595776 9.79868e-21)
(0.672136 -0.00322683 0)
(1.02851 -0.00577793 1.601e-21)
(1.0339 0.00434336 0)
(1.02481 -6.39651e-05 0)
(1.02283 -7.71888e-05 -4.76159e-24)
(0.890613 0.00877353 -2.24602e-20)
(1.05275 0.000997557 6.90685e-21)
(1.0412 0.000790361 2.58921e-23)
(1.03163 -0.022597 0)
(1.02718 0.000239013 0)
(1.02623 0.000382229 1.34903e-22)
(1.05831 -0.000373495 -1.09381e-20)
(1.02554 0.000150642 1.88212e-22)
(1.03863 0.000639191 -3.54682e-21)
(1.03542 -0.0317927 0)
(1.0335 0.00423682 -1.02452e-21)
(1.02723 0.000230945 -2.80703e-24)
(1.03304 -0.000386513 -1.4062e-21)
(1.02183 -7.87321e-05 3.09758e-23)
(1.04405 0.00112008 -3.92086e-21)
(1.05136 -0.017167 3.72011e-21)
(1.02666 0.000446292 2.17858e-22)
(1.02483 0.00124553 5.74718e-22)
(1.04599 -0.00616483 0)
(1.02736 -0.00160029 7.70869e-22)
(1.02967 0.00118479 1.1402e-21)
(1.05469 0.00751763 0)
(1.0243 -0.000356122 8.73604e-22)
(1.05582 0.0134461 0)
(1.02721 0.00413394 7.2615e-24)
(1.03558 -0.0126939 8.85572e-22)
(1.02372 -0.0133587 -4.26353e-21)
(1.02534 -0.000621009 -1.00229e-22)
(1.0273 -0.00149489 -1.30251e-21)
(1.02746 0.000537226 -2.08027e-22)
(1.05572 0.013805 0)
(0.977137 0.0138424 0)
(1.02845 0.00150066 -2.98305e-22)
(1.01783 -3.40675e-05 6.44967e-24)
(1.04247 0.000624751 9.5422e-23)
(1.02472 -7.30974e-05 0)
(1.02563 0.000152722 0)
(0.83817 0.0119328 -4.41301e-21)
(1.05442 0.00762525 5.91097e-21)
(1.02434 -0.00033161 -4.43213e-22)
(1.05341 0.000620011 7.0493e-24)
(1.0258 8.62991e-05 -6.08419e-23)
(1.02917 -0.00318666 -9.14897e-24)
(1.02316 -0.000158343 -1.85646e-22)
(0.744696 0.0118813 2.65397e-20)
(1.04556 0.00114214 6.47069e-22)
(0.898256 -0.00315663 0)
(1.05056 -0.0100118 2.3283e-21)
(1.02883 0.00533828 -4.05232e-22)
(1.04902 0.00285525 0)
(0.991197 -0.000138404 0)
(1.02918 0.0015089 5.89666e-22)
(0.84848 0.0119332 1.30562e-20)
(1.02473 -0.000525212 0)
(0.362381 0.0112296 -7.75308e-21)
(1.02287 -0.000160597 2.23496e-22)
(1.02735 -0.000858429 0)
(1.05214 0.00594509 0)
(0.96761 0.014167 -2.27227e-21)
(1.02991 0.0013452 0)
(1.03638 0.00364087 -2.29518e-21)
(1.02733 -0.00107003 1.56031e-21)
(1.04691 -0.00781467 7.15604e-21)
(1.03042 0.00150888 0)
(1.04271 -0.00369172 0)
(1.05442 -0.0185748 0)
(0.826346 -0.000484833 -9.779e-25)
(1.01586 -0.000249883 3.03173e-22)
(1.05398 0.0136417 -2.61986e-21)
(1.04551 0.00145178 -2.26698e-21)
(1.04365 0.00125985 -3.6604e-21)
(1.02541 -0.000606256 -1.54732e-21)
(0.806751 0.0123957 -4.949e-21)
(1.04597 0.0051481 -4.90021e-21)
(1.06182 0.000902357 -5.50713e-21)
(1.02916 -0.00234187 -1.81605e-23)
(1.02549 2.80881e-05 0)
(1.02653 -4.1291e-05 1.14007e-22)
(1.0383 -0.00703636 0)
(0.612906 0.0167924 1.54875e-20)
(1.03317 0.00375661 0)
(1.02759 -0.0037424 1.75292e-21)
(1.03136 -0.00459844 2.10653e-22)
(1.02996 -0.004672 2.23701e-22)
(1.02286 -0.000223033 -5.56085e-22)
(1.02276 -9.1361e-05 1.31859e-23)
(0.923857 -0.0233463 0)
(1.02928 -0.00590402 -8.81805e-22)
(1.02934 -0.00323466 0)
(1.02734 0.000492112 -1.74529e-22)
(1.02736 -0.000791754 -5.16628e-22)
(1.02956 0.000451854 -4.91038e-23)
(1.02969 0.000520457 -2.93012e-23)
(1.02565 -4.57331e-06 0)
(1.02421 -7.96929e-05 2.42182e-24)
(0.797162 0.0125618 9.94873e-21)
(0.686487 0.0173865 8.92545e-22)
(0.587907 0.0147209 6.35581e-21)
(1.05184 0.00466654 -1.24061e-21)
(1.05316 0.00173516 0)
(1.05995 -0.0160002 0)
(1.03035 0.00153787 0)
(0.266688 -0.035986 -3.24865e-21)
(1.0292 -0.000196192 0)
(1.05841 -0.00147308 0)
(1.02584 6.06828e-05 -1.35852e-24)
(1.04787 0.000369254 0)
(1.05173 0.00440464 0)
(1.05472 -0.019336 0)
(1.02277 -0.000264877 6.43442e-22)
(1.02942 -0.00439462 7.99413e-22)
(1.02898 -0.00575627 6.20543e-22)
(1.02646 -0.000426115 9.22815e-22)
(1.05702 0.00261444 2.83377e-21)
(1.06161 -0.0182886 -7.78951e-21)
(1.03544 0.000250105 4.26637e-23)
(1.02584 9.64217e-05 1.33486e-22)
(1.03326 0.00122628 -6.30879e-22)
(1.02317 -7.61479e-05 4.94946e-25)
(1.05832 0.00794071 4.8151e-21)
(0.85709 0.00632808 1.7753e-20)
(0.587832 0.0221359 -8.65326e-21)
(0.35796 0.0148308 -9.46283e-21)
(1.04537 0.00222351 -6.73214e-22)
(1.0269 0.000317981 0)
(1.031 -0.0329323 -4.72639e-22)
(1.02906 0.000979079 -3.33517e-22)
(1.04278 0.0030736 -5.9501e-21)
(1.02942 -0.00569697 2.67909e-22)
(1.02714 0.000405716 -3.00364e-22)
(1.02746 -0.000131565 9.06148e-22)
(1.03936 -0.00307583 1.05363e-21)
(1.05928 -0.00465229 -7.71196e-21)
(0.766798 0.0112198 9.15602e-21)
(1.02899 0.000950078 0)
(1.06085 -0.0133446 -6.38493e-21)
(1.03879 -0.0157279 -1.85488e-21)
(0.585822 -0.0410869 0)
(1.02664 0.00158044 0)
(1.02771 0.000218616 -6.52655e-23)
(1.03804 -0.00684575 -1.09055e-21)
(1.02671 0.00117568 0)
(1.05414 -0.0167621 7.10382e-21)
(1.02434 0.000900119 0)
(0.650649 0.0189626 -4.2691e-21)
(1.02706 0.00371831 6.47759e-25)
(0.944585 -0.0064372 6.17211e-21)
(0.815081 0.0126207 -2.72194e-21)
(1.03899 0.000468937 0)
(1.05666 0.00598075 -8.10598e-21)
(1.0512 -0.00993128 -2.56872e-21)
(1.05302 0.00710734 5.07419e-21)
(1.02714 -0.00158459 0)
(1.02553 4.74343e-05 0)
(1.02722 0.000359509 -4.23466e-22)
(0.640339 0.0202475 -4.70144e-21)
(0.681786 0.0167204 -4.37997e-21)
(1.02275 -0.000265839 -6.52257e-22)
(1.02881 -0.00593484 -7.72866e-22)
(1.02972 0.00612953 -2.65011e-22)
(0.715971 0.0183041 0)
(1.04967 -0.0109236 0)
(1.02929 -0.00245269 1.37018e-22)
(1.05273 0.0017231 0)
(1.02833 0.000206782 3.56465e-22)
(1.0208 7.29637e-05 2.41523e-21)
(1.03853 -0.00563351 1.65855e-21)
(1.05119 0.00711666 1.7759e-23)
(1.04667 -0.00698619 0)
(0.825027 0.0120004 -8.96919e-21)
(0.699582 0.0173307 1.22729e-20)
(0.785454 0.00453036 0)
(1.02482 -2.69082e-05 -1.35879e-22)
(1.02394 6.55896e-05 -4.05149e-22)
(1.0586 8.92994e-05 1.27011e-20)
(1.03395 -0.00326872 1.20231e-21)
(1.024 7.31116e-05 3.9677e-22)
(1.02728 -0.00167945 0)
(1.02185 -0.000118711 -9.29958e-24)
(1.03117 0.000531371 7.64872e-22)
(0.879731 0.0103103 0)
(0.963825 -0.00772297 9.23073e-21)
(0.6905 0.0180429 0)
(1.05382 0.006256 -5.71739e-21)
(1.02655 -0.000326373 -8.3133e-22)
(1.05318 0.00243408 4.18945e-21)
(0.0117418 0.0211908 8.84035e-21)
(0.620978 0.0190797 -8.40776e-21)
(0.79835 0.0129895 3.38004e-21)
(1.05074 0.000999594 1.71072e-22)
(1.02685 0.000402777 0)
(1.02773 0.000569314 -3.93101e-22)
(1.02831 -0.00594958 4.60961e-23)
(1.06157 0.016184 -7.69443e-21)
(1.02002 -0.00042993 -7.70249e-22)
(1.02288 -0.000293163 0)
(0.0174854 -0.00417769 -1.73869e-20)
(1.02734 -0.00818531 6.12825e-22)
(0.594688 -0.0461678 -3.68726e-21)
(1.02536 4.14519e-05 -3.85631e-22)
(1.06247 0.00931901 0)
(1.04563 -0.00577286 -2.50485e-21)
(1.05165 0.00509225 -1.04272e-22)
(0.607032 0.0186545 1.26774e-21)
(0.85224 0.00716093 -8.40673e-21)
(1.02685 -0.00720163 1.87838e-21)
(1.02567 0.000361483 0)
(1.04422 -0.0192574 2.92774e-21)
(1.02747 -0.00189431 3.18226e-22)
(0.45917 -0.025508 -1.69599e-21)
(1.05323 0.0069848 6.84305e-21)
(0.518258 -0.0219401 0)
(0.836595 -0.000739727 4.40919e-23)
(1.0717 0.0122352 -2.51807e-21)
(1.0267 0.000480394 -2.19449e-22)
(1.0384 -0.00247212 -6.06067e-23)
(1.03023 -0.0205627 -2.75211e-23)
(1.0582 -0.0051081 -3.31128e-22)
(0.251351 -0.0334062 6.20822e-21)
(1.04421 0.00721965 3.95372e-21)
(1.02642 0.000243221 1.19553e-22)
(1.02263 -0.000177319 2.09377e-22)
(1.02906 -0.0033137 -8.66223e-22)
(1.02893 5.56391e-05 -1.64324e-22)
(1.04048 -0.0060945 1.57783e-21)
(1.06255 -0.00386577 0)
(1.02767 0.000544528 -2.85839e-22)
(1.02611 0.000168659 3.365e-24)
(1.02559 -2.53823e-05 4.33309e-24)
(1.03039 0.00085373 1.64637e-24)
(1.03836 -0.0138255 2.73367e-21)
(1.01986 2.03603e-05 0)
(1.06298 0.00360353 0)
(1.02642 0.000447436 -4.10646e-22)
(1.0458 -0.0053416 -2.78344e-21)
(1.05697 -0.000900135 0)
(0.783027 0.0132837 -2.19618e-22)
(1.06632 0.00489117 0)
(1.03085 0.000495694 5.29224e-22)
(1.02858 0.000461145 -1.42867e-22)
(1.05182 0.00379302 -5.16263e-21)
(1.05665 0.00561447 7.92723e-21)
(1.02636 -0.000255606 0)
(1.02258 3.48171e-05 0)
(1.04159 -0.0343049 6.12208e-21)
(1.02914 0.00558346 6.72571e-22)
(1.0315 -0.0216263 0)
(1.05245 0.00809046 -5.70427e-21)
(1.02652 0.000143914 1.26528e-22)
(1.01892 -1.26553e-05 -2.0552e-22)
(0.573469 0.0178586 -2.72452e-21)
(0.693187 -0.017884 -4.49718e-21)
(1.02929 0.0045784 0)
(1.02689 0.000423376 2.60889e-22)
(1.02532 8.45867e-05 3.88559e-22)
(0.698603 0.0167559 1.67443e-21)
(1.02235 -0.000128282 -2.04674e-24)
(1.0662 -0.0334624 -1.499e-20)
(1.03304 -0.000554122 6.44781e-22)
(1.04066 -0.00576732 -1.61998e-21)
(1.03384 -0.00341635 -1.72607e-21)
(1.02691 0.000229659 -8.16562e-22)
(1.05194 0.0058551 0)
(1.0607 -0.0164914 0)
(0.891719 -0.00575618 6.5516e-22)
(1.0284 0.000461702 1.37288e-22)
(1.02169 0.0153286 -1.95448e-22)
(1.04055 0.00465556 -3.85667e-21)
(1.03587 0.00531289 0)
(1.03613 0.000823197 0)
(1.02699 -0.000160984 0)
(1.0297 0.0012732 8.22696e-22)
(1.04537 0.000450648 0)
(1.04935 0.00285178 0)
(1.02284 -0.000287653 0)
(1.05799 -0.00635959 0)
(1.02298 -0.000154888 1.19103e-22)
(1.02218 0.000220491 0)
(1.02521 -6.45645e-05 0)
(1.00816 -0.000164647 3.8708e-22)
(1.02726 0.00156103 -2.36899e-22)
(1.02543 -9.8099e-06 -7.90763e-22)
(0.856038 -0.000913459 -1.03814e-23)
(1.0179 -8.20876e-05 1.25331e-23)
(1.02739 0.0002282 -7.63206e-23)
(0.652445 -0.0421445 0)
(0.620555 0.0155866 0)
(1.04577 -0.0227844 0)
(1.02545 8.03187e-05 -8.04333e-22)
(1.03723 -0.00820882 -7.57322e-22)
(1.0252 1.28372e-05 0)
(1.02238 -0.00500815 3.81952e-21)
(1.04168 -0.0211085 -4.20464e-21)
(1.02457 -0.000468422 3.10883e-22)
(1.03627 -0.0119775 9.11351e-22)
(1.02222 -0.000142321 3.62308e-22)
(0.625639 0.0187278 0)
(1.02621 -0.0200145 2.28315e-21)
(1.03353 0.00389468 5.75274e-22)
(1.01926 -0.000300378 -7.0298e-23)
(0.542799 0.00072399 1.53949e-20)
(1.0292 -0.00335754 5.63285e-22)
(0.86961 0.012543 -2.38729e-21)
(1.0698 -0.0316137 1.63933e-20)
(1.02132 -0.000307566 0)
(1.02603 0.000101064 -1.22781e-22)
(0.545649 0.0204331 0)
(1.02813 0.00120889 -8.49528e-22)
(1.03809 -0.0160401 1.22442e-21)
(1.05099 0.00705911 6.08697e-21)
(1.04291 0.00295254 1.81181e-22)
(1.02358 -0.000347711 3.70681e-22)
(1.02076 8.03314e-05 7.7739e-22)
(1.0393 0.00211056 0)
(1.02708 -0.000146153 0)
(1.02037 -0.000236491 0)
(0.785569 0.0113395 -9.2752e-21)
(1.02026 -0.0129321 0)
(1.05421 0.0141274 -6.52773e-21)
(1.04822 0.000160773 -2.00553e-21)
(1.02725 -0.00146911 0)
(1.02776 0.000238795 0)
(1.0255 -0.000477726 -2.72013e-22)
(1.03342 -9.41313e-05 -6.00712e-22)
(1.02734 -0.000994991 -1.63509e-21)
(1.03094 -0.0138534 1.41136e-22)
(1.05136 0.00503264 -5.46813e-21)
(0.821331 9.71483e-05 -6.30352e-24)
(0.680889 0.0189154 1.32574e-20)
(1.04102 -0.0154553 1.18583e-22)
(1.03818 0.0154313 -2.90139e-23)
(0.741713 0.0116023 0)
(1.05473 0.00972163 -1.02468e-21)
(1.02738 3.19214e-05 0)
(1.02774 0.000525274 1.66497e-22)
(1.02517 0.000288688 -3.14223e-24)
(1.04096 0.00719319 2.20334e-21)
(1.02658 0.000184793 0)
(1.02971 -0.00581431 -7.28678e-22)
(1.0248 5.35718e-05 1.19987e-22)
(1.02927 0.00118838 4.20584e-22)
(1.02935 0.00121456 0)
(1.0256 0.00014148 -3.68228e-22)
(0.67084 0.0187727 1.01299e-20)
(0.822662 0.0114474 -1.17241e-20)
(1.02459 9.62825e-05 0)
(1.0546 0.0100151 4.24407e-21)
(1.02735 0.00472995 4.86207e-23)
(0.806667 0.0129252 0)
(1.05037 0.000984119 -1.63133e-22)
(1.06094 -0.0144226 1.15177e-20)
(1.02284 -0.000225904 0)
(1.0545 0.00183109 -1.08382e-20)
(1.03554 -0.00414708 -2.31506e-21)
(1.02775 -0.0103222 5.35303e-22)
(1.0353 -0.00402189 2.02355e-21)
(1.02912 6.99469e-05 -3.50221e-24)
(0.695204 0.0191236 0)
(1.03124 0.00116574 3.16231e-22)
(1.05396 0.00569728 4.38015e-21)
(1.04154 0.0153705 5.26527e-21)
(1.01508 8.59468e-05 -3.04806e-23)
(0.835269 0.011911 8.52948e-21)
(1.02532 -0.000524733 4.3952e-22)
(1.07284 0.0125738 2.3616e-21)
(1.02713 0.000213947 2.3058e-22)
(0.616592 0.0205822 0)
(1.02688 0.00471537 -9.5764e-23)
(1.02544 0.000141974 1.02057e-24)
(1.04954 0.00664229 1.21219e-21)
(1.01896 -0.0139259 0)
(1.05521 0.000583 4.55437e-21)
(1.02649 0.000317641 9.10358e-23)
(1.02838 0.00144714 0)
(1.05848 -0.0102164 0)
(1.02799 0.00124237 7.6569e-22)
(1.04813 0.00110559 0)
(1.02728 -0.0102256 0)
(1.05473 0.0132759 0)
(1.02687 0.000299268 0)
(1.04176 0.0028269 0)
(1.06203 -0.0245114 7.55576e-21)
(1.0297 0.00108063 -3.80107e-22)
(1.02731 0.000471457 4.93697e-22)
(1.03745 0.00579377 6.44588e-22)
(0.81025 0.0108158 8.75507e-21)
(1.0269 0.000432064 -1.79205e-21)
(1.02261 -0.000163715 6.47805e-23)
(1.05737 0.00997994 9.36272e-21)
(1.05115 -0.0207844 -2.69331e-21)
(1.03094 -0.0107194 0)
(0.926959 -0.00675483 -1.34392e-21)
(0.828497 -0.000289224 -5.86051e-24)
(1.02739 -0.000186697 -9.21673e-22)
(1.02268 -0.00475006 -3.77554e-21)
(1.0356 0.00548335 0)
(0.830651 0.0122837 -1.3458e-20)
(1.02634 -0.00303274 1.62416e-21)
(1.02912 -0.00211205 1.29079e-22)
(1.06416 -0.0231663 -5.72478e-21)
(1.0377 -0.00976243 1.46256e-21)
(1.05774 0.00994643 -1.10622e-20)
(1.05149 0.00377674 1.37872e-20)
(1.02717 -0.00137218 0)
(1.01237 7.20239e-05 0)
(1.03788 0.00176023 0)
(1.03622 0.00705288 0)
(1.03892 -0.0134764 -2.31444e-21)
(1.04163 0.00540427 2.42032e-21)
(1.02974 0.00115761 -2.78116e-22)
(0.843317 -0.000448753 4.40194e-23)
(1.05278 0.00245114 1.82944e-21)
(1.02801 0.00165566 -1.24082e-23)
(1.03092 -0.0199483 3.01501e-23)
(1.03618 -0.0125442 4.6225e-22)
(1.03152 -0.00402146 -2.39716e-22)
(1.05289 0.0135394 0)
(1.02527 0.000298814 -2.15843e-22)
(1.02134 -0.000388709 -3.8347e-22)
(1.0331 9.9574e-05 1.05005e-21)
(1.05495 -0.0170372 -5.11447e-21)
(1.03428 -0.00329779 0)
(1.0306 0.00119062 3.63136e-22)
(1.02062 0.00165712 1.69025e-21)
(1.05041 -0.021612 0)
(1.0281 -0.00243254 0)
(1.02131 -0.000369233 4.06778e-22)
(1.02514 0.000279054 0)
(1.04741 -0.0180956 -4.36619e-21)
(0.844581 0.00680908 0)
(1.04576 0.00214931 -4.71227e-21)
(1.0538 0.0140289 0)
(1.03164 0.000144988 0)
(1.03104 0.000401592 0)
(1.02964 0.000293131 5.49882e-23)
(0.97902 -0.0285037 2.183e-21)
(1.02707 0.000380146 -2.88364e-22)
(1.02398 4.05969e-05 -6.82442e-22)
(1.02666 0.000465654 -4.1121e-22)
(1.02605 0.000175367 1.09336e-22)
(1.03476 -0.00660963 4.8822e-22)
(1.05775 -0.0131985 0)
(1.02744 0.000295584 -1.26498e-21)
(1.05169 0.00728334 0)
(1.0239 3.59679e-05 4.8589e-22)
(1.02837 0.000337675 -3.13346e-22)
(1.02359 -0.000375278 -3.4411e-22)
(1.0267 1.14454e-05 0)
(0.860049 0.012245 0)
(1.02777 0.000630826 2.41009e-21)
(1.03025 7.99192e-05 5.73589e-24)
(1.02458 -0.000436198 -3.04654e-22)
(1.0226 -0.000136623 -3.04591e-22)
(1.02601 0.00020601 2.33897e-22)
(1.0495 0.00478228 0)
(1.04256 -0.00452958 -2.09073e-21)
(1.02748 -0.000173133 8.16203e-24)
(1.02177 -0.000361602 2.81883e-22)
(0.770612 -0.0126272 0)
(1.02702 -0.00125378 1.21125e-21)
(0.626834 0.0221888 -5.22868e-21)
(1.02558 0.000345527 0)
(1.02733 4.21323e-05 4.40782e-22)
(1.0314 0.0004354 9.56551e-24)
(1.02588 0.000192862 -1.33753e-22)
(1.02986 0.000309739 -6.64037e-23)
(1.03376 -0.0313178 2.77617e-22)
(1.01898 0.0153821 0)
(0.805972 0.0122991 0)
(1.02814 -0.00254116 -4.61069e-22)
(1.04642 -0.0196225 8.99496e-22)
(1.04345 -0.0259472 -2.47223e-21)
(1.05623 -0.00647823 9.13794e-21)
(1.03855 -0.00626296 1.85716e-21)
(1.02741 0.000133018 -8.55101e-23)
(1.06114 -0.0251521 0)
(1.03058 0.000834587 -1.33785e-22)
(1.02803 -0.00379557 1.55248e-21)
(1.02764 -0.00435394 6.14316e-23)
(1.02299 -0.000121712 -6.80017e-22)
(1.03725 0.000800699 -7.85837e-23)
(1.0278 0.000702773 -2.41656e-21)
(1.03819 0.00180382 0)
(1.04471 -0.0032236 4.35592e-21)
(1.02583 4.77414e-05 -1.04921e-22)
(1.03511 0.00393937 0)
(1.02943 0.0010502 0)
(1.02839 0.00141596 -4.09596e-22)
(1.02441 -0.000390013 -9.32009e-24)
(1.06407 0.0034027 1.26784e-20)
(0.964958 -0.000752464 -2.07323e-21)
(1.0206 0.000266022 0)
(1.05651 0.00147491 -5.80024e-21)
(1.02733 0.00389047 -9.26445e-24)
(1.02704 8.99021e-05 -7.86715e-23)
(1.02833 5.9972e-05 0)
(1.04508 -0.00341081 -5.38698e-21)
(0.665298 0.018282 6.78734e-21)
(1.02739 0.000515559 -2.84127e-22)
(0.869109 0.00981445 0)
(0.818675 -0.0371859 9.70873e-24)
(1.0236 -0.000386238 3.94023e-22)
(0.688993 0.00247724 -6.71148e-22)
(1.02789 -0.00236156 -1.18411e-21)
(1.02925 -0.00225585 -7.48991e-23)
(1.04125 -0.0242893 -5.00668e-21)
(1.04144 0.00439314 -2.68166e-21)
(1.05542 0.00100476 -1.07481e-20)
(1.02715 0.000183266 -8.7439e-22)
(0.661621 0.0196886 8.22284e-21)
(1.02734 0.000141764 -8.28174e-23)
(1.05034 -0.0107299 -2.38814e-21)
(1.027 9.45465e-05 0)
(1.07087 -0.00278045 1.13156e-20)
(1.03384 -0.00608611 -1.1293e-21)
(1.02945 -0.00528932 -9.66354e-22)
(1.02987 0.000821286 -2.03115e-22)
(1.05671 -0.00138584 3.96182e-21)
(1.02533 0.00031443 -1.00321e-21)
(1.04224 -0.0237925 0)
(1.02979 0.000824745 4.10099e-22)
(1.02537 -0.000441536 2.56222e-22)
(1.02525 0.000289911 -5.97222e-22)
(1.00986 -6.09303e-05 1.53503e-22)
(1.04359 0.00247266 8.95955e-22)
(0.70649 0.0176312 -2.73504e-20)
(1.02725 0.000253494 8.33583e-22)
(0.835513 0.00962496 -9.50501e-21)
(0.6564 0.0218328 -1.09242e-20)
(1.05154 0.00724624 6.68331e-21)
(1.03489 0.00238855 0)
(0.999853 -4.37106e-05 5.23124e-23)
(0.880322 0.0120631 8.38465e-21)
(1.05849 -0.0128806 0)
(1.05491 0.0164272 3.16048e-21)
(0.844102 -0.000983799 0)
(1.02676 0.000298282 -6.58111e-23)