/*--------------------------------*- C++ -*----------------------------------*\
| =========                 |                                                 |
| \\      /  F ield         | OpenFOAM: The Open Source CFD Toolbox           |
|  \\    /   O peration     | Version:  v2012                                 |
|   \\  /    A nd           | Website:  www.openfoam.com                      |
|    \\/     M anipulation  |                                                 |
\*---------------------------------------------------------------------------*/
FoamFile
{
    version     2.0;
    format      ascii;
    class       volVectorField;
    location    "400";
    object      U_0;
}
// * * * * * * * * * * * * * * * * * * * * * * * * * * * * * * * * * * * * * //

dimensions      [0 1 -1 0 0 0 0];


internalField   nonuniform List<vector> 
15335
(
(0.778245 0.0130561 2.43202e-21)
(1.05194 0.0140994 -9.8315e-21)
(1.03805 -0.0330136 0)
(1.02281 -0.000234727 5.31517e-22)
(1.04542 -0.00419561 2.84549e-21)
(1.0229 0.00341253 -1.08671e-21)
(1.06205 -0.0043636 0)
(1.01867 -0.000236262 1.32106e-22)
(1.02648 0.000153442 3.41874e-22)
(1.02976 -0.00317991 0)
(1.03949 -0.000687316 1.57042e-21)
(1.02269 5.87261e-05 0)
(1.02123 -0.00705831 -1.18243e-21)
(1.04251 -0.019591 0)
(1.05253 0.00136387 0)
(1.02687 1.24091e-05 5.48064e-24)
(1.05506 0.0133258 5.20084e-21)
(1.0647 -0.0225504 0)
(1.02509 -0.000526839 -2.93652e-22)
(1.04981 0.00250163 -5.13197e-21)
(1.02663 0.000163758 -2.31096e-22)
(0.437042 -0.0475582 1.06182e-20)
(1.04983 -0.00524855 6.552e-21)
(1.02693 0.000183547 0)
(1.03751 -0.0328426 -1.08457e-21)
(0.67999 0.0133671 0)
(1.06266 0.00304657 0)
(1.02687 0.000507234 2.31453e-22)
(1.05337 0.00211161 -3.65499e-21)
(1.03674 0.00214249 0)
(1.02689 0.000357465 -1.45853e-22)
(1.06089 0.00389263 0)
(1.01955 -0.000193274 0)
(1.02588 -0.00304698 0)
(1.06033 0.00367908 0)
(1.05805 0.00918153 -8.04698e-21)
(1.02961 -0.00316229 0)
(1.02585 -0.0016105 1.99068e-21)
(1.04324 -0.0190503 -2.22415e-21)
(1.06382 -0.0231217 0)
(1.02525 0.000305533 8.80942e-22)
(1.01518 0.0151486 -2.05047e-21)
(1.02572 8.66968e-05 -6.23736e-23)
(1.02275 -0.00919493 -1.14917e-21)
(0.882953 -0.00124505 -6.24853e-23)
(1.02626 0.000422943 2.19281e-22)
(1.04708 -0.00733551 -6.26165e-21)
(1.02076 -6.45146e-06 9.30852e-24)
(1.05441 0.00262286 7.97549e-21)
(1.02188 -0.000345579 0)
(1.02709 0.000199197 -1.12611e-22)
(1.02739 0.000382828 2.3882e-22)
(1.03271 -0.00401913 -2.12275e-23)
(1.02708 0.000417692 9.25119e-22)
(0.229084 -0.0026623 -4.36776e-20)
(0.854989 -0.000850882 9.12962e-24)
(1.03699 -0.0318555 0)
(1.02947 0.00152528 0)
(1.02559 -0.00157145 1.86239e-21)
(0.393976 0.0144082 1.12953e-20)
(1.05293 0.0138503 9.50564e-21)
(1.0293 7.26892e-05 0)
(1.0326 -0.00414377 -3.07547e-22)
(1.02729 -0.00268166 -1.73899e-22)
(1.04506 -0.00406562 2.3277e-21)
(0.770349 0.0138248 3.56946e-21)
(0.892605 -0.00135924 -1.29796e-24)
(1.02922 -7.66015e-05 5.92413e-22)
(1.04043 -0.0158425 1.58415e-21)
(1.02578 5.19605e-05 0)
(1.02992 0.0014236 9.62642e-22)
(1.04963 -0.00493037 -4.88427e-21)
(1.03326 -0.00333954 1.05481e-22)
(0.929627 -0.00158304 -2.13001e-23)
(1.02935 -0.00499963 8.55991e-22)
(0.895895 -0.0222677 0)
(1.05417 0.0136681 2.77177e-21)
(1.01643 7.4719e-05 -1.21652e-23)
(1.02295 -0.000159121 -3.76089e-23)
(1.0577 0.00898998 7.585e-21)
(0.753385 0.011815 -8.50765e-21)
(1.05134 0.00692243 -6.43742e-21)
(1.05151 0.00697655 0)
(1.05323 0.010241 5.85486e-23)
(1.03596 -0.0137466 2.01416e-21)
(0.429422 -0.0205576 1.53881e-20)
(1.02728 -0.00281679 -4.30539e-22)
(1.06213 0.00317051 0)
(1.02319 0.00332583 6.35483e-22)
(1.02715 0.000268686 -1.18022e-21)
(0.595632 0.0170138 -1.25676e-23)
(1.01859 -0.00716842 -1.3836e-21)
(0.940073 -0.0013957 9.19015e-23)
(1.03483 0.0156033 6.10152e-21)
(1.04949 0.00250437 4.94261e-21)
(1.05346 0.0102697 -7.45583e-21)
(1.02595 8.67265e-05 0)
(0.778121 0.0138395 8.6912e-21)
(1.02699 0.000357557 0)
(0.773101 0.0137403 1.16557e-20)
(1.02611 0.000100265 5.75024e-23)
(1.02667 -0.00304049 2.03335e-21)
(1.05447 0.0132092 0)
(1.02712 2.21942e-05 8.00729e-26)
(1.02192 -4.54616e-05 0)
(1.02605 8.62459e-05 5.49402e-23)
(0.171847 0.0122254 -9.52096e-21)
(1.02733 -0.00128827 0)
(1.02894 0.00136119 -3.28674e-22)
(1.04467 -0.0206186 0)
(1.00642 4.1075e-05 0)
(1.02388 -0.00953876 -1.07407e-21)
(1.02796 0.00157671 0)
(1.01819 -7.63462e-05 0)
(1.01986 -0.000255234 -2.75179e-22)
(1.02657 0.000440648 -4.30622e-22)
(1.05859 -0.00459336 1.28091e-21)
(1.02197 -1.32413e-05 -1.33041e-22)
(1.03014 0.0155207 9.89592e-21)
(0.601994 0.0180249 -1.67807e-21)
(1.02688 -0.00310806 -1.29452e-21)
(1.06228 -0.00257908 1.35084e-20)
(-0.0192292 0.0725033 -1.76992e-20)
(1.02528 -0.000564053 0)
(1.05993 0.00415685 3.48544e-21)
(1.02737 0.000536134 -2.18339e-22)
(1.0254 4.7303e-05 0)
(0.552544 -0.0440549 0)
(1.06007 0.00473658 -3.78637e-21)
(1.02901 0.0013841 2.56969e-22)
(1.02783 0.000572229 3.62658e-22)
(1.06269 -0.00302325 -1.81377e-20)
(1.02146 -0.000153862 -4.5833e-22)
(0.769814 0.0129898 0)
(1.02843 0.000405034 2.06957e-22)
(0.976816 -0.000654226 -1.14841e-22)
(1.02749 -0.00187354 -2.9394e-22)
(1.02592 6.23961e-05 -5.21113e-23)
(1.04495 -0.0197972 0)
(1.02613 -0.00309921 3.65123e-22)
(1.03839 -0.00162783 0)
(0.800803 -0.0409296 2.08247e-21)
(1.02287 -0.000228406 0)
(0.698351 0.0121092 8.1432e-23)
(-0.0198567 0.0775758 -2.05278e-20)
(1.03919 -0.00336304 3.70729e-21)
(0.86769 -0.0226193 2.23787e-21)
(1.03034 0.00151525 6.8261e-22)
(1.03633 0.00390814 -9.66419e-22)
(1.02193 -0.00874212 -2.42506e-21)
(1.0228 -9.61085e-05 3.65727e-23)
(0.711712 -0.0476608 -4.77419e-21)
(1.02487 -5.72251e-05 1.28737e-23)
(1.04875 0.00461006 0)
(0.87305 -0.0118738 1.21823e-20)
(1.0274 -0.00162136 -8.03057e-22)
(1.0528 0.0104808 -2.90624e-21)
(1.02734 -0.00122145 0)
(1.02674 0.000401272 0)
(1.03539 -0.0133869 -1.75448e-21)
(1.02528 -0.000564015 6.83954e-22)
(1.02819 0.00128353 -7.06542e-22)
(1.03305 -0.00343316 -1.27026e-22)
(1.02447 -0.0109913 0)
(1.03036 0.00157113 -3.53626e-22)
(1.02286 -0.000236671 5.6013e-22)
(1.02722 0.000429261 -1.55597e-22)
(0.682068 -0.0493449 1.32713e-20)
(1.02868 0.000353185 0)
(1.02266 0.000111261 0)
(1.04413 -0.000590685 -4.3355e-21)
(1.02739 -0.00176757 3.57269e-22)
(1.03925 -0.00125494 -2.37293e-21)
(1.02745 -0.00173318 9.45751e-22)
(1.02719 -0.00747584 -5.18816e-23)
(1.03636 -0.0104486 -7.37711e-22)
(0.758113 0.0107241 0)
(1.02869 0.000360183 0)
(1.0539 0.0100183 -3.86176e-21)
(0.791183 0.0129015 1.29677e-20)
(1.03873 -0.00161807 0)
(1.02784 0.000971266 -3.11776e-22)
(1.02072 -0.000345627 0)
(1.04553 -0.00450332 -2.82563e-21)
(1.04536 -0.00487011 2.38113e-21)
(1.06911 -0.00323762 0)
(1.05303 0.0105273 1.25833e-20)
(1.02734 0.000942314 -5.34425e-22)
(1.02185 7.11287e-05 0)
(0.100119 0.0199173 5.11459e-20)
(1.02203 -0.000168799 -5.03137e-23)
(0.773273 0.0143884 -1.32944e-20)
(1.05449 0.00299067 -1.15346e-20)
(1.02535 0.000313912 -4.56881e-22)
(1.0359 0.000326183 -4.30495e-23)
(1.01426 0.01418 -8.13206e-21)
(1.03886 -0.00124392 1.81496e-21)
(1.02957 7.80513e-05 0)
(1.04511 -0.0221521 3.61443e-21)
(1.06816 0.00620001 -4.07947e-21)
(1.03107 0.000100351 -1.4506e-23)
(1.02705 -0.00791607 -5.52829e-22)
(1.02722 0.000490213 3.50655e-22)
(1.02142 -0.0087306 0)
(0.763013 0.0136915 -1.5795e-20)
(1.02928 0.00151856 -5.47018e-22)
(1.02654 -0.0327829 -2.83086e-22)
(1.02503 -8.49549e-05 -2.32972e-22)
(1.0613 0.00354723 2.55308e-21)
(0.7732 0.0131389 -1.18518e-20)
(1.05529 0.0133503 0)
(1.02671 0.000686384 2.88585e-21)
(1.02575 0.000366055 4.09402e-22)
(1.02829 0.00139996 7.37435e-22)
(1.05424 0.0136837 -5.88519e-21)
(1.02809 -0.00819732 1.67455e-21)
(1.0197 -0.000141095 0)
(1.054 0.00604865 4.70717e-21)
(1.02097 -0.000278631 3.64947e-22)
(1.03945 0.000174829 -3.19378e-23)
(1.03634 -0.0109092 6.93966e-22)
(1.02314 -0.0097118 3.45207e-21)
(0.937652 -0.0012855 3.33673e-21)
(1.05367 0.00998977 0)
(1.01857 -0.000335899 0)
(0.675121 -0.00133855 -1.64376e-20)
(1.05285 -0.0200398 0)
(1.02977 -0.00467122 -2.98651e-22)
(1.0614 -0.00412173 0)
(1.0539 0.0134881 0)
(1.02969 0.00122189 -8.29179e-22)
(1.0693 -0.00393372 0)
(0.774346 0.0070488 0)
(1.05133 0.000496676 5.62425e-21)
(1.03444 -0.00313674 0)
(1.03876 -0.00594635 -1.9023e-21)
(1.0274 0.000309791 8.32452e-22)
(0.631425 -0.00346132 0)
(0.605713 0.0177248 -3.8143e-21)
(1.02986 -0.00563097 3.56201e-23)
(1.02223 -0.00929409 1.18673e-21)
(1.03055 0.00635479 5.37736e-24)
(1.02403 -0.0141918 -1.58527e-21)
(1.04449 0.000506581 3.63925e-21)
(0.794431 0.0120253 9.66056e-21)
(1.04578 -0.00659137 1.52136e-21)
(1.00426 -3.68581e-05 -2.21116e-23)
(1.0278 -0.007959 0)
(0.95892 -0.0219293 0)
(1.03346 0.0156198 -2.54769e-21)
(1.04853 0.00427799 3.80448e-21)
(1.02794 0.000252904 -2.7481e-24)
(1.06228 0.00935362 4.69089e-21)
(1.02988 0.0015002 0)
(1.02693 0.000217433 0)
(0.401838 -0.0462397 -1.10553e-20)
(1.02949 -0.00482345 3.64318e-22)
(1.01875 -6.04408e-05 -1.62448e-23)
(0.912471 -0.00109432 -2.70292e-20)
(1.02673 0.000218661 0)
(0.986252 0.0138152 0)
(1.05156 0.0152475 6.27103e-22)
(0.625922 0.0174286 -1.73459e-21)
(1.06979 0.00694288 -4.67495e-21)
(-0.0193639 0.0748597 0)
(0.665536 0.0221232 -1.07082e-20)
(0.850242 -0.011109 1.56036e-20)
(1.02631 0.000241714 -1.85851e-22)
(1.05439 0.0136953 6.02801e-21)
(1.03922 -9.48411e-05 1.95726e-21)
(1.0614 -0.0201668 1.46977e-20)
(1.02579 -1.76211e-05 1.20871e-23)
(0.779384 0.012048 9.31628e-21)
(1.02867 0.000423363 -2.01968e-22)
(1.03505 -0.00668918 -7.11652e-22)
(0.756622 0.00852452 -2.10113e-20)
(0.411454 0.0334223 0)
(1.02794 0.00114417 0)
(1.03554 0.000390975 -2.16845e-21)
(0.765988 0.0138401 8.95969e-21)
(1.02651 0.000463662 1.13381e-22)
(1.02629 2.30925e-05 1.42732e-22)
(1.03342 -0.00632813 2.65582e-23)
(1.03612 0.00314629 -1.17821e-21)
(1.06197 -0.0190909 3.85228e-21)
(1.03602 0.00336418 2.08086e-21)
(1.03585 -0.0143108 0)
(1.02285 -0.000199035 -2.91343e-22)
(1.06611 0.00575749 0)
(1.04904 0.00455047 4.52423e-21)
(1.06312 0.00901634 0)
(1.04306 -0.00395541 0)
(1.02704 0.000404945 4.57088e-22)
(1.0275 -0.00188543 -8.49872e-22)
(0.652908 0.0216192 8.7508e-21)
(1.04916 0.0014342 -1.12073e-21)
(1.04408 0.000674757 7.15195e-21)
(1.02712 0.000426935 -1.63946e-22)
(1.03892 0.000121057 -1.74538e-21)
(1.03319 -0.00646399 3.24967e-22)
(1.03535 0.00115871 1.73881e-22)
(1.05089 -0.018008 0)
(0.866652 -0.00531241 1.20116e-21)
(1.02907 0.00128006 3.20936e-22)
(0.85879 -0.0424803 -6.35565e-21)
(1.02646 0.000458262 -1.50323e-22)
(1.02677 0.000500063 0)
(1.04303 0.00211549 -9.35016e-23)
(0.691966 0.0213057 0)
(1.05219 -0.0209521 0)
(0.467789 0.020911 -1.68468e-20)
(1.04562 0.00527934 -2.26787e-23)
(1.02691 0.00128438 -2.40142e-21)
(0.762069 0.012234 -9.53496e-21)
(1.02637 0.000429951 4.22811e-22)
(1.02996 0.00149107 0)
(1.02922 0.000318807 -1.21585e-22)
(1.02895 0.000337282 -1.64229e-22)
(1.03912 -0.00049499 4.44292e-22)
(1.01997 -7.82753e-05 -2.04481e-22)
(1.0296 0.00479962 -2.95751e-22)
(1.02134 -0.000283902 0)
(0.80588 -0.00248343 0)
(0.912965 -0.00554539 6.58077e-21)
(1.04925 0.00107398 0)
(-0.0147493 0.0743997 5.41532e-20)
(1.06355 -0.0224873 0)
(1.02897 0.000343247 -1.76472e-22)
(1.02937 0.000288493 -2.23909e-22)
(1.0297 0.000286296 -5.31096e-23)
(1.02554 0.000339386 0)
(0.749455 -0.00486574 -1.8677e-21)
(1.06268 0.0148471 -9.607e-21)
(1.02665 0.000569425 2.73329e-21)
(1.05254 0.00787549 4.0644e-21)
(1.0259 7.26052e-05 -5.67261e-23)
(1.02088 0.000113112 -1.03828e-21)
(1.04819 0.00431843 0)
(1.04255 -0.0206483 0)
(1.01508 0.0137565 0)
(1.03946 -0.0145001 1.42541e-22)
(1.05734 -0.00619273 0)
(1.06054 -0.0178403 -1.13503e-20)
(1.03994 -0.014758 -3.08969e-21)
(1.01097 -1.14449e-05 8.79653e-24)
(0.992736 0.0154621 0)
(1.0455 -0.0213724 -3.51447e-21)
(0.961724 -0.021046 0)
(1.04449 -0.000793465 2.42229e-21)
(1.04636 0.00577273 -1.036e-20)
(1.0212 -0.00569881 1.70032e-21)
(1.02923 0.000329079 0)
(1.02211 -0.000295398 1.75893e-22)
(0.722252 -0.0416733 -1.89492e-21)
(0.994046 -0.000980857 4.47677e-21)
(1.04525 0.000738775 -5.2638e-22)
(1.02942 0.00138096 0)
(1.0294 0.000281326 0)
(1.02252 -7.29893e-05 -6.16518e-22)
(0.698496 0.0017904 -8.93351e-22)
(1.02377 0.00283773 -2.66101e-22)
(1.0253 0.000305512 0)
(1.04816 -0.00325688 0)
(1.02353 0.00288945 0)
(1.02531 -0.000661341 2.06114e-22)
(1.02985 0.00138916 -3.48197e-22)
(1.03939 -0.00373242 -1.97237e-21)
(1.03949 -0.000928191 -2.75635e-21)
(1.05469 0.00225245 5.82988e-21)
(1.02503 0.00129709 -2.66956e-22)
(1.02945 0.00133222 0)
(1.02304 -0.000167219 0)
(1.05092 0.000493779 0)
(1.02254 -0.000142288 -1.97192e-23)
(1.02679 0.000316997 0)
(1.02674 0.000468422 1.96086e-22)
(1.02455 -7.64123e-05 1.41053e-24)
(1.02491 -5.32123e-05 -4.47288e-24)
(1.02753 0.00427918 3.96239e-23)
(1.02105 -0.00525154 -6.92333e-21)
(0.914779 -0.0246725 4.49579e-21)
(1.05972 0.00508332 9.39363e-21)
(1.02779 0.00167643 5.76078e-22)
(1.02378 -0.0149074 -5.85958e-22)
(0.639161 0.0022158 -1.73224e-20)
(1.03991 -0.0155911 1.62364e-21)
(1.02597 0.000400667 -8.56101e-22)
(0.870906 0.0102016 1.88711e-20)
(1.02701 0.000149073 1.32078e-21)
(1.02757 -0.00194836 -4.46562e-22)
(1.04122 0.0055517 -1.08857e-21)
(1.02512 -0.0108422 0)
(1.02727 0.000383136 0)
(1.04618 0.00595775 9.80087e-21)
(0.672139 -0.00323206 0)
(1.02851 -0.00577787 1.60049e-21)
(1.0339 0.00434336 0)
(1.02481 -6.39655e-05 0)
(1.02283 -7.71886e-05 -4.75562e-24)
(0.890616 0.00877181 -2.24606e-20)
(1.05275 0.000997603 6.90765e-21)
(1.0412 0.000789071 2.58774e-23)
(1.03163 -0.0225968 0)
(1.02718 0.000239013 0)
(1.02623 0.00038223 1.34205e-22)
(1.05831 -0.000373212 -1.09389e-20)
(1.02554 0.000150642 1.88157e-22)
(1.03863 0.000639188 -3.54797e-21)
(1.03542 -0.0317917 0)
(1.0335 0.00423682 -1.02527e-21)
(1.02723 0.000230944 -2.80674e-24)
(1.03304 -0.000386514 -1.40713e-21)
(1.02183 -7.8732e-05 3.0952e-23)
(1.04405 0.00112008 -3.92169e-21)
(1.05136 -0.0171674 3.72034e-21)
(1.02666 0.000446292 2.17801e-22)
(1.02483 0.00124553 5.73295e-22)
(1.04599 -0.00616483 0)
(1.02736 -0.00160029 7.70628e-22)
(1.02967 0.00118487 1.14002e-21)
(1.05469 0.00751731 0)
(1.0243 -0.000356121 8.73168e-22)
(1.05582 0.013445 0)
(1.02721 0.00413394 7.50832e-24)
(1.03558 -0.0126939 8.85803e-22)
(1.02372 -0.0133591 -4.26363e-21)
(1.02534 -0.000621008 -1.00097e-22)
(1.0273 -0.00149489 -1.30211e-21)
(1.02746 0.000537226 -2.07975e-22)
(1.05573 0.0138038 0)
(0.977138 0.0138423 0)
(1.02845 0.00150153 -2.98284e-22)
(1.01783 -3.40677e-05 6.44357e-24)
(1.04247 0.000623649 9.53927e-23)
(1.02472 -7.30981e-05 0)
(1.02563 0.000152722 0)
(0.838171 0.0119335 -4.41356e-21)
(1.05442 0.00762493 5.91176e-21)
(1.02434 -0.00033161 -4.42994e-22)
(1.05341 0.000620079 7.06138e-24)
(1.0258 8.62982e-05 -6.0823e-23)
(1.02917 -0.00318665 -9.15245e-24)
(1.02316 -0.000158343 -1.85586e-22)
(0.744702 0.0118819 2.65397e-20)
(1.04556 0.00114215 6.47192e-22)
(0.898257 -0.00315368 0)
(1.05056 -0.0100118 2.3285e-21)
(1.02883 0.00533828 -4.06448e-22)
(1.04902 0.00285525 0)
(0.991198 -0.00013992 0)
(1.02918 0.00150882 5.896e-22)
(0.848481 0.011934 1.30579e-20)
(1.02473 -0.000525211 0)
(0.36238 0.0112295 -7.75398e-21)
(1.02287 -0.000160598 2.23424e-22)
(1.02735 -0.000858375 0)
(1.05214 0.00594498 0)
(0.967611 0.0141663 -2.27252e-21)
(1.02991 0.0013454 0)
(1.03638 0.00364087 -2.29624e-21)
(1.02733 -0.00106999 1.56e-21)
(1.04691 -0.00781468 7.15689e-21)
(1.03042 0.00150935 0)
(1.04271 -0.00369173 0)
(1.05442 -0.0185751 0)
(0.826345 -0.000482964 -9.66465e-25)
(1.01586 -0.000249883 3.02991e-22)
(1.05398 0.0136413 -2.6202e-21)
(1.04551 0.00145178 -2.26743e-21)
(1.04365 0.00125985 -3.66121e-21)
(1.02541 -0.000606254 -1.54657e-21)
(0.806752 0.0123963 -4.9496e-21)
(1.04597 0.00514809 -4.9013e-21)
(1.06182 0.000905283 -5.5072e-21)
(1.02916 -0.00234186 -1.80835e-23)
(1.02549 2.80858e-05 0)
(1.02653 -4.12894e-05 1.13366e-22)
(1.0383 -0.00703638 0)
(0.612905 0.0167924 1.54893e-20)
(1.03317 0.00375661 0)
(1.02759 -0.00374244 1.75252e-21)
(1.03136 -0.00459843 2.11261e-22)
(1.02996 -0.00467198 2.2351e-22)
(1.02286 -0.000223032 -5.55546e-22)
(1.02276 -9.13609e-05 1.31713e-23)
(0.923856 -0.0233391 0)
(1.02928 -0.00590397 -8.81408e-22)
(1.02934 -0.00323465 0)
(1.02734 0.000492111 -1.74485e-22)
(1.02736 -0.000791704 -5.16526e-22)
(1.02956 0.000452999 -4.90953e-23)
(1.02969 0.000521762 -2.92998e-23)
(1.02565 -4.57209e-06 0)
(1.02421 -7.96932e-05 2.424e-24)
(0.797163 0.0125623 9.94995e-21)
(0.686486 0.0173857 8.92616e-22)
(0.587906 0.0147209 6.3567e-21)
(1.05184 0.00466647 -1.24079e-21)
(1.05316 0.00173518 0)
(1.05995 -0.0159995 0)
(1.03035 0.00153825 0)
(0.266691 -0.0359954 -3.24849e-21)
(1.0292 -0.000196191 0)
(1.05841 -0.00147271 0)
(1.02584 6.06821e-05 -1.35812e-24)
(1.04787 0.000369274 0)
(1.05173 0.00440458 0)
(1.05472 -0.0193365 0)
(1.02277 -0.000264877 6.43e-22)
(1.02942 -0.0043946 7.98873e-22)
(1.02898 -0.00575622 6.20276e-22)
(1.02646 -0.000425631 9.2276e-22)
(1.05702 0.00261657 2.83381e-21)
(1.06162 -0.0182878 -7.78989e-21)
(1.03544 0.000246958 4.26378e-23)
(1.02584 9.64206e-05 1.33445e-22)
(1.03326 0.00122628 -6.31256e-22)
(1.02317 -7.61482e-05 4.95296e-25)
(1.05832 0.00794011 4.81554e-21)
(0.857094 0.0063285 1.77531e-20)
(0.587835 0.0221358 -8.6537e-21)
(0.35796 0.0148293 -9.46284e-21)
(1.04537 0.00222351 -6.73349e-22)
(1.0269 0.000317981 0)
(1.031 -0.0329294 -4.72862e-22)
(1.02906 0.000979108 -3.33455e-22)
(1.04278 0.00307519 -5.95016e-21)
(1.02942 -0.00569692 2.67776e-22)
(1.02714 0.000405713 -3.00284e-22)
(1.02747 -0.000131559 9.05972e-22)
(1.03936 -0.00307584 1.05389e-21)
(1.05928 -0.00465164 -7.71243e-21)
(0.766799 0.01122 9.15732e-21)
(1.02899 0.000950102 0)
(1.06086 -0.0133436 -6.38524e-21)
(1.03879 -0.015728 -1.85518e-21)
(0.58582 -0.0410787 0)
(1.02664 0.00158083 0)
(1.02771 0.000218612 -6.52457e-23)
(1.03804 -0.00684577 -1.09083e-21)
(1.02671 0.0011765 0)
(1.05414 -0.0167622 7.10424e-21)
(1.02434 0.000900119 0)
(0.650654 0.0189624 -4.26923e-21)
(1.02706 0.00371831 6.80216e-25)
(0.944585 -0.00643342 6.17212e-21)
(0.815081 0.0126198 -2.72221e-21)
(1.03899 0.000468933 0)
(1.05666 0.00598045 -8.10682e-21)
(1.0512 -0.0099312 -2.56894e-21)
(1.05302 0.00710713 5.07494e-21)
(1.02714 -0.00158459 0)
(1.02553 4.74336e-05 0)
(1.02722 0.000359507 -4.23351e-22)
(0.640339 0.0202471 -4.70175e-21)
(0.68179 0.01672 -4.38007e-21)
(1.02275 -0.000265839 -6.51809e-22)
(1.02881 -0.00593478 -7.72606e-22)
(1.02972 0.00612953 -2.65669e-22)
(0.715978 0.0183043 0)
(1.04967 -0.0109236 0)
(1.02929 -0.00245269 1.36511e-22)
(1.05273 0.00172312 0)
(1.02833 0.000206783 3.57792e-22)
(1.02079 7.61794e-05 2.41623e-21)
(1.03853 -0.00563353 1.65897e-21)
(1.05119 0.00711657 1.77432e-23)
(1.04667 -0.00698619 0)
(0.825028 0.0120012 -8.97034e-21)
(0.699586 0.0173301 1.22732e-20)
(0.78546 0.00453155 0)
(1.02482 -2.69073e-05 -1.35642e-22)
(1.02394 6.55893e-05 -4.05025e-22)
(1.0586 8.95574e-05 1.27021e-20)
(1.03395 -0.00326872 1.20297e-21)
(1.024 7.31113e-05 3.96648e-22)
(1.02728 -0.00167945 0)
(1.02185 -0.000118711 -9.28938e-24)
(1.03117 0.00053137 7.65615e-22)
(0.879734 0.0103083 0)
(0.963824 -0.00771863 9.23078e-21)
(0.690506 0.0180433 0)
(1.05381 0.00625579 -5.71816e-21)
(1.02655 -0.000325846 -8.31256e-22)
(1.05318 0.00243407 4.18994e-21)
(0.0117419 0.0211886 8.84024e-21)
(0.620977 0.0190797 -8.40872e-21)
(0.798351 0.0129874 3.38023e-21)
(1.05074 0.000999623 1.71096e-22)
(1.02685 0.000402775 0)
(1.02773 0.000569315 -3.93004e-22)
(1.02831 -0.00594951 4.60993e-23)
(1.06156 0.0161825 -7.69558e-21)
(1.02002 -0.00042993 -7.69761e-22)
(1.02288 -0.000293163 0)
(0.0174822 -0.00417551 -1.73881e-20)
(1.02734 -0.00818515 6.12719e-22)
(0.59469 -0.0461716 -3.68774e-21)
(1.02536 4.145e-05 -3.85505e-22)
(1.06247 0.00931771 0)
(1.04563 -0.00577286 -2.5052e-21)
(1.05165 0.00509217 -1.04287e-22)
(0.607032 0.0186542 1.26785e-21)
(0.852244 0.00716094 -8.40679e-21)
(1.02685 -0.00720146 1.87807e-21)
(1.02567 0.000361483 0)
(1.04422 -0.0192578 2.92798e-21)
(1.02747 -0.00189433 3.18145e-22)
(0.459173 -0.0255123 -1.69591e-21)
(1.05323 0.00698459 6.84402e-21)
(0.518261 -0.0219442 0)
(0.836593 -0.000738712 4.40602e-23)
(1.0717 0.0122332 -2.51821e-21)
(1.0267 0.000480394 -2.19392e-22)
(1.0384 -0.00247213 -6.06127e-23)
(1.03023 -0.0205626 -2.76352e-23)
(1.0582 -0.00510752 -3.3115e-22)
(0.251354 -0.0334103 6.20685e-21)
(1.04421 0.00721964 3.95479e-21)
(1.02642 0.000243221 1.19519e-22)
(1.02263 -0.000177319 2.09309e-22)
(1.02906 -0.0033137 -8.6545e-22)
(1.02893 5.56401e-05 -1.64693e-22)
(1.04048 -0.00609452 1.57815e-21)
(1.06255 -0.00386477 0)
(1.02767 0.000544528 -2.85768e-22)
(1.02611 0.000168659 3.3643e-24)
(1.02559 -2.53848e-05 4.33139e-24)
(1.03039 0.000853756 1.64728e-24)
(1.03836 -0.0138256 2.73414e-21)
(1.01986 2.03604e-05 0)
(1.06298 0.00360354 0)
(1.02642 0.000447436 -4.10536e-22)
(1.0458 -0.0053416 -2.78383e-21)
(1.05697 -0.000899881 0)
(0.783028 0.0132818 -2.19631e-22)
(1.06632 0.00489112 0)
(1.03085 0.000495693 5.29824e-22)
(1.02858 0.000461142 -1.4283e-22)
(1.05182 0.00379298 -5.16336e-21)
(1.05665 0.00561421 7.92804e-21)
(1.02636 -0.000255605 0)
(1.02258 3.48173e-05 0)
(1.04158 -0.034304 6.12191e-21)
(1.02914 0.00558346 6.74432e-22)
(1.0315 -0.0216261 0)
(1.05245 0.00809025 -5.70518e-21)
(1.02652 0.000143913 1.26489e-22)
(1.01892 -1.26553e-05 -2.05433e-22)
(0.573468 0.0178586 -2.72493e-21)
(0.693186 -0.0178831 -4.49721e-21)
(1.02929 0.0045784 0)
(1.02689 0.000423374 2.6082e-22)
(1.02532 8.45849e-05 3.88433e-22)
(0.698602 0.0167549 1.67456e-21)
(1.02235 -0.000128282 -2.04577e-24)
(1.0662 -0.0334661 -1.49908e-20)
(1.03304 -0.000554124 6.45196e-22)
(1.04066 -0.00576734 -1.62031e-21)
(1.03384 -0.00341634 -1.72703e-21)
(1.02691 0.00022965 -8.1636e-22)
(1.05194 0.005855 0)
(1.06071 -0.0164906 0)
(0.891721 -0.00576442 6.55276e-22)
(1.0284 0.0004617 1.37253e-22)
(1.02169 0.0153297 -1.95477e-22)
(1.04055 0.00465556 -3.85788e-21)
(1.03587 0.00531289 0)
(1.03613 0.000822521 0)
(1.02699 -0.000160988 0)
(1.0297 0.00127335 8.2258e-22)
(1.04537 0.000450656 0)
(1.04935 0.00285177 0)
(1.02284 -0.000287652 0)
(1.05799 -0.00635899 0)
(1.02298 -0.000154888 1.19065e-22)
(1.02218 0.000220491 0)
(1.02521 -6.45633e-05 0)
(1.00816 -0.000164647 3.86921e-22)
(1.02726 0.00156157 -2.36892e-22)
(1.02543 -9.81201e-06 -7.90493e-22)
(0.856037 -0.000912906 -1.04027e-23)
(1.0179 -8.20878e-05 1.25288e-23)
(1.02739 0.000228198 -7.62983e-23)
(0.652444 -0.0421377 0)
(0.620554 0.0155866 0)
(1.04577 -0.0227853 0)
(1.02545 8.03166e-05 -8.04076e-22)
(1.03723 -0.00820885 -7.57527e-22)
(1.0252 1.28385e-05 0)
(1.02238 -0.00500745 3.81924e-21)
(1.04168 -0.0211089 -4.20499e-21)
(1.02457 -0.000468421 3.10504e-22)
(1.03627 -0.0119776 9.11603e-22)
(1.02222 -0.000142322 3.62199e-22)
(0.625638 0.0187274 0)
(1.02621 -0.0200147 2.28307e-21)
(1.03353 0.00389468 5.75658e-22)
(1.01926 -0.000300378 -7.02647e-23)
(0.542801 0.000722816 1.53948e-20)
(1.0292 -0.00335753 5.62724e-22)
(0.869611 0.0125434 -2.38758e-21)
(1.06981 -0.0316165 1.63942e-20)
(1.02132 -0.000307566 0)
(1.02603 0.000101063 -1.22742e-22)
(0.545651 0.020433 0)
(1.02813 0.0012087 -8.49452e-22)
(1.03809 -0.0160402 1.22462e-21)
(1.05099 0.00705902 6.08806e-21)
(1.04291 0.00294851 1.81162e-22)
(1.02358 -0.00034771 3.70306e-22)
(1.02076 8.03314e-05 7.76635e-22)
(1.03929 0.0021105 0)
(1.02708 -0.000146157 0)
(1.02037 -0.000236491 0)
(0.78557 0.0113399 -9.27652e-21)
(1.02026 -0.0129321 0)
(1.05421 0.0141268 -6.52847e-21)
(1.04822 0.000160797 -2.00584e-21)
(1.02725 -0.00146911 0)
(1.02776 0.000238791 0)
(1.0255 -0.000477725 -2.71896e-22)
(1.03342 -9.41336e-05 -6.01093e-22)
(1.02734 -0.000994946 -1.63478e-21)
(1.03094 -0.0138534 1.40768e-22)
(1.05136 0.00503257 -5.46899e-21)
(0.82133 9.72779e-05 -6.3079e-24)
(0.680892 0.0189148 1.32579e-20)
(1.04102 -0.0154555 1.18584e-22)
(1.03818 0.0154295 -2.90158e-23)
(0.741713 0.0116026 0)
(1.05473 0.00972113 -1.02481e-21)
(1.02738 3.19088e-05 0)
(1.02774 0.000525273 1.66455e-22)
(1.02517 0.000288688 -3.14047e-24)
(1.04096 0.00719318 2.20406e-21)
(1.02658 0.000184792 0)
(1.02971 -0.00581427 -7.28193e-22)
(1.0248 5.35727e-05 1.19751e-22)
(1.02927 0.00118839 4.20524e-22)
(1.02935 0.00121456 0)
(1.0256 0.00014148 -3.68121e-22)
(0.670844 0.0187724 1.01302e-20)
(0.822663 0.0114471 -1.17258e-20)
(1.02459 9.62834e-05 0)
(1.0546 0.0100146 4.24464e-21)
(1.02735 0.00472995 4.97089e-23)
(0.806668 0.012923 0)
(1.05037 0.000984146 -1.63155e-22)
(1.06094 -0.0144216 1.15182e-20)
(1.02284 -0.000225904 0)
(1.0545 0.00183111 -1.08394e-20)
(1.03554 -0.00414709 -2.31597e-21)
(1.02775 -0.0103221 5.35188e-22)
(1.0353 -0.0040219 2.02441e-21)
(1.02912 6.98917e-05 -3.49916e-24)
(0.69521 0.0191239 0)
(1.03124 0.00116563 3.16191e-22)
(1.05396 0.0056971 4.3807e-21)
(1.04154 0.0153682 5.26578e-21)
(1.01508 8.59467e-05 -3.0471e-23)
(0.835269 0.011912 8.53058e-21)
(1.02532 -0.000524731 4.39324e-22)
(1.07284 0.0125716 2.36174e-21)
(1.02713 0.000213946 2.30512e-22)
(0.616593 0.0205819 0)
(1.02688 0.00471537 -9.4859e-23)
(1.02544 0.000141974 1.02119e-24)
(1.04954 0.00664224 1.21243e-21)
(1.01896 -0.0139262 0)
(1.05521 0.000583103 4.55481e-21)
(1.02649 0.000317642 9.03364e-23)
(1.02838 0.00144733 0)
(1.05849 -0.0102157 0)
(1.02799 0.00124205 7.65621e-22)
(1.04813 0.0011056 0)
(1.02728 -0.0102254 0)
(1.05473 0.0132753 0)
(1.02687 0.000299268 0)
(1.04176 0.00282366 0)
(1.06204 -0.0245115 7.55614e-21)
(1.0297 0.00108063 -3.80676e-22)
(1.02731 0.000471456 4.93568e-22)
(1.03745 0.00579377 6.44878e-22)
(0.810251 0.0108158 8.75638e-21)
(1.0269 0.000432492 -1.79187e-21)
(1.02261 -0.000163716 6.47523e-23)
(1.05737 0.0099792 9.36371e-21)
(1.05115 -0.0207852 -2.69346e-21)
(1.03094 -0.0107194 0)
(0.926956 -0.00675125 -1.34389e-21)
(0.828497 -0.000289196 -5.89943e-24)
(1.02739 -0.000186692 -9.21494e-22)
(1.02268 -0.00474956 -3.77526e-21)
(1.0356 0.00548335 0)
(0.830653 0.0122815 -1.34587e-20)
(1.02634 -0.00303297 1.62394e-21)
(1.02912 -0.00211205 1.28062e-22)
(1.06416 -0.0231646 -5.72506e-21)
(1.0377 -0.00976247 1.46289e-21)
(1.05774 0.00994566 -1.10634e-20)
(1.05149 0.0037767 1.37892e-20)
(1.02717 -0.00137218 0)
(1.01237 7.20239e-05 0)
(1.03788 0.00176229 0)
(1.03622 0.00705288 0)
(1.03892 -0.0134765 -2.31483e-21)
(1.04163 0.00540427 2.42104e-21)
(1.02974 0.00115765 -2.78068e-22)
(0.843317 -0.000448867 4.40573e-23)
(1.05278 0.00245113 1.82965e-21)
(1.02801 0.00165521 -1.24097e-23)
(1.03092 -0.0199482 3.02751e-23)
(1.03618 -0.0125442 4.62335e-22)
(1.03152 -0.00402144 -2.40174e-22)
(1.05289 0.0135387 0)
(1.02527 0.000298814 -2.1578e-22)
(1.02134 -0.000388709 -3.83265e-22)
(1.0331 9.95719e-05 1.05073e-21)
(1.05495 -0.0170373 -5.11475e-21)
(1.03428 -0.00329779 0)
(1.0306 0.00119033 3.63072e-22)
(1.02062 0.00165712 1.68895e-21)
(1.05041 -0.0216129 0)
(1.0281 -0.00243254 0)
(1.02131 -0.000369233 4.06497e-22)
(1.02514 0.000279054 0)
(1.04741 -0.0180961 -4.3665e-21)
(0.844585 0.00680924 0)
(1.04576 0.00214931 -4.71319e-21)
(1.0538 0.0140284 0)
(1.03164 0.000144267 0)
(1.03104 0.000401487 0)
(1.02964 0.000293114 5.49708e-23)
(0.979023 -0.0285045 2.18267e-21)
(1.02707 0.000380144 -2.88286e-22)
(1.02398 4.05966e-05 -6.82236e-22)
(1.02666 0.000465653 -4.11102e-22)
(1.02605 0.000175367 1.09304e-22)
(1.03476 -0.00660963 4.88441e-22)
(1.05775 -0.0131979 0)
(1.02744 0.000295566 -1.26471e-21)
(1.05169 0.00728322 0)
(1.0239 3.59677e-05 4.85743e-22)
(1.02837 0.000337676 -3.14277e-22)
(1.02359 -0.000375278 -3.43785e-22)
(1.0267 1.14409e-05 0)
(0.86005 0.0122452 0)
(1.02777 0.000630658 2.40979e-21)
(1.03025 7.97411e-05 5.72379e-24)
(1.02458 -0.000436197 -3.04283e-22)
(1.0226 -0.000136623 -3.04259e-22)
(1.02601 0.00020601 2.3383e-22)
(1.0495 0.00478225 0)
(1.04256 -0.00452959 -2.09111e-21)
(1.02748 -0.000173131 8.87644e-24)
(1.02177 -0.000361602 2.81694e-22)
(0.770611 -0.0126264 0)
(1.02702 -0.00125378 1.21082e-21)
(0.626835 0.0221885 -5.22898e-21)
(1.02558 0.000345528 0)
(1.02733 4.21191e-05 4.40686e-22)
(1.0314 0.000435213 9.56625e-24)
(1.02588 0.000192862 -1.33714e-22)
(1.02986 0.000309623 -6.63752e-23)
(1.03376 -0.0313162 2.78397e-22)
(1.01898 0.0153811 0)
(0.805972 0.0122986 0)
(1.02814 -0.00254116 -4.60824e-22)
(1.04642 -0.0196231 8.99555e-22)
(1.04344 -0.0259481 -2.47233e-21)
(1.05623 -0.00647779 9.1386e-21)
(1.03855 -0.00626298 1.85762e-21)
(1.02741 0.000133001 -8.5492e-23)
(1.06114 -0.0251526 0)
(1.03058 0.000834448 -1.33753e-22)
(1.02803 -0.00379558 1.55204e-21)
(1.02764 -0.00435395 6.14372e-23)
(1.02299 -0.000121712 -6.79773e-22)
(1.03725 0.000799793 -7.8553e-23)
(1.0278 0.000702551 -2.41626e-21)
(1.03819 0.00180631 0)
(1.04471 -0.00322359 4.35665e-21)
(1.02583 4.77405e-05 -1.04886e-22)
(1.03511 0.00393937 0)
(1.02943 0.0010502 0)
(1.02839 0.00141614 -4.09559e-22)
(1.02441 -0.000390012 -9.32667e-24)
(1.06407 0.00340277 1.26791e-20)
(0.964963 -0.000763368 -2.07352e-21)
(1.0206 0.000266022 0)
(1.05651 0.00147499 -5.80077e-21)
(1.02733 0.00389047 -9.57935e-24)
(1.02704 8.99008e-05 -7.8644e-23)
(1.02833 5.99436e-05 0)
(1.04508 -0.0034108 -5.38782e-21)
(0.665297 0.0182813 6.7879e-21)
(1.02739 0.000515559 -2.84055e-22)
(0.869112 0.00981256 0)
(0.818681 -0.0371809 9.7408e-24)
(1.0236 -0.000386238 3.93678e-22)
(0.688992 0.00247376 -6.71019e-22)
(1.02789 -0.00236156 -1.18355e-21)
(1.02925 -0.00225585 -7.41966e-23)
(1.04125 -0.0242897 -5.00702e-21)
(1.04144 0.00439313 -2.68244e-21)
(1.05542 0.00100485 -1.07491e-20)
(1.02715 0.000183254 -8.74189e-22)
(0.661624 0.0196883 8.22315e-21)
(1.02734 0.000141748 -8.27998e-23)
(1.05034 -0.0107299 -2.38835e-21)
(1.027 9.45452e-05 0)
(1.07087 -0.00277598 1.13158e-20)
(1.03384 -0.00608611 -1.12998e-21)
(1.02945 -0.00528928 -9.65796e-22)
(1.02987 0.000821326 -2.03073e-22)
(1.05671 -0.00138557 3.96213e-21)
(1.02533 0.000314431 -1.00291e-21)
(1.04224 -0.0237931 0)
(1.02979 0.000824781 4.10014e-22)
(1.02537 -0.000441535 2.56115e-22)
(1.02525 0.000289911 -5.97049e-22)
(1.00986 -6.09304e-05 1.53459e-22)
(1.04359 0.00246976 8.95989e-22)
(0.706496 0.0176316 -2.73506e-20)
(1.02725 0.00025348 8.33395e-22)
(0.835517 0.0096242 -9.50513e-21)
(0.656403 0.0218325 -1.09247e-20)
(1.05154 0.00724612 6.68447e-21)
(1.03489 0.00238633 0)
(0.999853 -4.54381e-05 5.22731e-23)
(0.880323 0.0120642 8.38574e-21)
(1.05849 -0.0128799 0)
(1.05491 0.0164266 3.16098e-21)
(0.8441 -0.000982218 0)