/*--------------------------------*- C++ -*----------------------------------*\
| =========                 |                                                 |
| \\      /  F ield         | OpenFOAM: The Open Source CFD Toolbox           |
|  \\    /   O peration     | Version:  v2012                                 |
|   \\  /    A nd           | Website:  www.openfoam.com                      |
|    \\/     M anipulation  |                                                 |
\*---------------------------------------------------------------------------*/
FoamFile
{
    version     2.0;
    format      ascii;
    class       volScalarField;
    location    "400";
    object      ddt0(k);
}
// * * * * * * * * * * * * * * * * * * * * * * * * * * * * * * * * * * * * * //

dimensions      [0 2 -3 0 0 0 0];


internalField   nonuniform List<scalar> 
14804
(
-8.5831e-06
2.11314e-12
1.40671e-08
-3.37206e-10
-1.70646e-10
4.66861e-08
-2.09615e-11
-6.81846e-11
7.81826e-08
-4.59022e-14
2.99549e-05
4.02292e-07
-1.37719e-11
-9.06181e-10
3.90185e-06
3.56353e-06
-1.87796e-10
-3.51135e-10
-1.3242e-06
1.70419e-09
-2.79515e-11
7.06028e-12
1.12997e-07
-7.79868e-11
2.26218e-05
-7.52986e-11
6.69144e-10
-4.2584e-10
-3.01534e-05
-1.69373e-11
2.28939e-12
-2.42398e-07
2.05524e-09
5.19542e-09
-4.89008e-08
-1.86486e-11
8.62723e-06
-2.99129e-12
-0.000158025
1.64391e-09
-9.89194e-08
-3.81553e-08
3.9263e-06
3.35131e-11
-3.28642e-10
4.82833e-12
-0.000433776
8.26291e-12
1.92816e-11
1.39711e-05
-3.39883e-11
1.24012e-11
-9.39226e-12
-2.74103e-10
8.16884e-05
-0.000104263
0.000259971
-2.30193e-05
-2.74112e-10
-4.22265e-11
-7.59021e-06
1.98195e-11
2.31305e-11
-0.000114883
1.83646e-11
1.18976e-11
1.74945e-10
4.09598e-11
4.34029e-13
4.33306e-05
-3.65659e-12
4.12936e-10
9.22837e-06
-1.17536e-05
-1.06405e-10
4.61008e-05
-1.61721e-05
-7.49339e-14
-6.87913e-07
1.3936e-11
1.47582e-05
2.01864e-11
1.1647e-11
-1.11437e-10
-5.32399e-13
1.18286e-06
-1.44592e-12
-2.27576e-10
-4.82527e-12
-4.07813e-10
9.63772e-10
-6.92517e-12
-5.43324e-08
6.61889e-12
-6.59548e-05
-1.92412e-05
-1.80117e-05
-1.8376e-07
4.36338e-11
0.000606183
-1.23744e-05
4.49082e-05
4.56538e-13
-1.17915e-09
-1.29637e-06
4.41033e-05
2.9039e-07
-5.22465e-06
6.02368e-11
-5.69528e-13
-2.61188e-11
4.11311e-06
-4.55486e-08
-3.94049e-06
1.59445e-06
1.22676e-05
-2.62013e-05
-3.56764e-10
3.20068e-13
-3.58451e-10
-1.39819e-05
-5.29102e-12
-4.47906e-11
6.16365e-10
-1.70928e-10
-5.81681e-13
1.53146e-05
-1.15601e-09
-2.47976e-07
6.35227e-10
6.84581e-10
5.57118e-08
1.31121e-05
0.000223969
0.000149423
2.02237e-09
3.79228e-11
0.00312249
-5.9952e-12
1.08255e-12
3.56266e-12
-4.72343e-05
1.55452e-11
2.98865e-07
1.9521e-06
-2.77732e-13
-4.36499e-07
-3.51916e-12
1.49432e-05
1.47092e-06
9.3395e-08
2.66097e-06
2.20771e-09
-1.78272e-09
1.27831e-11
-1.93049e-06
-7.31675e-10
-9.27181e-05
-1.34675e-06
-8.72167e-05
1.16594e-12
-8.10963e-13
1.68836e-05
2.72447e-06
-1.69699e-10
1.77262e-06
-7.61441e-12
-6.55168e-06
-2.45555e-12
-6.48249e-11
-9.02176e-05
1.36286e-11
-3.24126e-08
1.74653e-06
0.000138193
0.000247418
6.67863e-08
3.64094e-09
-8.83749e-14
0.000221984
3.70654e-08
-3.27068e-05
-5.13524e-11
1.58405e-08
-5.19118e-11
0.000107252
-6.92818e-08
-1.88388e-09
3.50663e-11
2.03398e-12
2.39417e-06
-0.000546947
4.52176e-11
-0.00314168
8.2107e-06
2.05736e-11
4.0693e-05
7.97571e-11
-4.78475e-08
-1.3885e-06
1.6925e-05
2.65979e-12
-7.4155e-11
1.1864e-08
7.59722e-11
-5.34574e-07
-9.38893e-10
0.00248883
-2.45543e-11
3.25711e-11
-4.08355e-12
-6.74193e-06
4.16487e-11
7.30392e-13
-4.4737e-11
-4.95287e-12
-1.0912e-09
-2.94874e-11
-1.89403e-11
2.27655e-11
-9.51492e-09
2.48068e-08
-4.09393e-08
2.36342e-11
-1.89729e-11
-0.000854547
6.55598e-09
-2.32256e-05
1.63641e-05
-3.71007e-12
3.83662e-12
-5.94308e-11
1.88175e-11
2.00465e-05
-1.17002e-05
-2.94077e-13
7.90354e-11
8.5484e-07
4.32097e-07
-6.79414e-11
-1.35225e-05
4.90264e-06
6.01357e-11
3.8013e-11
-1.99185e-11
1.79865e-06
1.8885e-10
-1.52938e-10
1.96719e-07
-5.07538e-12
-0.000364734
1.92816e-11
-4.40027e-13
2.79655e-12
-1.84996e-05
-8.17149e-11
2.27801e-13
-7.93924e-11
-1.50242e-12
8.82429e-12
9.98406e-05
5.5152e-12
-1.11207e-07
5.76372e-11
0.002697
-2.54337e-11
-9.98329e-10
-1.48148e-11
3.19378e-07
3.08761e-06
-1.27909e-05
3.96815e-05
1.86119e-13
-3.68987e-10
-0.000100046
3.59277e-06
-1.99419e-10
1.66934e-06
-1.70104e-07
4.4084e-05
1.23453e-06
6.49434e-13
-5.57755e-06
-7.23697e-06
-2.51971e-05
-0.00110539
-1.99503e-06
-2.22631e-10
-7.69343e-09
-4.17592e-05
-2.13175e-11
-3.72315e-11
-1.33549e-12
-1.28347e-10
3.34722e-08
-0.00120865
4.7716e-06
2.15414e-07
-3.50895e-11
-3.11487e-09
-1.89541e-12
6.41001e-12
-3.33449e-08
5.28393e-09
-6.55115e-07
-5.19124e-11
-0.00177865
3.24763e-05
6.18335e-07
1.06568e-05
-3.00832e-07
-1.29163e-10
1.91493e-10
-7.3757e-11
-1.58119e-05
-5.04527e-11
8.83342e-05
3.48208e-05
1.07124e-11
-0.000537594
-5.88959e-07
8.42791e-07
-9.81092e-06
-2.05184e-06
-6.84844e-11
3.06729e-09
-1.88458e-05
-1.68866e-10
0.00295872
-1.43694e-06
-1.26415e-09
-7.46964e-11
-3.0242e-07
1.66483e-10
1.95861e-11
5.50578e-12
5.83176e-12
2.54102e-06
-4.28751e-11
-3.82548e-08
1.22995e-11
-7.1424e-11
1.88702e-10
7.28508e-11
3.50869e-12
-2.6073e-05
7.79768e-06
4.72486e-05
-5.09538e-08
1.9706e-05
5.20863e-06
-7.84633e-11
-6.75539e-12
-1.33859e-11
-4.67797e-11
-1.14287e-09
5.98299e-11
-1.96363e-07
1.54595e-11
-4.31648e-13
-8.75038e-11
-8.42179e-07
-3.72516e-08
1.66168e-07
-3.26425e-05
-5.44677e-06
-1.81833e-10
7.32628e-10
8.42962e-08
8.26225e-12
-1.89513e-11
-4.7697e-11
-1.28755e-07
-8.93206e-12
-3.81828e-13
-0.000498544
-1.61592e-11
-9.77239e-11
1.38767e-05
0.000682495
-0.00814999
-2.8192e-10
-1.65042e-07
-3.07592e-05
1.91811e-10
1.57087e-11
1.99244e-05
1.94101e-11
5.37283e-12
1.08122e-05
-2.39415e-09
1.79534e-11
-7.63384e-11
-2.48843e-10
1.67808e-05
-2.67589e-11
-6.31174e-05
-2.94043e-11
1.83954e-05
2.104e-10
4.42767e-08
-4.32226e-12
-4.18681e-06
-0.00470488
-1.69305e-10
-5.68002e-10
-1.06627e-05
-5.73921e-11
3.35252e-09
-1.32062e-11
-1.4482e-11
9.681e-08
-0.00330125
-1.99442e-13
-1.35322e-10
-0.00064925
-1.58746e-10
-2.55689e-10
-7.29191e-11
-8.44957e-06
3.03305e-05
-2.03572e-09
1.79936e-11
-1.68179e-06
-4.29735e-11
-3.83395e-10
-4.77814e-05
-2.20081e-07
-5.64372e-10
1.28054e-11
-8.18551e-11
-3.21939e-11
0.000238646
7.66483e-12
3.36024e-11
2.64136e-11
2.50366e-13
-4.1325e-05
-9.45414e-12
-4.66565e-11
2.41317e-09
1.15448e-05
-1.81464e-11
-3.27637e-11
4.6332e-12
-3.54475e-10
5.4729e-06
0.000476576
1.12181e-05
-4.65716e-11
3.45256e-05
-1.66435e-11
-9.30418e-11
2.33971e-11
1.76198e-11
-4.67521e-11
2.14131e-11
0.000594844
-9.31554e-11
1.85796e-11
-0.0108681
4.66494e-12
-0.000167657
3.07163e-05
-9.55276e-10
-0.0109647
-3.13965e-10
2.85589e-05
1.5598e-08
-2.04365e-10
1.93482e-12
9.28677e-09
7.29805e-12
2.55792e-12
-1.1643e-06
-3.42503e-10
1.4745e-10
-2.26509e-11
1.24958e-07
-1.37808e-05
1.52908e-09
-3.23954e-10
-7.97219e-11
-1.81579e-08
-8.02407e-11
3.56308e-09
9.89539e-06
-5.3221e-12
-2.13752e-11
-1.9758e-09
-8.33067e-10
2.86928e-07
6.79444e-09
-1.2335e-12
-6.3642e-10
-1.5635e-11
4.98053e-11
1.17798e-06
2.3972e-09
-3.57824e-11
1.15454e-08
-4.9053e-11
3.37782e-12
5.20985e-08
-6.76745e-06
8.94671e-12
-1.09781e-11
-5.2587e-13
-1.02752e-11
3.02703e-06
1.68172e-11
-1.08602e-10
-0.00756144
4.99382e-12
3.15714e-11
5.5885e-06
1.44323e-11
-0.00194904
1.07187e-11
4.93058e-06
1.34686e-06
1.68785e-06
2.17881e-10
3.57272e-11
-6.79958e-11
-2.40672e-10
1.12531e-11
2.15613e-11
1.13809e-12
9.08987e-10
1.22213e-11
-1.6966e-10
-6.01868e-10
-1.26676e-10
1.67917e-05
-2.50937e-09
8.02148e-06
4.15833e-11
1.13314e-11
6.88513e-07
-1.65729e-11
-5.56623e-10
6.59657e-07
-8.39584e-09
1.04202e-06
4.19399e-05
-1.10851e-12
-3.21235e-05
3.2741e-07
-7.95332e-11
-9.35238e-10
3.7818e-05
-5.48761e-05
1.33654e-11
1.41499e-12
4.49927e-12
1.74258e-06
-1.01786e-07
1.81156e-05
-1.25648e-05
-1.66525e-11
-4.65977e-10
2.42165e-06
1.33158e-05
-4.89621e-10
-3.34667e-10
3.57272e-11
-1.19711e-11
-4.70855e-07
-5.44405e-05
-6.1344e-10
-2.65559e-08
1.12401e-11
3.6459e-12
-1.54386e-11
-2.46221e-10
-4.86807e-12
-3.25743e-06
4.69345e-12
-1.8224e-06
8.93404e-05
2.82922e-10
1.56149e-06
-1.07586e-11
1.7807e-11
4.09381e-05
-1.80966e-10
-1.95078e-06
-1.95774e-12
-1.60448e-11
-5.13029e-11
2.08179e-14
-4.55854e-09
-2.6997e-10
-3.40865e-05
-9.61294e-06
-8.57151e-11
-7.25411e-11
-2.98355e-10
-1.74024e-07
-3.72906e-07
-3.76223e-10
-6.80688e-12
-0.000102137
5.44469e-12
4.98166e-05
6.67331e-12
-9.20237e-05
-1.70791e-07
-4.27017e-12
2.58679e-11
1.01051e-07
1.93976e-10
1.23178e-11
-7.76054e-09
-2.98881e-11
-8.45552e-06
-8.06627e-08
-0.000298558
-3.28423e-12
-1.50755e-05
-0.00622066
1.57391e-07
5.49119e-10
-2.66797e-06
-1.32551e-13
8.0472e-06
3.06438e-11
-2.84481e-10
-5.52276e-06
4.51287e-08
-0.000143969
8.62221e-10
-1.50641e-09
1.45513e-11
-1.76269e-05
6.72736e-12
0.000422028
0.000587983
-3.29289e-10
-3.73779e-12
3.71382e-11
3.59694e-10
5.51662e-11
-3.43433e-12
-1.85791e-08
-1.74487e-06
-7.02214e-10
-2.80774e-10
-4.61825e-06
-9.20392e-06
-3.07908e-06
4.20195e-11
5.55059e-08
1.3209e-11
-1.14037e-11
1.59074e-07
-5.77408e-07
7.78738e-08
2.35014e-05
3.71266e-08
1.1359e-06
-7.70441e-07
1.00102e-11
-4.51858e-05
-0.0163378
2.46547e-12
-3.54527e-10
1.13275e-06
1.95419e-10
3.65924e-07
-4.93567e-11
-1.33259e-09
0.0174891
-2.09939e-12
3.32088e-09
1.86976e-12
-7.74347e-11
-2.43045e-05
-2.36591e-05
-1.09717e-07
-3.06283e-11
-3.11828e-13
1.05026e-11
1.06828e-11
2.20464e-07
3.48994e-05
8.22099e-08
-1.56608e-05
-7.92541e-10
1.26632e-07
-2.81493e-11
-5.42767e-06
4.85249e-11
-6.50101e-06
2.95843e-11
-1.20137e-12
-2.30193e-11
-3.39721e-10
-2.2296e-07
-9.04427e-13
-4.65127e-10
-1.25589e-09
7.54411e-08
-2.406e-11
-4.47686e-06
3.73114e-11
-9.27625e-07
1.76038e-09
-4.13698e-10
8.28904e-10
-4.37222e-13
-2.48184e-11
3.09121e-06
-7.47215e-06
-4.59367e-11
8.15734e-08
-1.47979e-12
8.36176e-13
-4.1031e-10
-5.52025e-12
-1.05874e-05
3.73079e-12
1.99296e-07
-1.4983e-11
-7.36835e-11
3.53693e-11
-4.92914e-09
-1.71973e-10
-4.07405e-12
-2.39862e-10
-8.92219e-09
1.63684e-09
-0.00038133
1.01562e-05
2.08447e-12
-8.23983e-12
-1.89367e-12
4.66502e-06
-6.33548e-09
9.4311e-08
-4.72631e-06
-4.06201e-09
-2.81251e-10
5.7524e-06
-4.73181e-11
6.2855e-12
-1.12055e-12
-9.63358e-12
9.91291e-08
6.18351e-12
4.12187e-13
-0.000895633
8.77536e-08
5.59571e-10
3.09378e-12
-1.26452e-05
-3.21496e-05
-5.09302e-09
3.53267e-11
-2.16968e-10
-4.65689e-05
-6.75862e-08
0.000111238
-0.000651722
-6.82695e-08
-7.1427e-06
-9.82605e-13
6.18854e-09
-1.8054e-05
1.6189e-12
0.000170465
-6.30861e-11
1.7946e-14
4.05259e-07
1.48095e-10
-1.69936e-06
-9.25146e-06
-7.59581e-07
7.75598e-12
2.58108e-06
4.72848e-13
8.47696e-12
-1.78849e-10
-7.00426e-11
5.83774e-10
-8.00064e-08
-5.66977e-05
-8.18158e-10
-8.93382e-07
4.72891e-11
-1.63273e-07
-0.00721184
-3.87791e-09
-5.492e-07
-7.42302e-11
1.86778e-12
-8.51681e-12
-9.68857e-11
1.26491e-11
1.8004e-06
-3.92898e-10
1.83471e-05
2.75061e-05
-2.79711e-11
6.40731e-08
-4.25774e-08
7.54754e-12
-7.43151e-11
-2.52376e-06
-2.74367e-06
-1.82492e-11
4.07939e-08
5.16151e-11
1.08746e-12
1.87226e-09
-2.82823e-10
-1.21938e-05
-4.90547e-06
-6.71892e-05
0.000107912
6.36042e-11
-6.45656e-07
1.89656e-12
0.00584164
6.11232e-07
-6.36968e-12
-3.6111e-10
-2.8963e-06
3.80049e-11
-4.95751e-09
6.32941e-12
1.2571e-06
1.67043e-08
-9.75689e-11
4.94296e-11
6.6983e-12
4.17574e-12
2.88044e-11
5.55216e-05
9.41194e-12
-1.36604e-11
-1.00239e-09
-6.70812e-11
-3.40555e-05
-1.81112e-07
-2.43828e-11
-1.42813e-13
-4.78685e-12
1.25027e-06
-2.0126e-11
-8.05776e-13
-2.38431e-07
-0.00195112
-7.9924e-12
1.51492e-11
9.62031e-10
-6.50842e-06
-8.0583e-12
-1.22306e-11
-1.32571e-11
-7.50302e-08
6.71716e-14
1.88482e-05
8.34746e-09
-6.50516e-09
-4.02605e-05
4.65972e-05
-1.08763e-11
1.28231e-05
9.30189e-13
1.66092e-06
4.3094e-10
-3.52139e-10
-1.42739e-12
-2.58285e-11
2.17094e-05
6.84607e-11
0.000113019
7.72727e-13
-4.37516e-09
-2.83087e-06
-5.0069e-07
-4.17677e-06
-4.27535e-11
-8.14898e-06
-7.26936e-16
1.41428e-11
-9.24428e-10
0.00194599
-2.91312e-11
-7.92835e-06
1.73723e-09
-1.12442e-10
-3.90656e-10
-1.19933e-12
5.49137e-12
2.73366e-11
-2.45403e-11
-8.51512e-13
-3.4681e-07
1.18373e-10
1.03582e-08
-2.28623e-10
-0.00299945
1.29333e-10
-0.0052442
7.65891e-12
1.11018e-06
-8.41431e-10
-6.27502e-07
5.84544e-10
-4.16832e-08
1.6239e-10
-7.47489e-10
-3.03388e-09
-3.4943e-10
1.17591e-06
2.1611e-10
4.34472e-12
1.29299e-12
1.10623e-05
4.48816e-08
6.96586e-09
-1.08682e-11
1.98888e-12
3.00478e-07
1.23086e-08
8.09891e-06
-6.19167e-06
2.04711e-07
-9.84739e-09
1.89877e-05
1.58892e-11
-6.84033e-14
2.9504e-06
2.51865e-10
8.11394e-05
-3.46414e-09
-5.44219e-11
1.16164e-11
-2.54606e-07
-8.23277e-12
-1.01111e-05
-3.69604e-10
9.3458e-09
-3.45084e-12
-6.91418e-07
-1.12208e-12
0.00299006
-4.72336e-12
-3.69355e-11
2.91264e-08
1.63428e-06
-8.13869e-07
-1.05022e-07
-1.86912e-07
0.000101293
2.05647e-08
-3.12261e-07
-1.68926e-06
-9.88606e-10
1.23932e-06
-3.61309e-11
7.29906e-12
-2.64512e-07
7.08989e-06
-9.45829e-10
-3.6651e-10
-5.0679e-11
-7.43096e-07
-1.49915e-11
1.48079e-05
1.10111e-06
8.31952e-12
-3.03785e-11
1.58774e-11
-3.00037e-11
0.00641595
-1.11074e-10
9.2149e-07
0.000236725
1.33814e-05
-7.29798e-10
-9.64379e-11
4.50353e-11
-0.00203712
-5.69186e-11
-0.0299381
7.94238e-09
-8.54945e-10
-6.42728e-12
-9.37351e-12
-2.61999e-09
-6.67631e-09
-0.0013079
5.00115e-05
3.16618e-07
1.17662e-11
-1.25698e-12
-2.67195e-11
-8.45449e-06
-1.21135e-07
0.00580202
2.3159e-10
4.6858e-05
6.05753e-07
-1.196e-07
4.56071e-11
-8.55518e-11
2.54209e-11
-5.94373e-11
-3.26556e-05
-8.3729e-09
6.20344e-12
6.21555e-08
6.91992e-05
-3.40001e-10
-2.84427e-09
-7.43236e-09
2.40843e-12
-0.000126269
2.48483e-11
6.2044e-10
-6.75228e-11
3.37813e-09
2.92628e-09
2.60363e-11
-1.09568e-06
1.274e-11
-2.65689e-06
7.17397e-12
1.33818e-10
3.74377e-12
3.68944e-06
-1.03043e-05
-3.48553e-10
1.56308e-05
6.086e-08
-2.80139e-11
-4.49338e-11
-3.76214e-11
-6.68886e-08
-4.89468e-06
3.97214e-07
1.33664e-05
9.25317e-11
-2.22945e-10
-1.71727e-05
-6.78918e-11
-2.85428e-10
-0.000194907
-1.67551e-08
-5.41513e-11
-2.90604e-05
8.72506e-08
-5.52826e-06
-5.73124e-11
-1.21333e-06
-1.33533e-10
-2.86778e-05
-1.16079e-05
-1.08368e-11
-5.38953e-11
1.95442e-05
-3.34079e-07
-1.5676e-08
1.45265e-11
6.1623e-06
1.59019e-05
-1.39355e-10
-4.10674e-08
1.14811e-11
-3.38076e-11
0.00077134
-2.84173e-11
3.02339e-10
-5.27706e-10
-1.2517e-06
1.60735e-11
6.06013e-12
4.85455e-12
1.78126e-08
3.08026e-12
-1.68719e-05
1.53378e-05
6.70193e-07
-0.000233251
-1.1831e-11
6.06495e-12
-4.93421e-11
6.80962e-13
3.36865e-09
1.25318e-10
1.01009e-05
5.47209e-10
2.6126e-11
-1.40485e-07
1.61275e-11
-1.93314e-11
-7.68797e-12
-1.41861e-05
-7.73493e-06
-1.76978e-05
1.6474e-11
1.14683e-10
-1.86065e-06
-1.42535e-12
3.91644e-12
-4.83784e-11
5.53528e-05
-3.88682e-06
-2.4938e-11
8.91249e-08
1.55214e-09
6.9917e-11
-1.46537e-10
4.18807e-12
-3.44292e-07
5.10551e-07
2.78566e-10
-1.518e-05
-0.00353214
1.25475e-11
-4.26531e-10
-5.64304e-08
-5.09185e-12
-6.59436e-08
-2.24136e-10
-1.06047e-08
2.49194e-10
2.81344e-06
5.88941e-06
-8.31146e-11
-2.90841e-11
-5.26371e-11
1.61748e-11
6.02024e-08
-2.22749e-11
-5.07252e-11
-1.38258e-11
-2.18534e-07
9.87244e-13
-5.28669e-06
1.06339e-10
-1.55679e-12
-0.00014974
6.40183e-10
4.9748e-11
-5.87282e-07
-2.38799e-06
-6.72062e-05
-2.43968e-12
-2.66691e-05
-2.91623e-12
-2.6622e-12
-1.51411e-11
2.28056e-10
-3.83672e-11
3.90088e-07
-6.65953e-09
9.82486e-11
5.86253e-10
7.05363e-12
-4.35611e-06
2.81761e-07
-4.06124e-06
0.000973693
-3.45551e-13
-2.43374e-05
3.10983e-08
2.84736e-11
1.14675e-11
7.94324e-09
-1.30439e-06
-7.41039e-12
-1.03056e-05
1.13318e-06
3.06285e-05
-4.57678e-08
-5.69933e-11
-6.97638e-10
-1.26206e-10
-4.08601e-11
1.71465e-11
3.9487e-08
-9.73769e-13
-2.20508e-11
5.01145e-10
-2.169e-05
-3.68205e-06
3.94546e-06
-4.60686e-05
-2.07583e-10
1.08583e-12
-1.32736e-05
0.000300594
5.19143e-08
-2.15145e-12
-1.83155e-11
-3.29773e-11
2.39465e-10
-7.1325e-10
2.99576e-07
-2.23243e-11
4.20256e-09
1.01954e-05
-1.15992e-10
-8.22872e-11
-1.74826e-08
-2.21949e-07
3.27264e-12
-1.44918e-05
1.03597e-11
1.53528e-05
-9.92208e-12
-7.69341e-07
-2.68703e-06
2.76674e-06
-7.59557e-10
3.50513e-12
1.03637e-11
-6.54532e-14
4.70413e-11
-1.55568e-12
-0.00222708
3.07869e-05
-1.56378e-11
-2.32649e-06
7.7461e-07
-1.85494e-10
-6.95976e-11
0.00571816
-3.3162e-10
0.0016741
-8.97682e-07
1.07755e-06
-1.48484e-07
4.22829e-12
5.30589e-13
-4.27371e-05
1.51377e-11
3.01836e-11
-3.63814e-10
-1.21243e-06
-6.61219e-12
-1.46165e-13
-2.27181e-06
-2.21587e-07
-1.6547e-05
-4.62433e-05
-4.59979e-05
5.03667e-12
-2.72704e-11
-2.72621e-07
-9.86633e-12
1.2795e-11
-1.51674e-11
-1.80607e-05
-1.88318e-06
-4.80274e-11
-3.5974e-10
2.58649e-07
-3.77246e-12
-6.42547e-09
7.35478e-06
2.54492e-13
1.90887e-11
8.39422e-08
-1.76784e-07
8.45193e-09
-3.98146e-06
-6.16078e-07
8.92918e-10
-5.26018e-11
4.14545e-12
-1.91167e-05
-1.77969e-12
-1.95967e-05
2.68616e-11
-6.58434e-05
3.80061e-10
-5.6899e-11
1.54163e-10
-1.56379e-09
-9.32633e-06
-4.52385e-05
-2.2938e-05
4.48661e-09
-5.3622e-12
-2.1657e-10
-2.92411e-10
2.49373e-08
1.32951e-05
6.8396e-12
-1.61294e-07
-8.35712e-11
3.05926e-13
-7.78068e-11
1.31693e-05
-9.7157e-08
-3.21458e-12
-7.71828e-11
-1.04942e-07
6.88735e-11
-7.10892e-06
-0.000352042
2.55278e-06
0.00541912
-1.60317e-10
-7.10518e-08
4.02579e-12
8.3623e-07
-6.6108e-10
-6.12732e-11
-5.13964e-05
-3.17551e-10
-7.01888e-05
3.58897e-11
4.14642e-07
-3.15219e-10
1.08529e-14
-4.89804e-07
-2.65986e-06
-7.60708e-10
-2.48482e-06
2.90993e-05
2.49332e-05
-3.4811e-10
-0.000140534
2.22573e-12
3.76728e-10
-8.73211e-07
8.56098e-06
-1.13527e-10
-2.29288e-13
5.66568e-12
1.34677e-11
1.14976e-10
3.69909e-12
-2.81564e-06
-8.88928e-06
-6.18537e-12
-4.52922e-05
1.23155e-09
-9.85358e-10
-1.97725e-05
2.33404e-06
1.4122e-12
-5.86866e-11
2.19348e-07
-2.29321e-06
-8.2017e-11
0.00272591
-3.01945e-11
-4.82775e-12
-3.702e-10
4.06493e-12
0.00124032
1.5514e-11
-2.11574e-05
2.39226e-08
-5.24167e-11
1.15634e-08
4.56789e-12
-2.47466e-08
-4.60713e-12
-2.91171e-11
-6.4787e-06
-9.10018e-06
5.2509e-14
-9.25671e-07
6.94566e-10
-1.01195e-05
4.06786e-06
3.17119e-12
1.57361e-09
4.37393e-05
1.63229e-05
1.11999e-06
4.6238e-12
5.95828e-12
-2.26843e-05
9.79249e-05
7.28038e-11
-6.61224e-08
-2.90502e-05
-4.93544e-08
-7.58667e-11
-1.3672e-05
4.36202e-07
3.27605e-06
0.000100587
-1.68958e-10
1.93796e-10
-1.84819e-12
-2.54492e-05
-1.51722e-10
-1.11497e-10
-2.62712e-05
-2.15582e-10
3.84967e-11
-1.7716e-12
-7.91232e-08
-2.78134e-13
1.12245e-05
1.23097e-10
5.5462e-08
-2.71204e-10
7.79153e-08
3.12165e-11
-2.696e-07
-1.73296e-10
1.22351e-09
2.93047e-05
-0.00310478
3.6444e-11
2.80101e-06
1.07948e-10
-8.27992e-07
4.15993e-11
-4.30101e-08
-2.03285e-11
1.28152e-10
8.00274e-12
1.12043e-06
8.23839e-06
1.85431e-11
9.57995e-12
-2.13771e-11
1.03676e-07
1.56664e-11
-3.50129e-10
-0.000107296
1.6046e-11
1.10293e-10
-7.36311e-06
-0.00462349
-5.08982e-10
-0.000433564
-1.38679e-11
8.56243e-13
4.36135e-10
3.52373e-09
-8.75972e-12
-9.86292e-13
1.5377e-11
-1.00778e-10
-5.98855e-12
-1.0471e-05
-2.15214e-11
1.50501e-05
-3.3858e-06
-4.27537e-10
-7.07939e-07
-1.08619e-11
-1.06396e-10
4.00227e-07
-0.00066853
2.18304e-05
2.10508e-11
-1.6099e-09
1.65682e-11
1.56856e-11
4.09089e-06
3.55364e-09
-1.05535e-05
5.99061e-12
-1.20134e-11
-3.50302e-11
-3.54354e-10
-0.000266792
4.066e-07
-2.37041e-11
-1.44107e-12
-7.34283e-11
-0.00583319
5.67618e-07
4.10682e-11
0.00187804
0.0181645
-0.00278903
1.74375e-08
8.30843e-08
-4.05793e-08
-5.80372e-12
8.41563e-12
2.52559e-15
1.46248e-11
0.0107623
-8.96373e-05
-4.12841e-08
1.68502e-10
-6.13135e-08
0.000123702
-5.09106e-10
-5.21771e-11
-3.33793e-12
7.9123e-05
-3.62139e-10
-6.42835e-10
1.66173e-10
-7.49452e-11
-8.83987e-10
1.5083e-10
-7.21583e-11
6.39184e-11
-2.01454e-05
-3.07191e-06
-3.11491e-11
-7.9722e-07
2.66198e-12
6.1981e-12
-2.64021e-11
5.63286e-05
-3.13331e-12
1.0149e-06
2.85648e-10
1.60429e-10
-3.09335e-11
-3.58295e-12
7.24265e-05
5.83854e-11
-1.76441e-07
5.32783e-05
-6.54711e-06
8.55967e-12
4.78195e-08
-8.84197e-11
-8.20827e-11
1.53281e-12
6.09702e-11
1.81371e-10
3.14952e-08
-3.89775e-11
-0.000183778
7.70234e-11
-5.90491e-12
5.04617e-11
4.2975e-08
-6.11241e-10
-1.0314e-10
-2.42085e-11
-3.50023e-10
-5.30782e-13
7.10031e-12
4.1664e-09
-1.36582e-11
0.00518532
3.91852e-12
4.98187e-08
-1.46866e-05
1.67498e-05
-4.65404e-11
-4.99222e-06
6.68019e-07
-1.09472e-05
-9.34484e-06
-1.29914e-05
-9.80156e-06
9.50581e-12
-3.43745e-05
6.56976e-11
1.01804e-11
-2.22664e-06
1.4415e-05
-2.56148e-09
0.00774002
-5.89341e-11
2.93958e-11
-6.27232e-06
-4.74429e-07
5.96591e-06
-3.20428e-05
8.80201e-07
-3.64102e-10
2.16048e-05
1.27002e-10
-4.91284e-05
-2.88627e-13
-1.88278e-08
3.29195e-05
-2.76562e-10
-1.7097e-08
4.98479e-12
1.02367e-12
1.62316e-07
8.82138e-12
2.6962e-05
-1.90407e-10
-6.99255e-12
4.98205e-05
8.01868e-06
1.72977e-11
-7.37871e-06
7.59287e-11
8.11558e-12
1.51549e-06
-1.2202e-06
6.68684e-11
1.61583e-11
6.28673e-10
-5.40472e-08
1.2724e-11
9.5735e-07
4.3491e-06
-2.07427e-07
-1.85192e-05
-2.68023e-12
-2.69851e-07
-8.47553e-11
-8.89172e-06
-4.78286e-12
-8.58433e-06
-2.01504e-05
9.84523e-07
3.18068e-05
-1.55245e-12
-1.23118e-11
4.54718e-12
6.52364e-12
-2.91868e-12
-3.67433e-10
-2.56103e-05
-3.58093e-10
7.14937e-09
-1.38893e-05
1.62048e-05
-7.82168e-06
-8.29522e-06
-2.32193e-11
1.40255e-11
4.29508e-10
2.66643e-10
-1.9325e-05
-1.17935e-09
-3.17938e-11
-2.4604e-05
1.99218e-05
4.00186e-11
-4.15306e-12
8.22953e-12
2.34715e-05
2.85854e-09
4.42796e-12
-6.03929e-11
5.78783e-10
-8.17378e-11
-2.75292e-11
9.84257e-12
5.73318e-07
6.40149e-12
-9.08391e-05
-1.06471e-08
-9.85574e-11
-5.13977e-11
-2.17267e-11
-1.12743e-10
1.59078e-07
-6.82804e-10
-1.55174e-12
9.43223e-08
-4.66033e-05
2.55367e-12
-1.18998e-08
-4.63472e-11
-2.86732e-07
-2.30322e-05
-5.58576e-13
8.81659e-08
-3.20824e-12
0.00495728
5.19353e-11
4.73646e-06
0.00642471
0.000333551
1.2117e-05
0.000282564
5.26394e-07
0.000542973
-5.18322e-05
2.83671e-11
1.54742e-05
-8.52589e-11
-3.91823e-06
-5.44994e-06
-1.32961e-07
3.1492e-13
-6.73893e-11
1.13312e-11
-9.32385e-06
-1.72799e-06
6.61305e-12
1.71064e-11
3.38855e-11
-6.21126e-08
-6.81398e-07
-2.881e-11
1.79625e-08
-1.827e-05
2.99576e-12
2.03403e-07
-2.07954e-11
-5.41114e-11
-3.13835e-11
5.19705e-11
-1.9545e-05
-1.4204e-05
-1.47972e-05
-5.30789e-06
-6.38168e-06
4.95003e-07
-0.00413669
-0.000986437
-0.000222632
1.03571e-05
-3.93913e-11
1.25422e-07
-4.01811e-13
-3.30584e-10
4.9813e-10
1.72374e-09
2.54477e-11
-1.0757e-10
0.0029766
-2.74613e-10
-8.58979e-11
-1.77744e-10
2.66028e-10
-5.91231e-13
5.4608e-08
-2.17069e-11
-1.1046e-10
-6.03809e-08
-1.39843e-09
-3.07068e-05
-2.07428e-08
1.07645e-11
4.17371e-09
-1.26681e-05
-0.0211052
-6.71417e-11
2.38887e-06
-4.71293e-11
-7.13715e-08
1.60547e-10
-8.27031e-11
-4.09046e-10
-4.09972e-05
2.11886e-10
-0.00332163
9.08154e-11
-0.00942724
1.01911e-05
-1.58851e-05
1.33298e-06
-1.0623e-12
2.96177e-13
-1.38914e-05
6.16032e-09
1.83762e-07
-2.21906e-05
2.43994e-10
2.53372e-12
-1.15614e-10
-5.54116e-11
-5.67307e-08
-8.06874e-07
3.47037e-08
-1.79528e-12
-3.24015e-11
-8.27523e-11
-1.4104e-07
-1.16218e-05
2.0091e-11
-3.30306e-09
-5.92792e-11
-1.4718e-11
-1.17165e-07
2.63792e-06
-2.6619e-06
-0.00174448
-2.1139e-12
1.72262e-09
-3.41121e-05
-2.87725e-07
-1.16299e-11
-6.04613e-07
9.26298e-06
-1.29173e-11
6.31297e-12
9.18128e-12
-1.52702e-11
-8.03898e-11
3.68692e-06
7.81244e-12
-1.13269e-10
3.03261e-09
-1.39817e-10
-4.25013e-06
-3.19665e-10
-2.60815e-11
9.06545e-10
-2.36791e-07
-6.70396e-11
4.22867e-06
-8.36571e-12
9.25192e-11
-6.15017e-08
2.32064e-10
8.99538e-12
5.78331e-11
-1.16537e-10
8.47944e-06
4.4171e-10
-7.53908e-11
4.93912e-08
-1.60505e-07
-5.13746e-11
6.93515e-05
2.21245e-05
-8.19984e-10
2.18098e-10
5.98614e-11
-1.49356e-06
-9.92997e-06
-5.49689e-10
-1.02171e-08
8.54445e-13
-1.63083e-08
8.25726e-12
1.24331e-10
-4.19501e-06
1.21454e-10
4.37631e-08
-2.79442e-11
0.000252831
-1.54624e-08
-6.70894e-13
1.50459e-07
-6.2073e-08
-8.87631e-11
-1.97852e-10
-9.84616e-13
9.22969e-10
0.00297835
-1.87968e-06
0.00223541
-1.92411e-07
-6.51567e-05
2.04569e-07
1.24733e-08
6.53488e-11
-5.37552e-11
-4.85407e-09
-4.18273e-08
-1.43647e-05
-1.3818e-10
-8.57599e-11
-6.30062e-11
-6.20298e-05
7.34597e-08
3.93188e-05
-3.92015e-11
-2.44126e-11
-8.17321e-07
-7.47915e-05
-8.15202e-11
-7.33986e-11
4.5433e-12
-9.99644e-11
-2.78144e-07
-5.93052e-11
2.14008e-11
3.25964e-10
1.17058e-10
-5.01503e-05
-3.37468e-11
1.13016e-10
-2.14315e-06
-5.11493e-13
-1.41553e-07
1.03015e-11
-5.81576e-10
4.45602e-05
8.74764e-11
-5.03031e-10
-3.25825e-12
2.27067e-11
1.40333e-07
-5.91378e-12
2.79039e-11
-2.72359e-11
-5.45769e-10
-1.02392e-07
1.18804e-10
2.61632e-08
-1.59206e-12
-8.05632e-12
-4.80839e-10
7.8744e-05
-3.4608e-05
-6.61518e-10
-3.94388e-06
5.48045e-11
4.01757e-11
-9.84425e-11
0.00918166
-1.84242e-13
-3.00505e-10
-2.029e-10
2.25905e-06
4.85843e-11
3.76099e-08
6.80468e-11
-3.83604e-11
-4.26326e-06
6.26698e-12
-4.824e-12
2.52959e-05
1.69578e-10
-5.72756e-11
6.05798e-14
5.08287e-10
0.00279872
4.03568e-06
-1.85891e-12
4.87604e-09
-3.69669e-10
1.11811e-11
4.69966e-13
-1.17025e-09
8.30647e-08
2.49207e-08
1.65665e-11
4.377e-10
1.60016e-09
-1.26701e-06
-3.26809e-10
5.86802e-05
-5.85678e-07
2.65346e-11
-1.2677e-05
-0.000131303
8.89796e-06
1.5935e-10
2.70914e-10
-4.16685e-12
-8.46151e-12
-1.61034e-10
2.37179e-05
-7.64382e-05
1.04241e-10
-2.97488e-05
5.4132e-10
-2.30333e-11
1.27458e-07
-5.03081e-10
-4.475e-11
-0.000109142
0.000388151
9.0153e-12
1.18562e-11
-2.35885e-10
4.29359e-11
-3.4488e-10
1.53203e-08
0.00512702
-9.2923e-11
9.41117e-12
8.39618e-12
1.16294e-07
5.28374e-10
-4.02084e-07
1.37273e-09
2.22904e-06
-1.00267e-07
1.00905e-07
-8.63332e-08
5.09883e-06
1.29984e-06
-7.49896e-09
-6.91182e-07
2.0357e-06
4.58302e-11
-0.00145061
-3.56854e-10
-4.71796e-08
-8.15667e-11
2.60918e-12
-5.16998e-07
3.39501e-11
-3.8431e-09
-0.000115651
-1.42502e-09
-2.68584e-10
-7.6854e-05
-7.06201e-10
3.64855e-09
-9.03855e-06
-1.14901e-11
0.000530794
-4.65017e-07
8.5731e-12
-9.43911e-06
-1.90391e-06
-4.4544e-07
2.13762e-07
-7.11538e-05
1.21191e-07
-6.3574e-12
7.77507e-08
-1.25978e-09
-1.72428e-07
9.91993e-08
-2.44848e-10
-5.7292e-10
-3.0909e-10
-9.46041e-09
-2.35475e-07
-0.000199498
0.00010557
-1.81301e-10
-2.73733e-11
4.87033e-11
-6.16947e-05
-8.34389e-11
-9.30952e-11
-4.55246e-10
-0.00333816
1.85947e-10
-2.46172e-10
-6.23694e-11
-5.06417e-12
1.26535e-10
-5.79524e-10
-6.71075e-07
-6.6086e-12
-2.36822e-06
-6.72915e-12
8.75856e-12
-3.62933e-08
-1.54686e-09
1.82232e-05
-3.3915e-12
1.6062e-10
-7.49042e-05
2.65032e-11
-9.56956e-11
7.5298e-06
-9.87746e-06
-3.50634e-10
2.15193e-06
6.29818e-11
5.46198e-10
1.40014e-05
-1.12652e-09
-0.00416488
1.70623e-05
3.47982e-09
-2.77584e-10
-3.99404e-11
6.86161e-12
5.12569e-11
-2.30774e-12
-8.2746e-10
5.84058e-05
-3.35071e-06
2.67529e-09
-2.0342e-08
1.12047e-11
4.65506e-12
1.6518e-11
-7.17835e-06
-1.47218e-10
5.93825e-13
5.40794e-11
7.49939e-11
-6.04001e-07
-1.72521e-12
8.61714e-12
-9.20106e-06
-1.19917e-11
-8.37596e-11
-4.33751e-11
-7.93968e-12
-1.33028e-11
1.24426e-05
2.48575e-08
3.66437e-11
9.65056e-12
1.09526e-09
-8.75476e-11
-1.8423e-10
3.89765e-06
-0.000309757
-1.34154e-05
-7.34304e-11
2.32363e-08
-2.49353e-06
-5.32277e-05
6.18439e-06
-0.0407411
-6.23684e-10
-2.82806e-12
1.02292e-05
-5.8645e-10
4.28809e-05
-3.7775e-11
1.89674e-11
-3.23294e-11
-2.06636e-10
-2.39798e-06
1.10328e-05
-5.75931e-11
-1.39777e-10
-7.91902e-06
-1.02247e-10
-0.00805304
6.16371e-05
-2.14829e-11
-3.54222e-08
-6.21299e-05
3.44659e-12
7.46795e-06
2.03438e-05
-7.48008e-11
-9.85094e-13
-2.28885e-05
-2.48194e-11
1.33393e-12
1.0373e-10
-0.00527474
-8.55315e-07
-3.54265e-13
-2.08166e-10
-3.40759e-11
3.65514e-05
-3.41236e-06
-1.44566e-10
2.1989e-12
6.08721e-07
-3.27732e-05
9.40263e-06
2.69925e-12
1.04382e-11
1.82511e-11
-3.06167e-08
-6.2907e-10
-3.07029e-10
-1.04865e-11
-6.39232e-10
-3.26761e-05
3.90437e-08
1.1534e-11
-5.36807e-06
5.21276e-10
-7.91034e-14
-4.63413e-09
-2.48883e-11
-8.09558e-12
-8.80687e-08
1.88545e-09
1.98164e-05
-1.48725e-08
8.04064e-11
7.22578e-07
-2.44399e-07
-7.68087e-08
7.77297e-06
-1.76944e-07
-3.69607e-05
-1.26466e-09
-2.18856e-05
2.36259e-06
-1.88827e-07
1.59139e-11
7.9315e-05
-2.97566e-07
-3.82542e-11
6.14754e-11
4.94062e-08
-2.44578e-07
-3.03207e-07
-8.25164e-05
-3.78477e-09
3.30085e-12
3.45703e-08
4.32986e-13
4.60712e-12
2.40787e-11
-1.86701e-08
3.24503e-07
1.94232e-10
-6.14273e-08
-6.56346e-11
-1.61812e-10
3.42636e-13
7.06649e-11
1.77544e-07
-1.50095e-10
2.23939e-09
-8.84113e-11
-9.31553e-11
4.24068e-06
1.18986e-11
-5.60647e-10
4.73849e-08
-1.80535e-10
4.72987e-05
8.19703e-08
9.27736e-05
2.05566e-10
-6.99497e-11
3.31453e-11
-1.23741e-07
-7.73383e-11
0.000245331
6.61997e-06
-2.23668e-10
8.16401e-11
1.42275e-05
-5.27307e-07
3.14489e-07
4.96288e-06
8.06122e-12
-4.75285e-11
-5.06789e-11
-0.000424878
-1.71986e-10
-1.10028e-11
-6.27106e-10
-5.5853e-10
-8.64565e-06
-1.39871e-05
0.0035541
-1.30741e-08
-6.45439e-11
-0.00176286
-1.78544e-10
9.22748e-11
3.68215e-11
7.16026e-11
1.40822e-08
-3.4216e-08
-1.57621e-05
-1.88163e-11
-2.93077e-10
2.0021e-11
-3.18094e-11
-3.81773e-07
-4.46272e-10
-4.36607e-10
0.00075075
-0.000223365
-8.98331e-12
6.37032e-13
-5.42585e-10
-9.85418e-06
2.88479e-12
2.66599e-08
-6.46595e-10
3.09341e-11
3.73548e-07
5.99706e-07
-9.49685e-11
-0.00183539
-9.77858e-11
9.87404e-09
-1.0767e-10
1.22552e-08
6.13048e-09
-3.3068e-12
-4.47479e-06
7.58029e-08
-3.69923e-10
-4.02954e-10
-2.12254e-08
8.22061e-12
6.34753e-10
-1.89734e-10
3.12439e-05
1.74874e-11
-0.00776279
-7.40418e-11
3.24452e-07
-1.19966e-09
-3.70268e-11
-3.09671e-06
8.43672e-08
-2.01842e-11
-4.87489e-09
-2.06821e-11
-6.15799e-11
2.81794e-12
1.19577e-11
-1.48343e-10
-1.43439e-09
1.23519e-09
-4.26608e-11
3.94548e-07
-2.18631e-07
-2.61307e-08
-3.41905e-09
-1.52451e-12
-1.43965e-10
-1.1687e-11
1.67399e-07
8.04064e-12
-5.59011e-11
-1.66626e-07
3.44561e-07
-8.77394e-11
1.57457e-10
4.31691e-11
5.83403e-08
-8.94665e-11
1.65862e-11
-1.21442e-06
1.66007e-10
-0.00338296
-3.41718e-08
4.16407e-11
-1.03483e-07
0.00487453
1.86159e-12
1.04015e-12
-3.23789e-05
2.33315e-09
-4.33646e-10
9.83499e-11
7.25894e-13
9.06128e-12
-6.9747e-11
4.65872e-05
1.49418e-05
-1.49397e-11
-3.23096e-07
1.49311e-09
-7.57519e-10
-8.89592e-12
-4.63968e-13
-5.19555e-06
-7.08119e-11
-4.80168e-11
0.000127084
-0.0101212