/*--------------------------------*- C++ -*----------------------------------*\
| =========                 |                                                 |
| \\      /  F ield         | OpenFOAM: The Open Source CFD Toolbox           |
|  \\    /   O peration     | Version:  v2012                                 |
|   \\  /    A nd           | Website:  www.openfoam.com                      |
|    \\/     M anipulation  |                                                 |
\*---------------------------------------------------------------------------*/
FoamFile
{
    version     2.0;
    format      ascii;
    class       volScalarField;
    location    "400";
    object      ddt0(omega);
}
// * * * * * * * * * * * * * * * * * * * * * * * * * * * * * * * * * * * * * //

dimensions      [0 0 -2 0 0 0 0];


internalField   nonuniform List<scalar> 
14804
(
0.000709757
1.80158e-10
0.000266111
-3.15409e-07
-2.31173e-06
3.42789e-05
3.99102e-08
7.88653e-10
0.00021808
-2.72993e-12
0.676387
0.000332957
-1.70996e-09
-1.24785e-06
-0.00240411
-0.00220081
-2.06707e-06
-1.75064e-07
-0.00254091
7.56161e-06
-1.20635e-09
4.79386e-09
0.00108284
-1.85741e-08
-0.0194379
-1.67761e-08
1.52103e-07
-5.659e-08
0.00136409
-2.7532e-08
2.17527e-10
-0.000125465
1.27752e-05
7.59639e-06
-2.2643e-05
3.99633e-08
0.00162114
-2.10256e-11
-0.00986956
3.91274e-07
0.000176181
2.20375e-05
0.0325442
2.18501e-09
-3.02466e-08
-1.38379e-08
-0.0739445
-1.88325e-09
-1.60529e-08
-0.00687832
8.33929e-09
8.62241e-10
-2.18514e-10
-8.63926e-08
-0.00549987
-0.0102234
0.155616
0.00091942
3.51169e-09
-1.62294e-08
0.000262385
-1.12656e-08
2.59875e-09
-0.0035106
2.62091e-09
5.00628e-10
3.07214e-09
3.34677e-08
2.78759e-11
-0.001801
-1.33481e-11
9.07911e-08
-0.131496
-0.00228402
-1.65615e-08
-0.0022726
-0.0013335
-1.41202e-11
0.000142127
1.07381e-09
2.74323e-05
5.99524e-10
8.88207e-10
-1.68176e-08
2.0389e-11
0.000436189
-1.16405e-10
-5.67226e-08
-3.54228e-10
1.32656e-07
-3.3415e-06
2.02378e-09
1.25392e-05
4.52231e-10
-0.00423061
-0.00175843
0.00104485
-1.69884e-05
6.21483e-09
1.3634
0.000671361
0.000457109
1.17982e-11
-2.81568e-06
0.00123354
-0.00089548
0.000481966
-0.00553374
-5.13963e-10
-8.02366e-13
-1.23618e-09
-0.000716405
-5.06165e-05
-0.00358589
-0.000637388
-0.000661012
-0.0137788
-3.7005e-06
1.25024e-11
-2.73718e-07
-0.00060028
-3.93522e-10
-4.01653e-08
4.01858e-06
1.37658e-09
5.33566e-11
-0.00350561
-1.55826e-06
-0.00110356
2.60112e-07
2.22931e-06
0.0028341
0.000650552
0.555366
0.0367696
4.33855e-07
1.9562e-09
1.943
-1.23968e-08
1.05195e-05
2.41984e-10
-0.0111885
1.41486e-09
0.000770783
0.000491491
-2.24202e-11
0.000528353
-2.59977e-10
-0.0754318
0.00193172
0.000164492
0.00448487
2.88929e-06
4.53469e-07
9.73997e-10
0.000316155
-2.17204e-07
0.472124
0.00151088
-0.0962181
8.28212e-11
-6.13591e-11
0.000558307
0.0036097
-1.10425e-07
8.89412e-05
-4.4846e-09
0.000637231
-4.30326e-09
7.49792e-10
-0.060273
4.23111e-08
-0.000104836
-0.00255459
0.0474696
0.48288
-0.00224304
4.61248e-05
7.84662e-11
0.104037
3.29004e-05
0.00595332
3.01646e-08
0.000116839
-2.07894e-08
0.000146555
-4.72072e-05
-0.000172549
-2.65543e-08
1.27685e-10
0.0205122
0.861271
4.99329e-09
-0.670323
-0.00262201
1.73675e-09
-0.00110299
4.6506e-11
-5.19351e-05
-0.000795099
-0.00060668
1.7366e-10
3.14971e-09
-9.9403e-05
-2.32927e-07
0.0016294
-2.73176e-07
-1.28224
-5.15438e-06
6.53616e-09
-5.88801e-09
-0.000471985
4.0974e-08
3.52985e-11
4.4172e-07
-1.08643e-08
-6.24825e-08
-2.905e-09
-6.17323e-10
2.06252e-09
8.56066e-06
1.75068e-05
-2.10611e-05
-1.93583e-09
-2.97022e-09
-2.68865
-3.90654e-06
-0.00519994
0.000904346
1.08629e-08
3.2257e-10
-9.50948e-09
-4.28662e-10
-0.000906564
-0.00208108
3.38123e-11
-1.6901e-08
-0.000177883
0.000866212
-2.40958e-08
-0.00191193
0.0110586
-5.45923e-09
1.75263e-09
-1.39178e-09
-0.00332431
5.94424e-08
-1.2007e-07
0.000808071
-4.05518e-10
0.00780448
1.58934e-09
-4.84719e-11
2.04965e-10
0.00123198
-1.06566e-07
-3.58998e-13
-4.11367e-08
-5.08726e-11
5.8227e-10
0.0260474
-3.35169e-08
-0.00035095
8.20864e-10
-0.713515
-1.15487e-08
-3.36291e-07
-1.08502e-09
0.000894275
-0.000857348
0.00543473
0.00307193
2.33024e-11
-3.1421e-09
-0.0163292
-0.00218962
-4.96345e-08
0.000685979
0.00340412
-0.00115302
-0.000465637
3.33397e-11
0.000376137
0.00019392
0.000564468
0.300116
-0.00116991
-5.9288e-08
-1.51008e-05
-0.032289
-1.67248e-09
-7.54285e-09
2.50757e-09
-1.78161e-08
3.53441e-05
-0.124625
0.00117092
0.000455254
-3.01953e-09
-2.51334e-05
-1.10393e-10
4.57532e-10
-1.18563e-05
9.04353e-06
-0.00246567
3.28421e-09
-0.143368
-0.000911543
3.91018e-05
-0.00411659
-0.00082334
-1.82978e-08
-4.95794e-09
-2.51939e-08
0.00125462
3.10701e-08
0.026141
0.0765275
8.10206e-10
-0.00234135
-0.00188654
0.0156513
-0.00197106
0.00110497
-1.10649e-08
-1.87479e-06
0.0363073
-8.33529e-10
0.593745
0.00139545
-2.3842e-06
-5.39789e-07
-0.000140031
-1.90423e-08
2.99761e-10
4.79363e-10
5.00177e-10
-3.12392e-05
-1.41412e-08
-0.00022853
-3.21448e-09
-1.79494e-08
3.55035e-08
5.07373e-09
3.09521e-10
0.00119608
0.00450893
-0.00115575
7.89981e-05
0.000313436
0.000448832
-4.15278e-08
-1.25941e-10
-9.81187e-10
-1.33396e-08
-0.00128182
1.19441e-08
-0.000511755
1.18492e-09
-4.34844e-11
-1.54126e-08
0.000459822
-5.09875e-05
0.00229617
-0.00583849
-0.0018992
-4.61008e-08
6.14951e-06
-1.2724e-06
1.15654e-09
1.31215e-08
-2.71449e-09
6.31975e-05
-7.47331e-09
-1.35407e-11
-0.00686366
-1.24187e-09
-1.49239e-08
0.000922457
1.03739
-3.23677
-3.94522e-07
-0.000115189
0.000751809
1.64404e-07
1.43052e-09
0.0019155
-1.5753e-08
3.62629e-10
-0.000162294
-2.63169e-06
1.39214e-09
-1.52824e-08
-7.05756e-08
0.0045137
-1.77115e-08
0.0417549
-2.78875e-07
-0.00379389
7.12323e-10
0.00138598
-2.34843e-10
-0.00547549
0.0045129
-1.19572e-05
5.17369e-09
-0.0266344
3.81545e-09
1.00608e-05
8.94797e-11
-3.19528e-09
-3.40503e-06
-0.0845796
-1.80811e-11
-2.23042e-08
-1.2055
-9.90032e-10
1.43747e-07
-1.81275e-09
0.000745572
-0.131709
-2.0169e-05
1.40084e-09
4.4869e-05
-3.99582e-08
-1.25573e-07
-0.00378094
0.000257722
-1.83265e-07
1.00443e-09
-4.41911e-08
-2.69813e-09
-0.875259
4.78229e-10
-3.58041e-08
4.4704e-11
-3.35839e-11
0.00139388
-9.9834e-10
-1.5456e-08
-2.86381e-06
0.00397592
-1.54507e-09
-1.02717e-08
2.99428e-10
-1.64538e-07
-0.00392712
0.0500366
0.00354626
-4.68935e-08
-0.00097545
1.39045e-08
-1.68623e-08
1.0738e-10
1.16554e-09
-4.1489e-09
1.67523e-09
-0.0312648
-9.89837e-08
1.46412e-10
0.405162
3.3618e-10
-0.0310867
0.205327
-1.29778e-06
-4.14221
-3.28219e-07
-0.00100773
-7.65299e-06
2.52145e-09
4.53924e-11
-7.56143e-06
-1.74764e-09
1.82098e-10
-0.00266254
-1.17101e-07
-1.96576e-09
-1.39723e-07
0.00142807
0.00400927
-1.43594e-06
-2.78158e-07
-2.718e-08
3.53279e-06
-1.40796e-08
1.34856e-07
-0.00214068
1.10812e-09
-1.86314e-09
7.79757e-06
-1.72029e-07
0.158333
-1.7216e-06
9.94888e-11
5.3823e-05
-2.16678e-10
6.64705e-11
0.000481597
-4.50847e-07
-3.67665e-09
-3.39214e-05
-1.51175e-08
2.19014e-10
0.000117226
-8.34954e-05
5.31528e-10
-5.68449e-10
-5.64817e-11
-2.05483e-09
-0.000883131
8.67962e-10
3.74597e-09
0.402617
-3.0779e-09
-1.43946e-07
0.00522336
-1.41106e-10
-3.34875
8.46873e-10
0.00783244
0.000321151
-0.438822
2.93836e-09
1.44435e-11
-3.53298e-07
-6.7698e-08
8.76583e-10
-2.06482e-08
1.49362e-10
1.09973e-05
9.24388e-10
1.31771e-05
-1.02243e-06
-2.10094e-08
0.000905181
-6.4696e-05
-0.000526305
-2.28009e-08
8.58362e-10
-0.000445719
2.96716e-12
-1.86612e-07
0.0392318
-1.12013e-05
0.00501885
-0.0011295
-8.13793e-11
-0.00716298
-0.000155071
-7.85281e-08
2.3846e-08
-0.00102074
-0.00254813
9.92987e-10
1.21279e-10
3.49221e-10
-0.0109033
7.06435e-05
0.00326434
-0.000487201
-6.83416e-10
-1.41056e-06
0.019925
-0.131344
-1.92135e-07
-1.55826e-07
-3.55525e-09
-8.74205e-10
0.000873716
-0.00147784
-1.06916e-05
0.00476861
8.63266e-10
2.60217e-10
-1.21291e-09
4.90398e-06
-3.70531e-10
-0.0152426
3.17346e-10
0.000147293
0.177905
7.35592e-06
0.0135368
-7.47047e-10
1.65545e-09
-0.00104452
-4.59475e-08
0.00141998
-6.23845e-11
-1.36799e-09
-4.25934e-09
1.32124e-12
2.62675e-05
-9.51804e-08
8.88295e-05
-0.000311515
-4.84829e-10
-1.97494e-08
-2.20704e-07
-0.000162874
-0.000316928
-2.87422e-05
-6.17874e-10
-0.0168691
7.64779e-11
-0.233153
4.60096e-10
-0.366846
-0.00235576
-3.28193e-10
1.92198e-09
0.000185414
2.21944e-10
9.33407e-10
-2.38625e-05
-1.99989e-08
-0.000709645
-4.75229e-05
2.20407
-6.51554e-11
-0.567322
-0.553786
0.000488798
1.71825e-09
0.000391089
2.66901e-10
0.0442285
-2.30271e-10
-7.94022e-10
-0.000446836
0.000498766
-0.0391856
1.94435e-06
1.29415e-05
1.15447e-09
-0.00259733
6.11519e-10
-0.0699952
0.668202
-2.33113e-07
-2.87257e-10
1.37989e-09
1.51968e-07
-5.30392e-08
-3.18802e-11
0.000416565
-0.00677498
-8.20971e-07
-7.93129e-09
-0.0012025
-0.000822499
-0.00533844
1.30113e-09
0.000111977
9.96792e-10
-8.84299e-09
0.000482755
0.00155565
6.52025e-06
-0.00121118
-3.13195e-05
0.00180423
0.00129728
2.47319e-09
-0.00302524
-1.1682
1.54407e-10
-4.27504e-07
-0.000524075
1.34265e-07
6.15596e-05
-2.83138e-08
-6.69869e-05
-0.976713
-1.52656e-10
2.49478e-05
1.51833e-10
-5.96533e-09
0.00125385
0.00533026
-7.37966e-05
-4.88659e-10
-2.17946e-11
7.88464e-10
2.29728e-09
0.00220598
-0.000920415
-2.63505e-05
0.0759802
0.00385749
-1.73359e-05
-4.90313e-07
0.00076209
2.48755e-09
-0.00182375
-2.20449e-07
-9.01277e-11
1.58491e-09
-2.02699e-07
1.11697e-05
-6.03692e-11
-5.50729e-08
-9.88197e-06
0.000409164
9.7217e-07
0.00303205
1.41026e-09
0.00169923
8.95566e-06
-1.03121e-06
-6.77423e-07
-3.70059e-11
1.65114e-09
-0.0048561
-0.00185705
-9.24116e-09
0.000636307
-3.10607e-10
3.63117e-11
-4.8242e-09
-4.18567e-09
0.00640384
6.26887e-10
-0.000191202
-1.24261e-09
-2.53874e-08
1.56676e-09
2.58159e-05
-4.88147e-08
-3.22747e-10
-2.74751e-09
-6.55147e-05
3.61796e-05
-8.59296
0.0080378
1.39716e-10
-2.84046e-10
-1.39547e-10
-0.000856116
-7.46092e-06
-3.39118e-05
0.00452327
-9.75429e-05
-1.61067e-07
-3.77438e-05
-3.91377e-09
5.70887e-10
-8.84638e-11
-7.40057e-10
-0.000988949
-1.82112e-10
1.16829e-11
-0.16115
0.00057159
-6.47413e-08
2.99135e-10
0.000853013
-0.00393962
-5.75623e-05
-3.24714e-08
-1.56065e-07
-0.0090694
4.71868e-05
0.000810815
-1.29147
-5.13917e-05
-0.00060201
6.33926e-09
-6.11793e-05
0.0142414
1.41988e-10
-0.428067
-2.70377e-08
1.36205e-12
-0.00506978
4.06698e-08
-0.00843529
-0.000777108
-0.00695823
4.54687e-10
-0.000812132
5.27301e-11
-1.65464e-08
-1.01577e-07
-4.3451e-08
7.70507e-10
-0.000331841
-0.000809829
-7.88028e-08
-0.00154338
-4.19031e-08
-0.00240539
2.15979
-0.000105391
0.00393417
-2.6697e-08
1.54588e-10
-7.07142e-10
2.74089e-10
4.06368e-10
0.0010954
-2.15675e-08
0.000992374
0.0278585
-1.84138e-09
6.83689e-05
4.50512e-06
9.87347e-10
-1.30925e-09
0.00537824
0.00815864
-2.27091e-08
-6.04707e-05
-5.29423e-09
1.27823e-10
2.85471e-05
-8.55145e-08
-0.00137065
0.00229979
-0.00872766
-0.016682
7.96835e-08
0.000885817
1.72547e-10
-0.00173869
0.000633092
-4.79963e-10
-1.86395e-07
0.00752303
1.26441e-09
-0.000259016
4.1324e-10
0.00232265
-6.27596e-05
-1.91137e-09
1.03468e-08
5.33302e-10
2.66823e-10
7.20881e-08
0.0277247
1.18379e-09
-1.07566e-09
-2.86773e-07
-2.19783e-08
0.0003302
0.000103837
-4.95536e-10
3.5578e-11
6.58428e-10
0.00219993
-8.90123e-09
-6.80029e-11
-0.000474894
4.36289
-5.71758e-10
1.14852e-09
5.83798e-05
0.000342195
-3.61611e-10
-3.33298e-10
-2.31095e-09
0.000132042
-1.93592e-11
0.0018303
5.96174e-05
2.88426e-05
-0.020641
0.181374
-8.87382e-10
-0.255993
1.5479e-10
-0.000955683
3.69004e-06
-1.73868e-07
9.05269e-10
1.41626e-09
-0.00195141
3.04232e-09
-0.00139508
-5.57233e-12
-5.34829e-06
0.000818255
-0.00298865
-0.00232841
2.74269e-09
-5.40591e-05
1.77125e-13
1.40234e-09
-2.67683e-07
0.0169739
1.93946e-09
-0.0474706
5.75536e-06
-2.53077e-08
-1.37818e-07
2.10665e-11
2.01968e-08
9.70369e-10
-1.56911e-09
-7.08382e-11
0.000173919
6.30154e-10
2.75395e-05
-5.68847e-08
0.0184514
4.92027e-10
0.991929
5.7992e-10
0.00212323
-2.71961e-07
-0.00382266
-2.60521e-06
-6.63594e-05
1.99897e-07
-1.9628e-07
-1.37604e-09
-1.80525e-07
-0.00167401
7.43211e-08
2.3176e-10
5.51091e-11
0.00573657
4.74421e-05
2.52456e-05
-9.8981e-10
1.57611e-10
0.00186633
4.13482e-05
-0.000841146
-0.000638977
-0.000101875
-0.000108174
0.00315614
1.16773e-09
-8.01661e-12
0.00216696
7.56799e-07
0.0137697
2.13957e-05
-6.2011e-10
9.78315e-10
-0.00043271
-6.55468e-10
-0.000814626
-1.03711e-07
9.12001e-06
-2.1432e-10
-0.00132585
-8.4911e-11
0.0244332
-3.99615e-10
-3.24816e-09
-0.00294125
0.000990648
0.000333588
0.000745728
0.000126366
0.00500981
8.32416e-05
-0.000110546
-0.000750509
-2.05806e-07
-0.0088828
6.49974e-09
5.0848e-10
-0.000380106
0.000558552
2.30042e-05
-9.50497e-08
-4.28542e-09
-0.000101418
-1.8625e-08
0.000996836
-0.00206754
1.35392e-09
1.67601e-09
9.19855e-10
2.75213e-07
1.37148
-4.33211e-08
-0.00190511
0.0964168
0.00119223
-6.60149e-07
-1.74932e-08
-2.45301e-09
-0.0224657
-4.29264e-09
1.089
1.44514e-05
-1.65445e-06
-4.96595e-10
-2.55451e-10
2.2107e-05
-1.00203e-05
-1.20664
0.138052
0.000290447
8.94164e-10
-8.95095e-11
-1.4518e-09
-0.000301336
-0.000135366
-3.3562
3.3544e-09
-0.00119924
5.58654e-05
-2.61327e-05
-1.30914e-07
-2.64146e-08
1.22053e-09
-1.24177e-08
0.00161442
-4.20754e-06
4.50466e-10
0.000216547
0.166087
-2.11172e-07
-3.21767e-05
5.31387e-05
1.11731e-09
-0.938447
-4.12094e-09
-3.79495e-07
-2.83333e-08
7.26024e-06
6.80477e-06
1.10101e-09
0.000744998
-3.19484e-07
0.00172007
4.70015e-10
2.87661e-10
2.48129e-10
0.000109452
-0.000921181
1.3854e-05
0.0185785
7.86003e-05
2.26332e-09
-2.59889e-08
-1.08127e-08
0.00716873
0.000795008
0.000322494
-0.00324876
-1.99841e-10
-6.07898e-08
-0.00901166
8.28134e-09
4.33416e-06
-0.0469429
-2.07865e-05
-2.12924e-08
0.00145479
-0.000395311
0.00583643
-3.24373e-08
-0.00135563
-3.08827e-08
-0.112913
0.00127114
3.67818e-10
-7.47881e-08
0.000393824
-0.00250424
-5.9964e-05
1.96753e-09
-0.000266504
0.000972402
-5.18349e-10
-6.4393e-05
8.61797e-10
-1.10023e-09
0.0472035
-1.36736e-09
-5.72909e-07
-5.26457e-06
-0.00104663
-4.90848e-10
3.80122e-10
3.47351e-10
0.000329111
1.83543e-09
-0.00350582
0.00432795
0.00776055
0.0676222
-8.64361e-10
6.5889e-10
-1.63471e-08
-2.54903e-10
-0.000129072
-4.87259e-08
-0.00361167
-6.073e-06
-4.97575e-09
1.19796e-05
1.32219e-09
-1.69767e-09
-6.46392e-10
-0.422859
-0.000842596
0.000975524
1.00394e-09
-1.70397e-08
-0.000242973
-2.59346e-10
1.1743e-09
-2.44104e-08
0.00732734
-0.00109753
-2.29626e-08
8.70241e-05
-1.13368e-06
3.28178e-09
-5.16012e-08
1.44239e-09
0.00056644
-0.000284613
8.19346e-08
0.0104223
-3.98618
6.92318e-11
9.95072e-11
8.72791e-07
-2.71778e-10
-3.38483e-05
-6.21075e-08
4.31338e-05
4.19574e-09
-0.00113336
0.000986478
-3.96944e-08
-1.30496e-09
-6.55063e-08
1.25426e-09
-6.22287e-05
-1.60943e-09
-2.56024e-09
-1.11983e-09
0.000260846
-4.8e-10
-0.0151626
5.74819e-10
-1.03906e-10
-0.188697
-2.17126e-06
8.07252e-10
-6.57939e-05
0.00305715
-0.790569
-1.80887e-10
-0.00461354
-2.69495e-09
-2.05628e-10
-1.73255e-08
-2.6934e-06
-3.46617e-09
0.000547896
3.52596e-05
1.08784e-07
5.46107e-09
5.4354e-10
-0.00210069
2.22889e-05
0.000287033
-2.51156
-3.85842e-11
0.00505519
2.00639e-05
2.25019e-08
1.49215e-09
-0.000261553
0.000174423
2.92273e-10
-0.0160922
-0.00509935
-0.00569574
-1.779e-05
-1.73223e-08
-1.64285e-07
-1.07204e-07
-1.05886e-08
1.49078e-09
2.64799e-05
-1.11432e-10
-1.66215e-09
2.20769e-09
4.14829e-05
0.0022108
-0.000148214
-0.0326674
-5.44358e-07
7.43162e-11
-0.00352498
-0.134448
-0.000208189
-1.64595e-10
-8.09296e-10
-8.59785e-10
-1.99771e-07
-2.08636e-07
-0.0015756
-1.83241e-09
6.07903e-05
-0.00317066
1.46909e-07
7.79851e-08
0.000403454
-0.000510516
6.46881e-11
-0.00633855
8.23708e-10
0.00119118
-7.49975e-10
-0.000875622
-0.00219263
0.000457949
-1.86694e-05
2.31874e-10
6.77007e-10
-3.02245e-12
1.3069e-09
-8.94161e-11
-0.234163
0.00222102
-1.13326e-08
-0.00333386
0.000474101
-1.13591e-07
-3.75394e-08
2.72712
-1.39701e-07
-0.0083421
0.000177423
0.00406439
-0.000483919
3.56023e-10
2.4424e-10
0.00384609
1.23114e-09
2.87385e-09
-1.88362e-07
0.0055273
6.96111e-09
-8.12663e-12
0.00144161
0.0010392
-0.0159328
0.00122338
0.00592576
3.68662e-10
-2.17401e-09
0.0021215
-7.89759e-10
1.42174e-09
-1.27922e-09
0.198775
0.00732202
-6.34521e-09
-3.14207e-07
0.000504218
1.08337e-10
4.82093e-05
0.0299681
8.72861e-12
-5.1208e-09
-1.49943e-06
-1.03255e-05
0.00012459
-0.00045642
-0.00166211
5.64683e-09
-1.27196e-08
3.51654e-10
0.00115237
-1.37857e-10
0.0040306
2.69807e-09
-0.0114601
2.53161e-09
-9.19987e-09
-1.3815e-08
-2.91515e-05
9.50423e-05
0.00113057
0.509865
7.18844e-06
-4.60607e-10
4.34362e-07
2.19874e-09
-2.20384e-05
-0.0316035
5.06037e-10
-1.5098e-05
-1.34209e-08
7.45482e-11
-1.2125e-08
0.00118742
-0.000406684
-1.15646e-10
1.08319e-08
-0.000268656
1.41638e-08
0.00199493
-0.388041
3.47938e-06
0.133653
-4.58823e-08
0.00019347
2.54771e-09
0.00130082
-1.62781e-07
-1.29884e-08
0.00123991
-1.66882e-07
-0.00728864
1.94388e-09
-0.006704
6.81516e-05
7.59174e-13
0.000198752
0.00105088
-9.51737e-06
-0.000490986
0.00537695
-9.24408e-06
-1.59722e-07
-0.190939
2.5541e-10
5.21752e-09
0.00187763
0.00328509
-4.32382e-07
-2.38253e-11
3.61962e-10
4.57459e-11
4.0829e-09
2.98216e-10
0.00145711
0.00130788
-4.77017e-10
-0.00268956
-2.1299e-08
-2.93488e-07
-0.00235343
0.000146359
2.81811e-10
-4.72547e-09
-0.000549872
-0.0006314
-1.42196e-08
-0.553859
-2.33383e-09
-4.00479e-10
-1.81504e-07
2.42318e-10
0.554076
1.22566e-09
-0.00248302
0.000401856
-1.66106e-08
-5.59396e-06
-3.88942e-09
-3.05171e-05
-4.15959e-10
7.88156e-07
-0.000580604
0.792589
-4.81273e-10
-0.000408752
6.55572e-07
-0.00122758
0.0188163
2.85075e-10
-1.10376e-05
-0.00501729
0.00116152
-0.0697217
3.2085e-10
-2.69472e-08
-0.0145996
-0.003601
-1.08054e-08
-4.30858e-06
0.699962
-0.000189187
-4.23079e-08
-0.00234132
-3.11547e-05
-0.00199339
0.419115
4.1082e-09
-1.17368e-08
-1.26065e-10
0.000784689
-3.89131e-08
-2.52571e-08
-0.00320045
2.20525e-09
2.24346e-09
-6.3649e-11
8.48065e-05
-1.87449e-11
0.00372524
1.66703e-10
-1.14666e-07
-1.71002e-07
0.00010409
8.98705e-08
-0.000604099
-6.29476e-08
0.00130517
-0.00123433
0.0817781
5.29946e-10
-0.00434957
4.01548e-08
0.00887689
3.54669e-09
-2.13456e-06
3.96672e-12
5.01376e-08
4.86028e-10
0.000181225
-0.0050521
-1.48123e-09
1.18118e-09
-1.84964e-08
0.000520835
1.23334e-09
-2.39666e-07
-0.00672268
-6.65876e-10
-4.31644e-08
0.000613174
-1.48834
-1.76959e-07
-0.0795283
-1.25804e-10
2.70929e-11
3.35515e-09
-1.31512e-07
-1.42856e-09
-8.07955e-11
1.11907e-09
-1.25697e-09
-5.48132e-10
-0.000871136
3.21433e-09
0.00217436
-0.000437007
5.64599e-11
-0.00101397
-2.93204e-09
-2.36212e-08
-0.00208364
2.01844
9.83005e-05
9.63824e-10
-5.20572e-07
1.20216e-09
1.18663e-09
-0.00166222
7.01729e-06
-0.00822504
4.12939e-10
-8.48812e-10
-1.13997e-09
-8.79758e-08
0.135158
0.00022092
-2.31349e-09
-1.15338e-11
-9.10916e-09
0.743726
-0.00784397
1.25446e-09
-0.191809
-5.31626
-0.649162
4.45174e-07
-1.54224e-05
2.80788e-06
-5.09555e-10
6.21946e-10
3.30756e-12
1.02206e-09
0.0623705
-0.00792609
0.000823141
1.57325e-07
-0.00298395
-0.0420829
-1.68136e-07
1.40904e-09
-2.1944e-10
0.0304263
-1.46111e-07
-3.47558e-06
7.79733e-08
-6.33455e-09
-1.8485e-05
8.06489e-08
-1.74157e-08
-1.06524e-08
-0.00125713
0.000395816
-2.29285e-09
-0.00118143
-1.21941e-08
4.89962e-10
2.36694e-07
-0.00116289
-1.25936e-09
-0.00233108
4.73088e-07
-3.88785e-08
-8.06911e-09
-5.27548e-10
-0.00315145
3.19173e-09
-8.67267e-06
-0.00422702
-0.000608716
8.73961e-10
6.60829e-05
-4.50342e-09
-1.59065e-08
1.22484e-10
-2.69564e-08
-5.8455e-10
-4.82603e-05
-5.79576e-09
0.221685
6.8376e-09
-4.78454e-10
1.1829e-07
-0.000694041
-2.00653e-07
-1.18126e-07
7.38253e-08
-1.93084e-07
-3.43707e-11
5.57867e-10
-5.25539e-06
-9.81076e-10
0.131954
3.62876e-11
6.80752e-05
-0.00220067
0.000917799
-4.01912e-09
0.00640115
0.00410806
-0.000350167
0.00401141
-0.0149709
-4.82065e-05
6.94634e-10
0.00572638
1.02804e-08
1.55202e-09
0.00398383
0.00285868
-5.62366e-06
-5.13988
-4.93986e-09
-2.06273e-09
-0.00381965
0.00190272
-0.00154644
-0.195264
-1.47631e-05
-1.27931e-07
0.000336301
-3.04201e-08
-0.225099
-2.32205e-11
2.90698e-05
-0.0138568
-6.36062e-08
1.3951e-05
3.75455e-10
1.08444e-10
0.000213415
9.22507e-10
-0.00144107
-7.53713e-08
1.40397e-09
0.0439246
0.000381499
1.27168e-09
-0.000647081
-1.56531e-08
7.08503e-10
4.09184e-05
0.00140328
-1.05565e-08
1.15954e-09
-9.17119e-10
2.04112e-05
-2.05682e-08
0.00461379
0.000197287
0.000729486
-0.00250572
-6.13106e-11
-0.000155043
-1.47166e-08
0.00033631
-2.42491e-10
-0.0283564
-0.00271008
0.0162072
-0.00146553
-1.19016e-10
-9.73378e-10
3.91321e-10
2.24611e-10
-1.22594e-11
-2.63704e-07
-0.00702147
-1.23477e-07
-8.47946e-06
-0.0176118
-0.000494048
-0.00381025
-0.000346146
-3.09055e-09
8.26548e-10
-1.89541e-06
7.88561e-08
0.000426726
4.90867e-07
-2.37538e-09
-0.00407646
0.0003129
-1.41838e-07
-2.58061e-09
6.17953e-10
0.00334126
7.44714e-06
3.72749e-10
-5.8115e-09
4.01065e-09
6.14599e-10
-6.70454e-10
5.96925e-10
-0.00194489
4.50774e-10
0.242688
-0.000181887
-2.93782e-08
1.42162e-07
8.20086e-09
-1.35848e-09
3.01906e-05
-5.19362e-09
7.17335e-11
-0.000137617
-0.0395235
2.62672e-10
-0.000837066
-2.52578e-08
-0.000318228
-0.00331316
-7.46834e-11
-0.00029263
-1.07758e-09
0.228244
-8.79381e-08
0.000475975
1.58396
-0.00124775
-0.00133835
0.689628
-0.00063043
-5.67237
0.00547304
7.0432e-08
-0.00830148
-1.02368e-08
0.000765744
-0.000618265
-0.000152313
1.61047e-11
-1.40963e-08
9.17024e-10
0.000870004
-0.00922566
4.59471e-10
1.31014e-09
1.58248e-09
-0.000314799
0.0013299
5.58403e-09
3.72667e-05
-0.00350184
2.42189e-10
-5.92092e-05
-1.78721e-09
-5.24981e-09
-4.60016e-09
3.35518e-09
0.000301542
-0.0218143
-0.0272716
-0.00302825
-0.00231227
-0.000669608
-1.13335
-0.0231104
0.978518
0.00431446
-3.51651e-09
0.000377799
-3.00342e-11
-2.45009e-09
1.99864e-09
0.0001199
-1.09467e-09
-9.90575e-09
0.18329
-6.53884e-08
-7.80941e-08
-8.56418e-08
-9.72639e-08
-2.89126e-11
0.00167497
-8.57211e-09
-1.72257e-08
0.000140222
-2.62262e-06
0.00308663
-4.65876e-05
7.06399e-09
-3.5107e-06
0.00429045
-0.524857
-9.20605e-09
0.0159294
-2.04078e-08
0.000408648
1.10528e-09
-1.08822e-08
-1.04051e-07
0.00705852
-6.96811e-09
-0.173074
-2.40053e-06
-0.320603
0.00544107
-0.000123353
-0.000929675
-4.01928e-10
1.84721e-11
-0.00493464
-4.77241e-06
-0.000219871
0.00110081
1.41081e-09
2.03004e-10
3.02338e-09
-2.43957e-08
-6.38525e-05
0.00131953
8.01431e-05
-1.37625e-10
-2.58873e-09
6.99039e-09
-7.77459e-05
-0.119988
1.43644e-09
7.95069e-07
9.42305e-06
-4.55561e-10
0.000249169
-0.00310344
-0.000664955
-0.017219
-1.54893e-10
2.82279e-06
-0.0005973
-0.000126248
4.53304e-06
-0.00195766
0.000415751
-8.05816e-09
4.72936e-10
5.71103e-10
-1.23253e-09
9.9389e-09
-0.00111689
5.66866e-10
4.66029e-10
-3.17716e-07
-1.31063e-07
0.000310055
-8.3431e-08
-1.03114e-08
1.66668e-05
-0.00203009
-7.39914e-09
-0.000313368
-9.47575e-09
-3.46381e-10
5.64465e-06
-2.52944e-05
7.03853e-10
-5.69827e-09
-2.57424e-06
0.003844
2.80786e-06
1.92632e-09
8.29265e-05
-0.000326723
-2.44993e-08
-0.00123843
-0.000494258
-2.416e-07
1.03782e-08
-4.62767e-09
-0.00159563
-0.0144453
1.43181e-05
5.70317e-05
5.57424e-11
-5.3846e-06
7.79981e-10
4.51374e-10
0.000465307
-1.89266e-08
6.6093e-05
-3.17773e-08
-0.451084
4.41147e-05
-2.13738e-11
3.00538e-05
-0.000474992
-1.44101e-08
2.29327e-06
-7.68726e-11
7.81696e-06
0.520874
-0.00141994
-0.764774
0.000352985
-0.0865713
0.00497246
-2.14005e-05
2.38854e-09
-2.0476e-09
-1.0507e-05
5.41435e-05
-0.00424493
9.71394e-06
-2.72631e-08
-6.53613e-09
-0.00243686
2.44009e-05
-0.00221119
-1.04757e-08
-2.2424e-09
0.000424362
-0.0040061
-7.31754e-09
-1.386e-08
6.66628e-10
-1.83311e-06
-0.000174289
-2.51113e-08
5.07264e-09
-1.69639e-06
-4.4948e-06
0.00113374
-5.41633e-09
-1.43307e-08
-0.000204373
-5.96939e-11
2.26507e-05
7.7635e-10
-1.90949e-07
-0.010641
4.6972e-08
1.4406e-05
-2.43412e-10
1.49531e-09
-8.70722e-06
-1.48813e-09
4.89038e-09
4.83003e-10
-3.96534e-06
-8.56102e-05
4.85531e-08
-0.000114133
-1.22224e-10
-6.26453e-10
-2.54669e-06
-0.0016259
-0.000339439
-2.08245e-07
-0.000270771
-6.84996e-09
-6.26751e-09
-7.00841e-08
0.512944
-2.34371e-08
-1.3337e-09
-1.74372e-09
0.0121126
-1.58055e-06
-6.33298e-05
-8.33926e-09
-6.93572e-11
0.000903188
-9.38441e-08
-6.36777e-09
-0.0015525
1.09742e-06
-1.06327e-08
-1.21489e-11
8.15168e-06
-0.14187
-0.000203163
-1.40837e-10
-2.27616e-05
-1.15363e-07
9.69363e-10
2.77239e-11
-3.07443e-07
5.0529e-06
5.01008e-05
1.18306e-09
1.47773e-07
2.93387e-06
2.35106e-05
-1.86885e-07
-0.00198148
-0.00299466
-1.32911e-07
-7.44101e-08
-0.291454
-0.01192
3.04189e-08
-2.65443e-08
1.25247e-09
-8.21041e-09
-3.10166e-08
-0.000918148
-0.00930671
-1.68877e-09
-0.00136934
7.20518e-09
3.17031e-06
-6.25252e-05
-1.8441e-07
-1.03995e-08
0.294631
0.000576663
6.56908e-10
-2.0249e-09
-1.06983e-05
1.49577e-09
1.04253e-05
1.09016e-05
1.5908
1.86021e-06
3.61488e-10
6.20156e-10
0.000123613
3.64721e-06
-0.000504048
4.30359e-07
-0.00177465
1.40682e-05
0.000682174
-0.000107052
-0.00537356
-0.00380948
-1.25964e-05
-0.00963316
-0.00106661
-2.09927e-08
0.788679
-1.38461e-07
0.000305125
-8.15972e-09
2.00323e-10
-0.000727053
2.20408e-09
6.7441e-05
-0.482323
-1.68082e-05
-1.49748e-07
0.00589726
-1.64445e-06
-2.71672e-08
-0.00161528
-7.95163e-10
0.392457
-0.00776375
5.00029e-11
0.00167705
0.00292234
-0.00780457
0.00012472
0.00136282
6.72545e-05
-9.16447e-11
0.000146278
-3.99632e-07
0.00121669
-0.000158309
8.89313e-06
-3.1827e-07
-1.73887e-07
2.35745e-05
-0.000196845
0.445952
0.0140628
-1.11147e-07
-2.04176e-09
2.88864e-08
-0.00458854
-1.85868e-07
-2.86193e-08
-1.58513e-07
-0.141406
4.54953e-06
-6.38747e-10
-1.13508e-07
-3.71566e-10
1.04296e-09
-1.94028e-07
0.00133721
-4.13891e-10
-0.00117624
-1.87677e-11
6.98625e-10
-0.00011832
-4.96127e-07
-0.000673143
-2.41749e-10
-9.50373e-07
0.00541502
1.12358e-08
-1.77192e-09
0.000389763
-0.000902185
-1.74415e-07
0.00874623
-2.4588e-09
2.05184e-06
0.00188239
-3.37063e-07
-0.751634
-0.0162346
2.36628e-06
2.60709e-07
-1.96081e-06
4.74595e-10
1.95765e-09
-2.50506e-10
-8.31164e-07
-0.014467
0.00152809
1.38837e-05
0.000164071
8.80314e-10
3.90342e-10
2.61419e-09
0.00749448
-1.00681e-07
-3.06562e-06
-7.42215e-09
-1.00847e-10
-0.00186595
-1.29687e-10
5.80029e-10
-0.0270964
-1.15365e-07
-8.6301e-09
-3.39284e-09
-9.01967e-09
3.7159e-08
-0.000759256
-5.45972e-05
2.29186e-09
7.484e-10
-7.37114e-07
1.11685e-08
-1.21649e-07
0.000522516
1.81892
0.00205104
-8.41927e-09
-0.00014822
-0.00110259
-0.00485535
0.014895
-3.78251
-1.74975e-07
-1.49633e-10
-0.000208641
-9.58688e-08
-0.000885065
-2.34943e-08
2.9467e-09
-2.8045e-08
-2.11051e-09
-0.000324307
-0.000869737
-4.51402e-08
-4.60786e-07
-0.0136554
-3.29442e-09
1.06718
-0.00868679
-2.38682e-08
0.000168921
-0.00329857
8.97843e-10
0.00802022
0.00137683
3.76014e-09
-7.5784e-11
0.00259909
-3.77575e-09
7.54347e-10
-2.37626e-08
0.164775
-0.000283588
-5.44239e-11
-3.01641e-07
-6.88758e-09
-0.00139861
-0.0069315
-2.92131e-09
1.71968e-10
0.00111319
0.00170005
0.0015503
2.21566e-10
8.20119e-10
9.79517e-10
-0.000151034
-8.02519e-07
-1.74873e-07
-6.73925e-10
-2.08579e-07
0.000139657
-0.000126855
7.86027e-10
0.0023601
-3.14091e-06
8.54715e-12
-1.14475e-06
1.15465e-06
2.31326e-09
-5.29038e-05
1.44558e-05
0.00195094
0.000132389
1.29626e-08
0.000251475
-0.000273089
-6.76643e-05
-0.00044997
-0.000162746
-0.000897928
-3.59884e-07
-0.00646567
0.000135884
0.000337907
-5.85382e-08
-0.0159235
-0.000980126
-2.90159e-09
-8.27231e-10
-4.82272e-05
-0.00147728
7.86134e-05
0.0049512
9.334e-07
2.8796e-10
-6.44047e-06
2.20586e-11
-2.10762e-10
4.80776e-08
-6.20732e-05
-0.000148091
1.17275e-06
6.26818e-05
-8.48634e-09
-9.6936e-08
3.45671e-11
1.03725e-09
2.98077e-05
-6.34792e-08
8.27685e-06
-1.41482e-08
5.95258e-10
0.0481226
7.33508e-10
1.01767e-09
7.0631e-05
-6.22158e-08
-0.00121954
0.00159012
-0.0746314
-1.68518e-06
-2.42964e-08
-7.35809e-08
-1.03661e-05
-6.59321e-09
0.0443473
-0.000595189
-4.69854e-08
2.31729e-10
0.00229566
0.000657881
0.000494005
0.000863033
6.13818e-10
-6.94194e-09
-1.47379e-08
-0.14005
-8.24249e-08
3.15364e-09
-6.99841e-07
-8.6673e-07
-0.000413186
-1.1406e-05
0.0448244
-6.45169e-05
-2.09948e-08
-0.316157
-3.27149e-08
1.96638e-08
1.24572e-09
1.73527e-08
-1.09598e-05
9.77091e-05
-0.0340347
-1.47097e-09
-1.4291e-07
9.64088e-10
-5.48584e-09
0.00090912
-5.11355e-07
-1.46491e-07
0.0996368
-2.11202
-1.84068e-10
2.23137e-11
-1.86447e-07
-0.000539808
2.32555e-10
-5.72509e-05
-2.08581e-07
-2.60773e-07
0.00166763
0.0025444
2.59519e-08
0.00300111
-6.30341e-09
0.000626245
-2.95144e-07
8.92394e-06
0.000279559
-4.05949e-09
-0.0040955
-0.00136632
-3.32876e-09
-1.68568e-07
2.57143e-05
6.49232e-10
1.24573e-05
-6.06387e-08
-0.0011754
1.64914e-08
1.42483
-1.06504e-08
0.000720019
-3.82551e-07
-2.53067e-09
0.00144707
-0.000277623
-1.40496e-09
4.38064e-05
-4.04804e-11
-1.19326e-08
2.95676e-10
6.19887e-09
-1.02652e-07
-3.51444e-05
-8.69996e-10
-1.69902e-08
9.07135e-05
0.000809379
-5.59314e-05
1.95298e-05
-1.58566e-10
-2.23222e-08
-9.23932e-10
0.00344407
6.76982e-10
-1.12402e-08
-0.000827104
0.000318168
-9.43757e-09
1.01125e-09
1.3651e-09
0.000252111
-5.29726e-10
-3.02151e-08
-0.0250731
9.1597e-08
0.081952
0.00151516
6.9432e-09
0.00470095
-0.080189
1.47038e-10
1.07457e-09
0.00173373
5.35613e-06
1.91773e-06
9.20809e-10
6.42034e-11
6.93908e-10
-2.91925e-08
-0.00122014
0.000131694
-4.58567e-09
-0.000328785
2.31109e-06
-2.10415e-07
-6.77014e-10
-3.71506e-11
0.00124447
-7.42318e-09
-5.70087e-09
-0.78228
16.9413
-1.03912e-10
-3.46029e-11
-2.78024e-10
-0.000393443
-2.72946e-08
-1.78574e-09
0.000345313
0.000392956
-4.08312e-09
2.45093e-06
-1.04772e-08
0.0221302
-0.00171749
-3.3423e-11
-0.00436348
-1.09493e-07
1.80001e-05
6.42068e-10
-0.164615
-0.00117469
-3.71548e-07
0.000463613
-0.000221279
6.79496e-10
0.000532672
-1.52579e-09
1.43773e-09
0.000354109
-1.5496e-08
0.000820658
1.40092e-05
10.6053
1.94589e-09
-0.00102476
-0.000890419
-4.23222e-09
-3.80407e-10
0.0163345
0.000382019
-7.74306e-08
6.08983e-11
-1.64027e-07
-0.000545836
-4.89424e-07
1.56174e-09
-0.00391396
-2.90908e-08
6.56404e-08
-2.90791e-08
0.00132448
0.00507856
8.59888e-10
0.000124558
-0.000111246
-0.00447537
-2.0558e-11
-1.74921e-08
-2.80632e-05
-0.000999005
-0.0028543
4.39689e-10
8.35775e-10
-1.92029e-10
-1.74536
-0.00198589
0.000156933
0.00450929
-0.004344
-3.26439e-10
1.04873e-09
-3.02171e-09
0.00749664