/*--------------------------------*- C++ -*----------------------------------*\
| =========                 |                                                 |
| \\      /  F ield         | OpenFOAM: The Open Source CFD Toolbox           |
|  \\    /   O peration     | Version:  v2012                                 |
|   \\  /    A nd           | Website:  www.openfoam.com                      |
|    \\/     M anipulation  |                                                 |
\*---------------------------------------------------------------------------*/
FoamFile
{
    version     2.0;
    format      ascii;
    class       volVectorField;
    location    "400";
    object      ddtCorrDdt0(U);
}
// * * * * * * * * * * * * * * * * * * * * * * * * * * * * * * * * * * * * * //

dimensions      [0 1 -2 0 0 0 0];


internalField   nonuniform List<vector> 
14804
(
(0.000292652 9.08294e-06 -7.03242e-26)
(7.29881e-08 1.42379e-08 0)
(2.80985e-05 1.87691e-05 -1.61098e-24)
(-2.3621e-06 -4.01562e-07 -2.91426e-23)
(-3.04285e-06 -2.76562e-06 -3.54511e-25)
(-1.41212e-05 -8.76895e-06 4.18332e-25)
(2.28297e-07 -5.66296e-07 -2.80851e-24)
(2.62364e-07 2.85733e-07 -3.47483e-23)
(-2.85695e-05 -5.53992e-05 0)
(2.42671e-08 5.87773e-09 7.40925e-26)
(-0.00017116 0.000815341 0)
(2.24292e-05 3.20697e-05 0)
(2.95983e-07 3.30165e-07 -1.60469e-24)
(-2.17993e-06 -2.64787e-07 2.0439e-23)
(-3.71464e-05 -6.29292e-05 -1.53613e-22)
(0.000360096 -1.42836e-05 -4.13054e-23)
(-3.12474e-06 -3.03661e-06 -4.84542e-25)
(-2.16424e-06 -4.25565e-07 -6.7703e-23)
(0.00015964 9.25141e-06 3.58909e-24)
(-1.34071e-05 -1.14554e-07 0)
(-1.73113e-08 1.6332e-07 -7.86805e-24)
(1.03932e-06 -5.69204e-07 3.77398e-24)
(1.91527e-06 -1.29194e-07 -4.98831e-24)
(1.35827e-07 -5.46066e-07 -4.87839e-23)
(-0.000369536 -4.93116e-05 0)
(9.22149e-08 -4.89263e-07 1.4404e-23)
(-5.50721e-06 8.36372e-09 0)
(-3.31183e-06 -1.51251e-06 -5.67136e-23)
(0.000254806 2.36597e-05 1.40524e-24)
(-2.69278e-07 -6.40606e-07 -6.79326e-23)
(-1.77962e-07 9.30045e-08 1.30803e-23)
(1.49012e-06 1.70327e-07 0)
(-1.28193e-05 -1.42094e-06 -1.67343e-23)
(3.00078e-06 -1.49308e-06 0)
(-4.61239e-05 -3.27487e-05 -9.96483e-24)
(2.01792e-07 -4.71768e-07 2.7824e-24)
(7.41967e-05 0.000255924 0)
(1.91381e-08 1.37921e-07 0)
(0.000439535 -0.00228524 1.9273e-23)
(-1.05843e-05 1.30489e-05 -2.40579e-24)
(3.09182e-05 1.3136e-05 3.65746e-23)
(-4.49653e-05 -2.78562e-05 0)
(6.88912e-06 1.78546e-06 0)
(2.37428e-07 6.57475e-08 -5.6995e-24)
(-3.18155e-06 -2.46067e-06 0)
(6.81236e-07 4.01032e-07 0)
(8.61327e-05 0.000769209 1.22784e-22)
(4.41961e-07 2.26364e-07 2.88827e-23)
(8.58415e-07 -6.6329e-07 8.10222e-24)
(1.87983e-05 -8.91751e-05 2.0425e-22)
(1.78184e-07 3.62727e-07 3.74762e-23)
(-2.91277e-08 -3.11339e-09 -4.73418e-23)
(6.92561e-08 1.80054e-07 -7.61885e-24)
(-1.42229e-06 3.41351e-07 0)
(-2.69957e-05 -8.82902e-05 0)
(0.000195514 -0.00010012 -5.94121e-24)
(-5.94406e-05 0.000249587 4.16769e-23)
(0.000253834 9.13558e-05 3.54726e-24)
(8.44243e-08 1.05126e-07 3.02862e-23)
(4.49932e-07 2.1433e-07 0)
(0.000185635 3.84338e-05 -2.6416e-23)
(1.71122e-07 3.82892e-07 6.82734e-25)
(2.86871e-07 7.58145e-08 2.63311e-24)
(0.000264933 -7.18099e-05 4.01056e-24)
(2.62638e-07 1.0043e-07 2.40195e-24)
(7.14621e-08 1.80485e-07 7.12546e-24)
(-1.31085e-08 2.31636e-07 1.87626e-23)
(3.93087e-07 -5.33263e-07 0)
(3.0025e-08 6.72088e-09 0)
(2.49673e-05 0.000183204 -1.56064e-23)
(-1.11919e-07 1.23993e-07 -3.31609e-23)
(-5.16633e-06 2.53842e-07 0)
(-0.000123672 0.000457962 -6.65508e-23)
(0.000137392 0.000160103 -2.05379e-22)
(-3.74066e-07 4.86044e-07 -5.58659e-23)
(2.59852e-05 0.000186535 1.81404e-23)
(0.000225678 0.000243558 -9.63259e-24)
(6.7042e-08 6.24151e-09 7.22414e-24)
(1.31988e-06 7.93074e-07 0)
(-7.87739e-08 4.36816e-08 -2.38978e-23)
(-0.000135838 -0.00022442 -8.30356e-23)
(6.60191e-08 1.93497e-07 -6.45988e-24)
(-5.52082e-08 5.23057e-09 2.56065e-23)
(-4.04556e-07 4.56507e-07 2.53867e-23)
(2.03743e-08 1.0093e-07 -3.21448e-25)
(7.88947e-05 -0.000123232 -1.16493e-22)
(7.09574e-09 -1.32322e-08 -2.06219e-23)
(-8.21215e-07 5.48037e-07 2.09502e-23)
(3.94938e-08 -2.67861e-08 1.07144e-23)
(-3.23781e-06 -1.84721e-06 -6.14485e-23)
(1.25901e-06 -1.17903e-06 -1.53129e-25)
(8.73538e-07 -2.65402e-07 2.7145e-24)
(-9.85245e-06 -3.51384e-05 1.62172e-23)
(-1.39037e-07 1.13362e-07 -3.01826e-23)
(-4.75077e-05 3.15103e-05 -9.15739e-23)
(0.000143366 0.00026951 -5.20096e-23)
(0.000265218 6.22021e-05 -1.42589e-24)
(1.4767e-06 1.88766e-07 0)
(4.21861e-07 -4.23714e-07 -9.68127e-24)
(-0.000158721 0.000410037 0)
(0.000256987 0.000121845 -3.47449e-24)
(-4.82723e-05 0.00013785 3.3404e-23)
(1.88594e-08 9.08707e-08 -1.14275e-24)
(-2.12479e-06 1.89505e-07 -6.51049e-24)
(-0.000166696 -7.69041e-05 -8.7506e-24)
(1.6644e-05 0.000149898 -7.52089e-23)
(2.46103e-05 2.75176e-05 0)
(-1.7218e-05 -0.000203787 1.18226e-22)
(3.68024e-08 2.55059e-07 -2.39436e-23)
(-1.7756e-07 7.93722e-08 -2.35814e-23)
(1.72121e-07 7.54837e-08 0)
(0.00019255 0.000169825 1.60986e-23)
(-5.6639e-06 -3.57023e-05 1.72137e-23)
(0.000164967 -9.01753e-05 -1.20848e-22)
(0.000204787 0.000155684 -2.5514e-23)
(-7.32256e-05 -0.000184704 -6.36952e-23)
(0.000178438 9.068e-05 1.69604e-23)
(1.57817e-06 -1.2754e-06 -3.87998e-23)
(1.87773e-08 9.23457e-08 1.51339e-24)
(-2.13998e-06 -5.04883e-07 6.77711e-23)
(1.19947e-05 0.000275135 6.95084e-23)
(3.50006e-08 -3.12277e-08 -3.04514e-23)
(1.67189e-07 -8.01009e-07 -5.3748e-23)
(-2.58314e-06 -6.03159e-06 8.34366e-24)
(6.37762e-08 1.01448e-07 -2.75884e-23)
(1.93913e-08 1.33394e-07 0)
(9.43143e-05 0.000172254 -3.62915e-23)
(-2.03109e-06 -1.28742e-07 2.54665e-23)
(1.87088e-06 4.06347e-07 1.13632e-23)
(-5.45648e-07 -3.5546e-06 0)
(-3.04557e-07 -3.3365e-06 0)
(6.68764e-06 0.000121743 0)
(-0.000202856 1.23465e-05 0)
(0.000257252 0.000137679 0)
(0.000122419 0.000162987 9.08148e-25)
(-2.80095e-06 -5.47551e-06 0)
(2.83875e-07 9.72596e-08 -8.3176e-24)
(-5.10858e-08 0.00021815 0)
(-4.25706e-07 -4.52095e-07 0)
(3.29636e-06 -9.19909e-07 0)
(9.80164e-08 -2.80647e-08 3.0508e-24)
(-0.000177754 0.000340409 0)
(-3.20107e-08 -4.13489e-10 4.75155e-23)
(-1.53341e-05 5.83326e-05 0)
(0.000372632 -3.36985e-05 0)
(2.68023e-08 2.50399e-09 0)
(-0.000166048 -5.68773e-05 0)
(2.01908e-08 3.11594e-07 2.33022e-23)
(-0.000290062 -3.68191e-05 0)
(0.000147351 -2.23688e-06 -1.15351e-23)
(-2.0484e-05 -5.6398e-05 0)
(0.000290935 5.96404e-06 0)
(-1.21605e-05 1.30628e-05 2.69006e-24)
(-1.58956e-06 -2.05698e-07 5.93039e-23)
(-4.94753e-08 3.28207e-09 -5.6722e-24)
(0.000275459 0.000123019 0)
(-4.92268e-06 4.44682e-06 1.91559e-23)
(-0.000218759 -0.000160295 5.61849e-23)
(0.000307186 4.91309e-05 1.14626e-22)
(-0.000303321 9.53671e-05 1.41078e-22)
(3.33575e-08 -2.52586e-08 0)
(3.55786e-08 2.6472e-09 -1.69653e-23)
(-0.000185007 3.28639e-05 0)
(-0.00034378 -2.62835e-05 -5.57212e-24)
(-1.2053e-06 -8.59446e-07 -9.35847e-23)
(0.000274361 0.000143113 0)
(4.8265e-07 2.05162e-07 -2.05543e-23)
(0.000277803 3.40393e-05 0)
(-3.41827e-07 -5.44141e-07 2.49873e-23)
(2.34602e-07 2.35107e-07 4.47481e-23)
(0.000399534 -0.000225287 0)
(1.06447e-06 -3.53842e-07 2.64763e-24)
(-5.88258e-05 3.80022e-05 -4.18427e-23)
(-4.05192e-05 -4.46813e-05 7.17016e-23)
(0.000288565 0.000209526 -2.9884e-24)
(0.000486001 0.000394691 2.98824e-22)
(1.38014e-06 6.09376e-07 0)
(4.77527e-06 -2.68028e-06 0)
(-1.23479e-08 -1.00756e-08 -1.18467e-23)
(-5.46989e-05 -7.13115e-06 1.71167e-23)
(-1.51884e-05 -7.19472e-06 5.91e-23)
(-0.00033659 -0.000477878 6.73557e-25)
(9.33758e-08 -4.58581e-07 -1.99403e-23)
(5.09151e-07 9.13408e-07 -8.12417e-23)
(9.89196e-07 -2.10083e-07 0)
(-0.000186357 0.000107213 2.02358e-24)
(1.08703e-05 4.50006e-06 -6.27068e-23)
(8.8852e-06 3.64365e-06 5.58932e-23)
(-6.13393e-07 -1.5869e-06 0)
(-5.18651e-08 -6.67706e-08 2.05073e-23)
(5.21101e-06 5.0326e-06 -2.77656e-23)
(2.95556e-05 0.00133419 -8.22684e-23)
(2.82548e-07 -3.79777e-07 4.99521e-24)
(-0.00026673 -0.000539711 0)
(4.3195e-05 0.000230104 -2.17901e-23)
(2.44271e-07 1.27631e-08 0)
(-7.37129e-05 0.000144287 -3.83222e-23)
(3.14537e-07 2.92588e-07 6.22947e-24)
(-1.76596e-06 -4.88515e-06 0)
(-0.000278234 6.98378e-06 2.47157e-23)
(-0.000152785 -0.000104688 2.11335e-23)
(-5.54141e-08 -4.76145e-08 0)
(-3.82964e-07 -9.56436e-07 7.15344e-23)
(-1.45935e-05 -1.50274e-05 0)
(2.93121e-07 7.16155e-07 0)
(0.00020054 4.44515e-05 -1.19788e-23)
(-4.29128e-06 4.55054e-06 3.35595e-23)
(0.000467675 -0.00104646 2.95117e-22)
(1.49195e-06 -8.71978e-07 0)
(4.03468e-07 -4.21654e-07 0)
(-3.44288e-07 -5.7355e-07 2.23326e-23)
(9.68888e-05 2.44993e-05 -3.69985e-23)
(4.20725e-07 -5.25188e-07 0)
(3.92424e-08 -2.09804e-08 0)
(5.60808e-07 -3.24524e-07 0)
(-4.57091e-07 -4.84121e-07 0)
(-1.8608e-06 -2.5638e-07 0)
(2.21576e-07 2.4242e-09 4.89338e-25)
(1.76653e-07 1.30442e-07 1.35501e-23)
(2.41147e-07 6.83297e-08 3.5364e-24)
(5.42829e-07 8.52457e-07 -3.60238e-25)
(-1.62579e-05 -3.94192e-05 1.24747e-25)
(-1.56039e-06 -4.7481e-06 -2.09966e-25)
(9.93456e-07 -2.88394e-07 -3.51332e-24)
(-1.235e-07 -2.81035e-07 -2.53132e-23)
(0.000109281 0.000470218 -4.31682e-22)
(-1.03763e-05 -3.5361e-06 1.05209e-23)
(-0.000127957 -0.00030526 1.19511e-23)
(-0.000175173 -2.13712e-05 1.59235e-23)
(7.84583e-07 -5.27706e-07 -3.89155e-24)
(-1.61701e-07 1.04816e-07 -2.99915e-23)
(-3.95527e-07 -9.21561e-07 -3.16221e-23)
(1.6584e-07 9.44222e-08 0)
(0.000137369 0.000124262 0)
(0.000222845 0.000142364 -3.71416e-23)
(2.78053e-08 1.00097e-07 0)
(5.95037e-07 3.98225e-07 0)
(-0.00011669 0.000125766 2.75798e-23)
(9.61624e-05 4.12874e-05 4.22867e-23)
(4.22401e-07 -1.00557e-06 5.89708e-23)
(-0.000177368 0.000252709 1.00425e-22)
(6.20969e-06 0.000135995 -2.1347e-23)
(3.82441e-07 -3.78102e-07 1.72947e-24)
(2.40036e-07 4.9554e-08 5.30604e-24)
(-8.78856e-08 -1.07298e-07 -1.67303e-23)
(8.74632e-05 -0.000144485 -7.04719e-23)
(1.90742e-07 -1.67363e-06 4.89107e-23)
(-1.10908e-06 -9.12033e-07 5.56976e-23)
(1.80081e-06 6.32793e-08 -6.2492e-24)
(-2.16194e-07 8.36331e-08 0)
(-0.00194414 -0.00180477 -2.49613e-22)
(2.05913e-07 2.1785e-08 1.69321e-24)
(4.29112e-08 -2.627e-08 -9.74261e-24)
(6.24779e-08 8.87016e-10 -7.55118e-24)
(-0.000105332 -0.000180028 1.02324e-23)
(2.98856e-07 7.13166e-07 -3.1881e-23)
(-3.41297e-08 -7.24358e-08 0)
(-6.57329e-07 -9.1296e-07 6.42973e-24)
(-1.64338e-07 1.47028e-07 3.21679e-25)
(8.36048e-08 1.14508e-07 0)
(-0.000169382 0.000119705 0)
(-6.69542e-07 -1.62178e-06 -8.6874e-24)
(1.76028e-06 4.31166e-07 -8.83578e-24)
(1.95393e-07 3.09104e-07 2.65283e-23)
(-0.000967495 -0.000384329 1.26957e-22)
(-2.57792e-07 -5.5255e-07 -5.24192e-24)
(-4.0207e-06 4.24236e-06 -4.97415e-23)
(-9.35872e-08 -1.97908e-07 -1.61936e-23)
(-4.10468e-05 4.9521e-05 4.35285e-23)
(9.93359e-05 -3.28625e-05 3.25161e-25)
(-0.000345635 -0.00043206 1.26527e-23)
(0.000387303 -0.000324666 0)
(1.62528e-08 8.26733e-08 -1.25765e-24)
(-2.56727e-08 1.14982e-07 -2.43395e-23)
(-0.000260578 0.000382241 4.77274e-23)
(-5.30383e-05 -7.3112e-05 1.38867e-22)
(-9.32431e-07 2.53526e-07 0)
(0.000390933 -1.502e-05 0)
(1.86068e-06 -1.35461e-06 4.64461e-23)
(3.20271e-05 0.00016097 4.26148e-23)
(-0.000100315 0.000141884 -3.7052e-23)
(2.95905e-08 -3.70583e-09 -6.8488e-24)
(0.000285514 4.43497e-05 -5.10491e-25)
(0.00017352 2.96392e-05 2.58643e-23)
(-0.000609883 0.000121638 -2.93032e-24)
(0.000548974 0.000670499 1.05577e-22)
(2.08501e-06 -9.48029e-07 -5.14536e-23)
(-9.85191e-07 4.7238e-07 -5.79536e-23)
(7.92992e-07 6.66659e-07 0)
(0.000380608 -0.000175517 0)
(2.11943e-07 1.34093e-08 -8.90838e-25)
(-2.08803e-07 -5.36518e-07 -2.28194e-23)
(8.92138e-07 -5.29769e-07 -5.02e-24)
(-4.75831e-07 4.29086e-07 -2.68756e-23)
(-1.21542e-05 -8.49905e-06 5.51457e-23)
(0.00222211 -0.000157448 3.78248e-22)
(2.79981e-05 0.000151219 0)
(1.80851e-06 6.85418e-07 2.35841e-23)
(2.95598e-07 -2.97157e-08 6.97397e-25)
(4.29896e-07 8.39748e-07 8.17507e-23)
(-5.11643e-09 -7.21594e-08 0)
(6.71782e-08 1.40073e-08 -6.84395e-24)
(1.24311e-06 9.07414e-07 -6.34955e-23)
(-1.15367e-05 -3.23636e-06 -5.29858e-24)
(1.71862e-06 3.55029e-07 0)
(8.44535e-08 -8.49027e-07 0)
(0.00102676 -0.000946847 -5.20124e-23)
(-1.37901e-05 0.0001513 5.84529e-23)
(-5.31432e-05 -3.2121e-05 -7.47921e-23)
(-0.000190977 -5.79346e-05 0)
(-0.000263559 1.88037e-05 -2.40774e-23)
(-4.73393e-07 4.93411e-07 2.8432e-23)
(1.08561e-06 4.31202e-08 -1.7653e-23)
(3.40726e-07 -9.80842e-07 -3.06364e-23)
(-5.71217e-05 -0.000177437 2.31758e-25)
(5.48952e-07 -2.94453e-07 0)
(-0.000168039 0.000125818 3.26708e-24)
(-7.06687e-05 0.000263315 6.78111e-23)
(-3.45946e-08 3.29486e-09 0)
(-0.0003283 -0.00190959 -3.60589e-23)
(-3.58836e-05 0.000122331 -3.8896e-24)
(0.000180389 0.000194919 1.39331e-23)
(-0.00022484 -0.000305324 -1.59073e-23)
(-4.89679e-05 3.16714e-05 0)
(-2.22878e-07 3.58353e-07 0)
(-1.26714e-05 1.14047e-06 -2.64379e-24)
(-0.000230877 -8.52084e-05 -6.97641e-23)
(-9.62881e-09 8.79674e-08 2.92876e-23)
(-0.000240869 0.000611102 -2.6528e-22)
(0.000324653 6.28206e-05 -1.68342e-22)
(-2.34798e-06 2.84636e-07 -2.30253e-23)
(-2.54655e-06 -1.15936e-06 -4.13955e-23)
(1.29703e-06 1.05583e-06 -4.89144e-23)
(1.08558e-06 9.28989e-08 5.65574e-24)
(4.11066e-08 8.45566e-08 0)
(-1.6956e-07 7.96725e-08 2.1892e-23)
(7.825e-08 6.78017e-10 -6.12434e-24)
(-6.2441e-05 7.62094e-05 3.1483e-23)
(6.20152e-07 3.00495e-07 1.4654e-23)
(-5.09646e-05 3.94851e-05 2.21752e-23)
(9.19341e-07 -3.573e-07 3.74183e-25)
(-5.72038e-07 -3.6571e-08 2.90478e-23)
(2.26579e-07 -1.62591e-06 -8.47592e-23)
(2.38469e-07 3.06121e-07 -2.48072e-23)
(-1.48386e-07 1.06707e-07 3.9611e-25)
(0.000223174 -9.9531e-05 -1.60409e-24)
(-0.000297894 -0.000375239 0)
(-5.58525e-05 0.000183119 -1.61842e-23)
(-3.12502e-05 -6.37321e-05 0)
(-0.000195933 -0.000143966 2.19704e-24)
(0.000265646 -4.65908e-05 1.22693e-22)
(-6.29806e-07 -1.0007e-06 7.22645e-23)
(8.29677e-08 1.50675e-07 5.32891e-24)
(-9.36734e-08 -1.50172e-07 1.55692e-23)
(5.96059e-07 3.21837e-07 1.48904e-23)
(-3.83364e-05 0.000130413 1.73836e-23)
(3.61378e-07 -3.83591e-07 0)
(0.000181832 5.73337e-06 1.08429e-23)
(-6.59048e-08 4.63236e-08 0)
(3.17204e-08 -2.6212e-08 1.93482e-23)
(6.57881e-07 2.31198e-07 -1.71649e-23)
(8.91854e-05 -8.0812e-05 0)
(-4.53539e-05 1.51568e-05 -1.17479e-23)
(8.60439e-05 2.61432e-05 0)
(-0.000575585 0.000470914 0)
(0.000198486 0.000146146 1.65565e-22)
(-9.10926e-07 2.53336e-07 -4.06501e-23)
(9.53896e-07 -1.06635e-06 -5.73149e-23)
(3.82907e-06 -1.44321e-05 0)
(2.05339e-07 3.1542e-08 -3.12322e-24)
(3.89501e-07 -7.47391e-07 -3.51922e-23)
(9.71026e-08 7.00079e-08 -4.78617e-24)
(2.13234e-06 8.53516e-07 -7.10132e-24)
(-3.46226e-07 -6.17853e-07 -4.86702e-25)
(2.83764e-08 7.95168e-10 0)
(-0.00091785 -0.00225992 -1.95382e-22)
(-5.22145e-08 -2.14078e-07 1.6096e-23)
(4.92538e-07 -7.54651e-08 -1.00989e-23)
(-0.000194922 -9.93451e-06 -1.79454e-23)
(-0.000197421 4.87847e-05 3.63187e-22)
(0.000297175 0.00159226 0)
(-1.95025e-06 -1.20635e-06 0)
(-9.0991e-07 -4.51964e-06 3.72914e-23)
(-0.000626695 0.000117587 1.47195e-23)
(4.42074e-08 -1.77682e-06 -6.76944e-23)
(2.13156e-07 2.2806e-08 5.60008e-24)
(-9.41346e-05 -0.000370943 4.51316e-23)
(5.5391e-07 4.33342e-07 0)
(4.88831e-08 3.88032e-08 -2.56426e-24)
(0.000333115 -0.000181534 0)
(9.68412e-07 7.99825e-07 0)
(-7.50266e-08 3.17696e-08 2.0746e-23)
(6.08737e-07 2.52924e-07 1.14214e-23)
(-1.37389e-06 2.62235e-07 0)
(-0.000588787 -3.94769e-05 -2.82936e-25)
(1.20671e-07 -8.50822e-07 3.58873e-23)
(-3.01368e-05 4.98359e-05 0)
(-2.68489e-06 -1.0447e-06 0)
(-0.000272651 0.000578044 6.24041e-23)
(5.00645e-08 9.35113e-08 0)
(-4.99737e-05 -2.2758e-05 -6.41657e-23)
(1.32343e-07 -2.51062e-08 0)
(3.39636e-05 -0.000208133 -8.53043e-23)
(-0.000574906 0.00185805 0)
(6.18193e-08 -1.84571e-06 2.95512e-23)
(6.714e-07 6.51521e-07 -2.08909e-25)
(-0.000108254 3.89025e-05 0)
(1.33101e-07 3.43747e-07 0)
(-1.15751e-05 -1.61421e-06 2.25058e-23)
(-1.17831e-08 1.7305e-07 0)
(-1.53299e-07 -3.07553e-07 3.2451e-23)
(8.89327e-07 6.37462e-07 2.0103e-23)
(-0.00156927 -0.00031611 1.46337e-22)
(2.62254e-08 5.42127e-09 -5.99658e-24)
(-4.65841e-07 3.6187e-07 2.44293e-23)
(-0.000558578 0.00105078 3.41054e-22)
(3.11381e-08 8.47539e-08 0)
(-1.85426e-06 -1.45439e-06 0)
(8.01489e-08 -5.14724e-07 0)
(0.000284186 2.17248e-05 4.7875e-25)
(-0.000121957 0.0001908 1.80558e-22)
(-1.16053e-05 2.49871e-06 9.78545e-23)
(-8.29213e-08 4.5297e-08 -2.75105e-24)
(6.76985e-06 9.21078e-05 0)
(7.45982e-07 5.33428e-07 -4.23756e-25)
(-6.1036e-06 5.35419e-06 1.07235e-23)
(-0.000556183 0.000369161 3.49133e-23)
(1.81679e-06 4.84151e-07 6.45471e-23)
(-2.31646e-06 9.92293e-07 0)
(-1.26532e-07 8.69599e-08 6.75616e-24)
(1.02944e-07 -7.53037e-07 -3.45147e-23)
(3.16469e-08 2.76967e-10 1.56e-23)
(0.00143615 -0.000380179 0)
(5.67693e-08 6.862e-08 5.56339e-24)
(3.30917e-07 -4.91791e-07 0)
(1.20591e-07 7.64241e-08 0)
(1.1037e-09 -6.94422e-08 -1.23564e-23)
(0.000199484 -0.00012292 3.04772e-24)
(2.12318e-07 3.3794e-08 -2.73321e-25)
(7.00755e-07 1.73244e-07 -1.60166e-23)
(-9.6818e-06 1.17864e-05 -1.89909e-24)
(-0.000269885 -0.000355922 1.71503e-24)
(1.15974e-08 -1.64537e-07 0)
(-2.30878e-07 -5.58504e-07 -1.5752e-23)
(3.16774e-08 -6.09978e-08 -6.86023e-26)
(-1.9878e-06 7.98883e-09 -8.16055e-23)
(-4.09959e-05 -9.69862e-05 -2.86155e-26)
(-0.00147311 -0.000551897 -1.3921e-22)
(8.45764e-05 0.000110529 0)
(2.30761e-07 -7.34588e-07 1.70518e-23)
(-1.85583e-05 0.000173346 -1.25098e-23)
(2.88694e-07 -7.85429e-07 3.01774e-23)
(-4.63827e-07 3.31745e-07 0)
(5.31159e-12 1.78739e-07 -5.27408e-24)
(-2.8263e-08 -1.87117e-09 3.48292e-23)
(2.75517e-07 -1.24321e-08 -7.42146e-26)
(-4.08511e-08 -5.33309e-09 7.68917e-26)
(0.000546189 -5.04532e-05 0)
(-7.98119e-07 -8.78314e-07 -5.84716e-23)
(2.64863e-09 1.98444e-07 5.55374e-24)
(-0.000889303 0.00575141 8.8587e-22)
(-9.2572e-09 -9.39201e-08 -1.88195e-23)
(-0.000314179 -0.000375825 -5.40451e-23)
(-0.000271172 -0.000260713 0)
(-2.39713e-06 -2.42252e-07 1.06121e-23)
(-0.000380065 0.0023641 0)
(-2.07902e-06 -1.08027e-06 0)
(-3.5019e-05 0.000147469 -1.08193e-22)
(-1.1574e-05 3.84036e-06 -7.25959e-23)
(3.55409e-07 4.10428e-07 0)
(1.71395e-08 1.07416e-07 1.1196e-24)
(1.12442e-06 7.46607e-07 4.70735e-23)
(1.51153e-07 -3.63233e-07 0)
(3.37496e-08 -1.87741e-07 -1.40347e-23)
(0.000126043 -0.00010908 1.38067e-22)
(-2.39578e-06 -3.37992e-07 4.17016e-23)
(2.25344e-07 3.35e-07 0)
(8.49637e-07 -1.19782e-06 0)
(0.000223291 5.71561e-05 0)
(0.000273156 -0.000342727 -5.92483e-24)
(-3.73585e-06 -4.72514e-06 -6.14282e-23)
(-1.96618e-06 -8.8362e-07 0)
(4.4626e-07 -9.43735e-07 3.84487e-23)
(-1.18028e-05 -4.02678e-05 0)
(-2.27143e-07 4.06943e-07 0)
(8.70753e-07 4.80043e-07 2.36594e-23)
(-6.9683e-05 -0.000143531 1.33153e-22)
(2.78644e-07 1.95978e-07 -1.82673e-25)
(2.69603e-08 -1.70015e-07 0)
(-3.75761e-07 -6.53981e-07 -6.2276e-23)
(7.49298e-07 5.40936e-07 0)
(0.000105701 0.000229736 3.43505e-23)
(7.43875e-07 4.60639e-07 7.60928e-23)
(-1.61782e-08 -9.50813e-09 -2.50059e-23)
(1.11048e-06 -1.49097e-06 4.59782e-23)
(-1.16939e-08 2.12093e-07 -3.54373e-24)
(9.49784e-08 8.58883e-08 0)
(0.000273552 -1.12706e-05 5.05718e-24)
(-3.58038e-06 -5.3298e-06 7.48035e-23)
(2.4631e-07 -1.34545e-08 0)
(-5.23864e-05 -1.4045e-06 -6.75409e-23)
(6.14805e-07 1.46836e-07 7.74786e-24)
(9.35554e-08 -2.66477e-08 -3.07949e-24)
(1.77114e-06 4.19683e-07 -5.58439e-23)
(0.000353228 2.7845e-05 4.96682e-23)
(1.40433e-08 2.41968e-07 -3.0958e-24)
(1.16606e-07 2.49459e-08 7.23357e-24)
(4.28191e-09 -5.42193e-09 2.44544e-23)
(-1.64679e-07 -2.46801e-07 -2.09137e-23)
(6.95274e-05 -5.02375e-05 0)
(4.41083e-08 2.15983e-07 2.21833e-24)
(4.17158e-07 3.68478e-07 0)
(0.000162766 0.00139031 0)
(3.1229e-07 -3.63484e-07 0)
(4.47451e-07 -5.72449e-07 -2.38156e-24)
(-0.000332353 -0.000337177 -1.0402e-23)
(9.06476e-08 2.28076e-07 -1.31388e-23)
(-0.000199042 0.000992045 -6.38876e-23)
(-5.42963e-08 5.20643e-08 -3.73972e-23)
(0.0001735 7.41912e-06 -1.44927e-23)
(0.000259043 -6.64376e-06 0)
(9.00526e-05 0.000220154 0)
(1.9291e-07 3.60986e-07 -1.51323e-23)
(5.58845e-08 1.20054e-07 -1.48502e-23)
(-2.69836e-06 -8.03788e-07 0)
(-9.09511e-07 4.46649e-07 0)
(-2.62638e-08 7.24584e-09 3.91965e-23)
(7.11733e-07 -1.04926e-07 1.59935e-25)
(1.58356e-09 -9.96382e-09 1.25163e-23)
(1.07558e-06 -1.66443e-06 -1.26929e-23)
(-1.31676e-07 8.35834e-08 1.99588e-23)
(-1.31264e-07 -9.25246e-07 6.35025e-23)
(-3.40586e-06 -1.39495e-06 6.27146e-23)
(-5.3121e-07 3.55038e-07 0)
(-0.00015296 -0.0002854 5.34068e-23)
(-5.00979e-05 1.69116e-05 0)
(0.000303061 0.000388433 1.70858e-22)
(8.95976e-07 -4.33499e-07 -3.06343e-25)
(-7.72178e-08 -3.46634e-08 2.06852e-23)
(4.27778e-05 -8.77119e-05 4.69149e-23)
(7.40783e-08 1.87124e-07 0)
(-2.49163e-06 9.80619e-07 -3.0881e-23)
(-0.000172062 -1.84281e-05 0)
(9.1708e-07 7.81294e-07 6.80991e-23)
(0.000165426 6.21034e-06 0)
(-2.57753e-05 0.000185646 0)
(3.77304e-08 -7.24048e-10 7.33091e-24)
(-0.000263826 0.000616987 -2.39323e-23)
(2.99022e-05 -6.5853e-05 4.83826e-23)
(-7.69714e-07 -9.00633e-07 5.0548e-23)
(7.02504e-07 6.1156e-07 1.8509e-23)
(0.000481286 -3.70983e-05 -3.18027e-22)
(-0.000603665 9.03422e-05 -5.05623e-23)
(-7.57902e-08 -3.66973e-08 0)
(2.94272e-08 -8.85875e-09 4.44625e-24)
(4.74546e-08 -2.48496e-08 6.26905e-24)
(-8.52498e-05 -0.000105523 5.90506e-23)
(-1.95561e-05 -1.20159e-05 0)
(-0.00019453 -0.000372691 6.0073e-24)
(6.87209e-05 0.000249045 0)
(1.29905e-07 -4.14629e-09 5.23667e-24)
(4.55709e-06 3.29222e-06 0)
(7.78922e-06 1.34412e-06 -4.50602e-23)
(0.000205034 0.000191396 0)
(-5.69744e-06 5.08509e-06 -1.23039e-23)
(-1.92143e-06 1.08051e-07 0)
(2.35637e-07 -1.117e-06 1.49776e-23)
(-1.37837e-07 -1.22077e-07 5.52361e-23)
(-0.000172356 -1.23372e-05 -1.8475e-23)
(-0.000620285 0.00017291 -6.40444e-23)
(-1.24889e-08 -8.18876e-07 -2.31679e-25)
(-0.000184398 -0.000207349 -8.42592e-24)
(-3.25105e-08 1.11133e-08 -4.34069e-23)
(7.71193e-08 -2.19907e-08 7.08534e-24)
(-2.47657e-07 9.41303e-08 0)
(6.60601e-08 -1.65048e-06 0)
(3.53937e-08 -4.49315e-08 2.356e-23)
(8.66076e-05 0.000140393 3.7606e-23)
(5.76237e-08 4.53515e-08 3.2834e-24)
(0.000226414 1.57975e-05 -3.91169e-24)
(-0.000347429 -0.000158274 5.9079e-23)
(1.13576e-06 -1.58485e-06 -9.28444e-24)
(2.17867e-06 -3.54508e-07 0)
(-2.97069e-07 -2.09074e-07 -2.61069e-23)
(2.23044e-07 2.27853e-08 0)
(-4.91732e-05 0.000174509 3.49719e-23)
(-9.31815e-07 3.07169e-07 -7.62253e-23)
(0.000246161 1.5838e-05 6.16221e-26)
(7.50803e-08 -3.96464e-08 -1.76338e-23)
(-2.1289e-07 1.18809e-07 1.50859e-24)
(1.95329e-07 -1.76464e-07 1.14726e-23)
(7.16019e-09 2.55859e-08 5.04513e-24)
(1.17511e-06 2.91296e-06 9.35086e-24)
(-1.98377e-06 -1.34548e-06 0)
(6.60565e-05 0.00023966 -8.91429e-25)
(-6.43057e-05 0.000216958 -7.70425e-23)
(4.71861e-08 1.44796e-07 0)
(-5.84278e-07 -2.70965e-08 -8.46732e-23)
(-1.80269e-06 -1.04888e-06 -4.87229e-24)
(-4.58386e-05 -6.37843e-05 1.06903e-22)
(3.49205e-06 1.33292e-06 8.62963e-26)
(1.56689e-06 -8.25922e-07 0)
(-2.208e-07 6.91929e-08 6.53606e-23)
(0.000834865 0.000231774 0)
(8.46412e-07 -1.92719e-07 -2.10031e-24)
(-0.000426848 0.00117442 3.37021e-22)
(-7.95914e-08 -3.14429e-08 3.2921e-23)
(-4.87094e-05 0.000223411 -1.66651e-23)
(-0.000283974 -3.57372e-05 -7.08353e-24)
(2.02228e-08 -5.20074e-08 -1.31789e-23)
(2.48915e-07 5.79623e-08 -3.75605e-24)
(3.66286e-06 -2.40653e-06 1.86787e-23)
(-1.38685e-08 1.96506e-07 -2.17608e-23)
(-4.30658e-08 2.30996e-08 -3.54846e-26)
(3.17548e-08 4.04799e-07 0)
(-5.19667e-07 -3.19527e-07 -3.10829e-25)
(9.31621e-05 3.70494e-05 3.45753e-23)
(8.87225e-06 -9.90116e-06 0)
(-0.000200652 -0.000458392 0)
(2.02378e-07 2.88091e-08 0)
(8.56428e-06 0.000698744 1.14006e-22)
(0.00321324 -0.00089399 0)
(3.62132e-06 -2.23287e-06 -5.65264e-25)
(-1.10814e-08 1.96623e-07 0)
(0.000317505 1.51413e-05 1.00211e-23)
(1.46867e-07 -2.67987e-07 4.93841e-24)
(0.00042668 0.000100998 0)
(1.09048e-07 2.43248e-07 1.55215e-23)
(4.47903e-08 1.1203e-07 0)
(9.00432e-05 1.75408e-05 4.56153e-23)
(4.80982e-05 -1.79224e-05 -2.42322e-23)
(0.000442425 5.65888e-05 1.22183e-23)
(3.28714e-06 3.68442e-06 0)
(1.55688e-06 -1.44279e-07 3.56443e-24)
(-7.04425e-08 5.66082e-08 0)
(0.000115176 0.000180556 9.54907e-23)
(9.80563e-08 -1.4961e-08 3.74282e-24)
(-1.88229e-06 0.00161203 -4.17658e-23)
(-0.00050393 -0.000499065 5.10011e-23)
(-2.0173e-06 -8.66894e-07 -9.04245e-23)
(2.27559e-08 -6.40339e-08 -1.22779e-23)
(2.21041e-07 7.58077e-08 9.51723e-24)
(-4.68923e-06 3.57029e-09 2.90054e-23)
(2.2208e-07 -1.09446e-06 1.43881e-23)
(2.47515e-08 1.3104e-07 0)
(-1.14858e-05 -1.00524e-05 0)
(2.40822e-06 -8.48945e-07 0)
(-2.4128e-06 -4.25327e-07 -1.18741e-23)
(-1.36415e-08 3.49478e-07 1.78758e-23)
(0.000311117 9.90241e-06 -3.50814e-23)
(0.000353578 3.03013e-05 -2.27343e-22)
(-6.11852e-06 -0.000106669 0)
(2.14385e-07 7.19899e-08 0)
(1.33377e-06 4.60565e-07 -1.63816e-23)
(-4.7458e-08 1.98354e-08 3.34983e-23)
(-4.16156e-07 -3.45085e-07 4.84043e-23)
(1.8597e-06 8.9639e-07 -1.6502e-23)
(9.93595e-05 4.31494e-05 -7.74275e-23)
(1.4423e-06 4.43012e-07 1.74351e-23)
(0.000115647 0.000130059 -4.81433e-23)
(1.92448e-06 5.54752e-07 4.48847e-23)
(0.000104281 -0.000103773 0)
(-0.00018577 -2.83508e-05 9.45967e-24)
(1.23856e-07 -3.85815e-07 0)
(-0.000617417 0.000226644 1.06237e-22)
(-0.00106988 0.00312255 1.12985e-22)
(4.16185e-08 -1.39906e-08 -3.72314e-24)
(-2.31197e-06 -4.18746e-07 2.90437e-23)
(5.44589e-05 -9.26061e-05 1.58208e-23)
(1.55975e-07 -1.74819e-06 7.45528e-23)
(1.44053e-06 3.0798e-07 -4.63828e-24)
(4.07656e-07 -9.05434e-07 -7.80184e-24)
(1.49858e-06 -1.01318e-06 3.6792e-24)
(0.0005562 -0.00304565 0)
(1.25836e-08 -6.0649e-08 -2.68306e-23)
(1.43711e-06 4.59982e-07 5.30362e-23)
(2.36771e-08 2.17812e-09 2.36831e-23)
(7.41246e-08 -5.72681e-07 4.1107e-24)
(0.000257773 -3.84379e-07 -5.57177e-25)
(0.000131435 -0.000378386 -7.2706e-23)
(2.07681e-06 -4.80224e-06 -3.68144e-23)
(1.83718e-07 1.23896e-07 0)
(-1.31104e-08 -1.28697e-08 -3.60655e-23)
(-4.49703e-08 -2.08461e-08 5.88255e-23)
(8.29696e-07 -4.2522e-07 -2.67671e-26)
(1.30184e-06 4.77701e-07 -2.82877e-23)
(0.000471211 -3.97354e-05 -1.71958e-22)
(5.74032e-06 -1.30465e-05 0)
(-7.49123e-05 -7.7952e-05 -8.14435e-23)
(0.000270646 6.1714e-06 0)
(-1.81574e-06 -4.51659e-06 0)
(1.61612e-06 -3.5994e-07 1.08439e-23)
(0.000296823 2.94461e-05 -2.53365e-24)
(2.89097e-07 -3.91371e-07 1.27592e-24)
(0.000229286 0.000141839 9.64514e-23)
(4.36335e-07 -6.0137e-07 1.33843e-23)
(2.25016e-08 -4.89434e-09 0)
(2.58846e-07 1.04432e-07 4.87406e-24)
(-2.37031e-06 -2.92688e-07 1.05094e-22)
(-9.32183e-06 5.56365e-06 -9.16284e-24)
(-8.939e-10 -2.03665e-08 1.403e-23)
(6.09576e-07 6.16465e-07 1.13449e-23)
(2.33219e-06 -9.07454e-07 3.0586e-23)
(-3.80042e-05 -1.25374e-05 -5.8832e-23)
(1.52214e-06 -1.36013e-07 -9.07655e-24)
(6.12141e-06 -0.000124459 1.87662e-24)
(2.67115e-07 -3.6752e-07 -1.8019e-23)
(2.75841e-06 -0.000122191 -1.23077e-25)
(-1.49019e-05 -2.83778e-06 0)
(-4.35057e-06 -3.65995e-06 0)
(-4.00295e-06 -1.88575e-06 -6.33266e-23)
(2.68463e-08 -1.16917e-09 0)
(4.3621e-07 2.78764e-07 2.48954e-23)
(-5.10105e-08 -9.38174e-05 -1.24489e-23)
(7.20041e-05 0.0001501 -1.29127e-22)
(4.72455e-07 -2.84515e-07 -6.59063e-25)
(4.60411e-05 -1.47876e-05 0)
(2.24693e-07 1.55172e-07 -6.93699e-24)
(-2.5787e-08 -7.93294e-08 -2.29686e-23)
(9.83689e-09 3.30147e-07 -3.23222e-23)
(8.99301e-07 -3.94794e-07 1.2199e-24)
(-0.000184894 -0.000185886 0)
(2.51075e-08 -1.79845e-07 1.2679e-23)
(2.04555e-06 2.48886e-07 -3.13149e-24)
(-2.26054e-07 -5.08415e-09 0)
(4.06244e-07 -9.63783e-07 -3.69272e-23)
(2.42013e-07 6.28667e-08 0)
(-5.29832e-07 1.25876e-07 -1.78263e-23)
(-9.07414e-07 1.79921e-07 -2.51585e-25)
(2.21824e-08 -6.23281e-08 3.3683e-25)
(6.29469e-08 3.43059e-07 2.57351e-23)
(7.3563e-06 -9.64675e-06 0)
(3.40032e-06 -2.24962e-06 0)
(6.25925e-05 -0.0016995 -1.38034e-22)
(7.73365e-05 0.000253539 -3.52496e-23)
(3.6518e-08 -1.38613e-08 4.07858e-24)
(1.4658e-07 -1.15337e-08 -4.29634e-24)
(3.01513e-08 -5.68992e-10 1.22874e-23)
(0.000154247 0.000173554 0)
(8.35857e-07 7.66204e-07 3.16666e-23)
(-1.28453e-06 5.93833e-06 8.36872e-23)
(0.00011119 -0.000333619 -3.63818e-23)
(1.79221e-06 -5.88901e-07 5.40365e-24)
(-1.74415e-06 -9.77777e-07 4.03301e-24)
(0.000248003 0.000180518 -1.29401e-23)
(1.83087e-07 -2.05648e-07 -1.40218e-23)
(1.00905e-07 -2.63635e-09 4.84864e-24)
(3.66375e-08 -5.33492e-09 0)
(-2.28606e-07 1.903e-08 -5.68495e-23)
(-5.90701e-05 -7.08247e-05 -3.09637e-23)
(-6.87859e-09 -2.63203e-09 0)
(-2.37358e-08 -5.64684e-08 0)
(0.000835669 0.000850954 -3.69681e-22)
(-7.43805e-05 2.07577e-05 0)
(9.31941e-07 4.72901e-07 3.44318e-23)
(-1.30887e-07 1.16488e-07 3.29665e-23)
(0.000281547 -1.95371e-05 9.34482e-26)
(-0.000289535 0.000263331 -2.60636e-22)
(-2.83696e-06 4.57266e-06 -3.61616e-23)
(1.12825e-06 -1.41963e-06 -2.22871e-24)
(-1.844e-06 -1.61095e-06 0)
(-5.52626e-05 0.000198131 0)
(-1.61138e-06 -4.4151e-06 0)
(-0.000141778 0.000144716 -5.70668e-24)
(0.000540815 0.00139492 -4.49078e-23)
(-3.78669e-05 -6.19875e-05 -1.15596e-23)
(0.000273203 0.000175092 6.09413e-23)
(8.1557e-07 -3.12533e-07 3.86851e-24)
(1.82452e-06 -6.50719e-07 -9.40751e-24)
(0.000396142 0.000177159 8.50561e-23)
(2.82093e-08 1.27055e-09 0)
(-1.86225e-05 -5.83422e-05 -2.25655e-22)
(-6.27208e-07 -3.55982e-07 0)
(6.80841e-09 2.77037e-08 -3.43667e-24)
(0.000130833 0.000518004 1.35302e-22)
(-4.35975e-06 2.31e-07 0)
(2.76957e-06 1.23625e-07 0)
(7.95483e-05 4.24957e-05 -3.26081e-23)
(-1.02196e-05 -2.96193e-05 -5.55263e-23)
(1.98598e-07 3.51195e-08 5.84511e-26)
(0.000168846 0.000161332 2.8062e-24)
(6.40541e-08 1.36024e-08 0)
(7.13704e-07 -1.2398e-07 -1.36919e-25)
(-1.43612e-06 -3.46418e-07 -1.15129e-22)
(2.68098e-08 -7.9494e-07 3.74477e-23)
(1.13888e-07 3.21343e-07 0)
(-0.000191803 0.000178011 0)
(-0.000607323 0.000107748 6.86653e-23)
(-5.16986e-06 6.55121e-06 2.68175e-24)
(-1.72099e-05 0.000123373 0)
(1.20849e-06 -4.99489e-07 -2.81195e-24)
(-0.000304263 -4.02509e-05 0)
(0.000825459 -0.00259374 -1.28062e-21)
(1.87808e-06 -7.82289e-07 1.19519e-23)
(0.000222295 -0.000311031 -1.11618e-22)
(-6.44594e-07 -2.63019e-07 0)
(2.60433e-08 -4.8124e-10 -6.77629e-24)
(-2.62318e-08 -9.68288e-08 0)
(4.43617e-08 8.8774e-08 0)
(2.70499e-07 1.29908e-07 3.24604e-23)
(0.000211044 -5.67955e-06 -1.85976e-24)
(-2.28671e-06 -5.83282e-07 7.24505e-23)
(-8.78863e-05 -0.000311539 -6.58721e-23)
(4.80466e-05 0.000162519 9.87895e-24)
(2.68884e-08 -3.73971e-09 -5.1948e-25)