/*--------------------------------*- C++ -*----------------------------------*\
| =========                 |                                                 |
| \\      /  F ield         | OpenFOAM: The Open Source CFD Toolbox           |
|  \\    /   O peration     | Version:  v2012                                 |
|   \\  /    A nd           | Website:  www.openfoam.com                      |
|    \\/     M anipulation  |                                                 |
\*---------------------------------------------------------------------------*/
FoamFile
{
    version     2.0;
    format      ascii;
    class       surfaceScalarField;
    location    "400";
    object      ddtCorrDdt0(phi);
}
// * * * * * * * * * * * * * * * * * * * * * * * * * * * * * * * * * * * * * //

dimensions      [0 3 -2 0 0 0 0];
oriented        oriented;


internalField   nonuniform List<scalar> 
21991
(
1.34902e-05
-1.76382e-05
4.14647e-06
1.95577e-08
-3.48533e-08
1.51719e-08
3.41907e-06
-3.69401e-07
-3.04965e-06
-3.56467e-07
3.3192e-07
2.57924e-08
5.54809e-07
-6.31553e-07
7.63452e-08
-1.4902e-06
-2.87456e-07
1.77738e-06
-3.51719e-08
1.32131e-07
-9.6707e-08
-1.19498e-07
8.1719e-08
3.75018e-08
1.14319e-06
3.79954e-06
-4.94206e-06
1.11671e-08
-1.64014e-08
5.2894e-09
-4.35872e-05
-2.31285e-06
4.58914e-05
4.73865e-06
-1.2255e-06
-3.5133e-06
1.10085e-07
2.30154e-08
-1.32675e-07
-5.63715e-08
3.21639e-07
-2.65154e-07
-6.73962e-06
3.59987e-06
3.14025e-06
-2.26833e-05
4.86679e-06
1.78163e-05
1.60431e-07
3.94449e-07
3.7974e-07
-3.48637e-07
-3.25989e-08
9.54879e-06
-9.54818e-06
1.65674e-06
-1.01883e-06
-6.38235e-07
-1.10327e-07
1.10249e-07
1.618e-07
5.24968e-08
-2.11487e-07
-8.45659e-08
-1.77837e-07
2.6249e-07
-5.56759e-08
-8.05587e-08
1.36901e-07
-1.74538e-05
-5.07639e-07
1.79612e-05
7.05569e-08
-1.25648e-07
4.11282e-08
5.72047e-07
-6.13534e-07
4.66017e-07
-9.50465e-08
-3.70878e-07
1.69383e-05
-1.45015e-05
-2.43883e-06
-4.13232e-08
-1.16014e-07
1.57546e-07
-6.04269e-08
-1.2434e-08
7.28944e-08
-2.1948e-07
2.42129e-07
-2.27624e-08
9.9245e-07
6.64802e-07
-2.88189e-07
5.34633e-07
-2.4607e-07
-5.30811e-06
4.90484e-06
4.0065e-07
-1.1671e-07
8.15389e-08
1.83776e-05
-4.13136e-06
-1.42484e-05
-6.70247e-09
7.52462e-08
-6.84949e-08
-0.000146228
0.00016254
-1.63216e-05
-3.35662e-07
1.85733e-06
-1.52202e-06
2.07267e-07
3.21194e-06
-4.33156e-06
-9.79314e-07
-5.22478e-07
1.76807e-07
3.48374e-07
-6.0985e-08
-2.43225e-08
8.63582e-08
-4.57284e-07
-1.73923e-07
-3.12567e-11
1.4034e-07
-1.40292e-07
-6.8878e-05
1.65939e-05
5.22834e-05
9.6791e-08
-1.34071e-07
3.72383e-08
1.95973e-07
-3.3709e-08
-5.89282e-07
6.55156e-06
-5.9642e-06
7.33808e-08
-1.80646e-07
1.07799e-07
-1.52185e-08
1.86967e-08
-3.49137e-09
5.19884e-08
-1.19627e-07
6.75851e-08
2.97991e-07
-2.21935e-07
-7.62291e-08
-7.32197e-06
-5.64043e-07
7.88178e-06
9.45628e-06
3.6093e-06
-1.30658e-05
5.14198e-06
-2.29778e-05
1.78369e-05
-1.60562e-05
1.60508e-05
5.77972e-09
-5.7147e-08
5.24298e-08
4.57385e-09
-8.24553e-08
8.24945e-08
8.97154e-06
-1.00004e-05
1.02936e-06
-9.44055e-08
1.67485e-07
-1.01826e-07
4.54272e-08
5.64401e-08
1.82518e-05
-8.79511e-06
-3.11598e-08
-7.10042e-08
1.26422e-07
-8.6285e-08
-3.99657e-08
-1.31125e-07
2.06971e-08
1.44932e-07
-1.4436e-07
-7.7169e-10
-1.9677e-08
1.51617e-08
4.48554e-09
5.07628e-06
3.70619e-06
-8.78306e-06
7.59329e-08
-5.84431e-08
-1.73502e-08
6.1011e-07
-5.68785e-07
-2.98418e-05
-1.63405e-07
3.0002e-05
-1.39495e-05
5.32191e-06
8.62767e-06
1.67852e-07
-1.30466e-07
-3.81098e-08
1.01548e-05
-5.07856e-06
1.97999e-05
-6.36537e-06
-1.34361e-05
-1.35703e-08
3.30787e-08
-2.34644e-07
1.09128e-07
1.25546e-07
3.18582e-08
3.64547e-09
-3.51987e-08
6.47324e-06
-1.72856e-05
1.08118e-05
8.11398e-08
4.55413e-08
-8.01273e-09
-1.40612e-08
2.18991e-08
4.11001e-08
1.26179e-07
-6.32512e-08
5.49983e-08
8.34617e-09
1.43725e-05
-1.09665e-05
-3.40703e-06
-3.39974e-09
1.38256e-08
-1.04122e-08
6.55427e-08
-2.19855e-07
1.5466e-07
-1.24577e-08
2.76738e-08
-1.52108e-08
-2.78398e-09
4.69028e-07
2.43965e-07
-2.25627e-07
-1.89849e-08
-1.92586e-07
4.91954e-08
1.43179e-07
1.11493e-06
2.35765e-06
-3.46884e-06
4.8974e-08
-5.32871e-08
4.50424e-09
4.59425e-06
-5.1864e-06
-5.26038e-06
2.50587e-05
8.80885e-07
-2.37273e-07
1.77956e-08
-1.04363e-07
1.57377e-07
-5.3056e-08
8.33452e-06
-5.19306e-05
-2.78585e-06
1.88359e-05
-9.42525e-06
6.3905e-06
3.03424e-06
-5.48304e-08
-8.39161e-09
-1.68956e-07
3.49505e-07
-1.8002e-07
-1.40168e-05
1.30572e-05
9.6021e-07
-1.86234e-06
-7.56333e-06
2.62814e-06
2.11049e-06
4.12091e-06
-1.14421e-05
7.97617e-08
-1.43594e-07
6.36398e-08
1.99635e-09
-6.2371e-08
4.50301e-08
-7.57267e-08
3.05872e-08
-1.61688e-05
9.94654e-06
6.22272e-06
-1.81897e-06
2.93574e-06
-1.02999e-05
7.36375e-06
-1.36513e-05
-2.51741e-06
9.9155e-06
-3.44372e-06
-3.20674e-06
-8.34433e-06
1.15508e-05
3.31827e-08
2.10725e-07
-5.45068e-08
1.8267e-09
5.26263e-08
7.28966e-08
3.06782e-07
-7.07565e-06
-1.2356e-05
1.94313e-05
9.16975e-09
-2.16487e-08
1.41852e-07
1.03937e-08
-1.51942e-07
-9.85261e-07
7.73378e-07
2.11655e-07
-4.84349e-08
-8.5507e-09
-7.20695e-08
6.53905e-08
9.68616e-06
-1.73867e-05
7.70055e-06
-2.25212e-07
-1.4227e-07
-1.34104e-07
2.76303e-07
-3.17763e-07
5.33094e-07
-2.16233e-07
1.93751e-07
-5.13875e-07
-1.27385e-05
2.6774e-06
1.00616e-05
1.3791e-05
-1.14961e-05
-2.29482e-06
-3.34722e-05
1.6346e-05
1.7146e-05
5.82033e-06
-9.32071e-06
3.50018e-06
-2.771e-07
-7.08269e-07
2.94354e-08
-8.95696e-08
6.1902e-05
2.84744e-05
-9.03582e-05
1.74901e-07
-6.72136e-08
-1.07855e-07
-4.94803e-07
2.07883e-07
1.32665e-08
2.92248e-08
-4.24965e-08
1.86909e-05
-2.17967e-05
3.10517e-06
-1.62266e-08
9.61699e-10
4.9572e-06
2.32202e-05
-8.08234e-06
-1.5138e-05
-1.08975e-08
-8.78476e-09
-1.47288e-05
7.1227e-07
-4.55395e-08
1.25213e-07
-7.87186e-06
2.23281e-05
-1.44556e-05
-1.08146e-05
1.08118e-05
-3.77207e-06
4.91328e-06
-1.59661e-05
1.59656e-05
1.54522e-06
-1.88109e-06
1.58524e-08
1.26243e-07
-1.41317e-07
-2.10476e-08
1.31858e-08
1.53071e-05
-1.80935e-05
2.014e-07
4.35539e-07
-6.36766e-07
-3.27522e-05
3.91599e-05
-6.40912e-06
-1.48415e-05
1.61888e-05
-1.3474e-06
2.55927e-06
-1.04302e-05
-1.69888e-08
-5.6991e-09
2.26861e-08
2.0696e-08
-1.37687e-09
-1.9331e-08
8.94966e-06
4.84074e-06
-1.74538e-05
1.42849e-07
-2.91893e-07
1.49661e-07
2.12647e-05
-5.95755e-06
1.44994e-07
-4.82743e-08
5.92911e-06
-1.60599e-05
1.01318e-05
4.90166e-08
9.61891e-08
-1.44983e-07
-5.99045e-08
-5.9424e-08
-2.20051e-05
-1.19692e-05
3.39743e-05
-2.50029e-07
1.66509e-07
8.23206e-08
-2.7783e-06
6.70105e-06
-3.92303e-06
-4.91944e-06
-1.82033e-06
-1.83954e-05
2.42153e-05
-4.75875e-05
1.41164e-05
-2.48944e-07
5.20896e-08
1.96395e-07
4.16621e-07
-8.29178e-07
4.11223e-07
-6.66822e-09
-1.26586e-09
8.03392e-09
-4.07239e-06
9.2142e-06
-1.80188e-06
3.11928e-07
1.75462e-05
-3.57077e-05
1.8169e-05
-1.35771e-07
1.1303e-07
2.23066e-08
9.7097e-08
1.7248e-07
-2.86301e-08
-1.64011e-07
1.48256e-05
-5.37145e-06
-9.45472e-06
3.14975e-07
-1.30538e-06
9.8964e-07
-5.58659e-07
8.72962e-07
6.68516e-08
2.19438e-07
-2.86143e-07
-3.75706e-08
2.68628e-10
3.74656e-08
-4.01002e-07
-1.20701e-07
-1.00472e-05
-5.88315e-05
5.81906e-08
-1.26799e-07
6.85701e-08
4.86277e-05
2.51567e-05
-7.37334e-05
3.7147e-06
1.46575e-05
-7.84797e-08
7.10589e-08
7.32478e-09
-4.91747e-06
1.13076e-05
4.48374e-08
-1.25611e-07
8.14217e-08
-7.69879e-08
5.01218e-07
-4.24656e-07
1.67975e-05
-1.46806e-06
-1.53295e-05
3.48419e-06
5.02278e-06
-8.50626e-06
-5.30519e-09
-3.22529e-08
-1.99787e-07
-6.55573e-09
2.06415e-07
-1.67617e-06
-7.92421e-07
2.46797e-06
-1.97816e-07
1.15854e-07
8.18053e-08
-9.97557e-06
1.07043e-05
-7.28403e-07
8.22379e-07
-6.20675e-07
-4.12621e-05
8.87106e-05
-4.74533e-05
2.21794e-07
-1.88735e-07
-7.12924e-08
1.41328e-07
-6.99364e-08
1.47313e-07
-9.82226e-08
1.23159e-06
3.93219e-06
-5.16462e-06
3.67855e-08
1.08068e-07
-2.72522e-08
1.02954e-08
1.31411e-08
-1.38649e-07
1.25252e-07
4.44254e-08
1.30414e-07
-2.09303e-07
-3.36938e-08
7.46479e-08
-4.10235e-08
6.43434e-08
7.35706e-09
-7.21007e-08
-6.46371e-08
9.13976e-08
-2.63113e-08
-1.79395e-07
-8.78291e-08
2.66564e-07
9.62651e-07
2.7041e-06
-3.66681e-06
3.29518e-07
-4.06482e-07
-1.30073e-07
-1.19561e-07
1.05999e-07
-5.76518e-08
-4.83171e-08
-2.8414e-05
4.1081e-05
-1.26615e-05
-9.88472e-07
-3.3082e-07
1.31951e-06
-2.35101e-05
1.83821e-05
5.12724e-06
6.89157e-06
-1.03838e-05
3.49258e-06
1.49955e-07
3.656e-08
-1.85134e-07
-6.86059e-09
5.81282e-08
-5.13319e-08
3.80813e-08
-2.37908e-07
1.06296e-08
5.33296e-08
1.19764e-05
-5.61097e-06
-6.36657e-06
1.00173e-05
-1.65591e-05
6.54208e-06
6.03089e-08
-5.84687e-08
-1.87316e-09
-5.81797e-08
-9.09082e-08
1.48955e-07
-1.38981e-05
1.21705e-05
1.72621e-06
7.30798e-06
-1.02234e-05
2.91669e-06
-1.8607e-07
1.82291e-07
3.89175e-09
9.55635e-06
-1.62459e-05
6.68866e-06
1.56823e-05
-1.6896e-05
1.22377e-06
-1.42548e-07
3.85881e-08
-8.89011e-08
-2.03801e-08
-2.78566e-08
4.86185e-08
1.21349e-05
2.23745e-06
2.47581e-07
4.2183e-08
-2.89585e-07
-1.36401e-07
2.79075e-07
-2.2689e-07
6.78993e-08
-6.59069e-08
-3.32433e-07
-9.99831e-05
0.000100371
-6.11546e-08
-1.73031e-08
2.29032e-08
-2.57572e-08
2.74507e-09
1.73555e-08
-3.09468e-08
-9.0055e-06
1.35703e-05
-4.56535e-06
-1.02623e-07
-9.53172e-08
3.14048e-08
-3.8038e-08
6.661e-09
1.75979e-07
2.52537e-08
-2.02146e-07
1.38108e-08
6.22043e-08
4.87334e-08
-5.62954e-08
7.3553e-09
-6.0631e-06
1.08893e-05
-4.82849e-06
2.66719e-07
-1.99441e-07
8.83085e-08
-2.22514e-07
-9.14198e-08
-1.61188e-08
1.07522e-07
4.25525e-05
9.35599e-05
-0.000136108
5.34138e-08
1.00148e-07
-1.5347e-07
7.80536e-07
4.19857e-08
-3.31942e-09
1.3163e-08
-9.72856e-09
-6.35735e-07
-3.208e-06
3.84594e-06
-6.21175e-06
5.1145e-06
1.09526e-06
-1.39836e-05
3.1529e-05
2.71006e-05
-1.86605e-05
-8.44139e-06
4.63391e-10
3.05596e-08
-5.51838e-08
2.57144e-08
2.69287e-05
-8.23822e-06
9.8359e-06
-6.23559e-06
7.31742e-08
-1.91349e-07
1.18372e-07
1.759e-06
2.14607e-05
1.30766e-07
9.67085e-08
-2.29224e-07
5.13926e-06
-7.00206e-06
-1.14353e-05
-2.46292e-06
1.45135e-08
1.01428e-10
-1.45e-08
1.26775e-05
-6.7479e-06
7.33549e-06
1.636e-06
-1.72987e-05
3.36379e-05
-1.63411e-05
-7.96132e-05
5.12035e-05
-1.01491e-07
2.32255e-07
-7.68909e-08
1.42388e-07
-1.00812e-07
-1.3567e-07
2.36722e-07
5.56762e-06
-2.75726e-05
-7.77708e-08
4.4005e-08
9.5531e-08
6.64596e-08
-1.62109e-07
2.03046e-07
-1.76524e-07
2.63235e-08
1.49458e-07
-1.34513e-06
1.05787e-06
-2.31172e-05
0.000162973
-0.000139863
-1.82796e-05
5.54012e-06
-2.7881e-07
1.83539e-07
9.50293e-08
4.5654e-08
2.89448e-08
-2.31054e-07
5.14692e-08
-2.88755e-08
4.72175e-09
2.4235e-08
-4.07958e-08
7.98953e-09
3.29075e-08
-2.42849e-07
1.87215e-07
5.57152e-08
-1.2508e-06
2.6264e-07
-1.85722e-07
-4.88322e-08
-5.08892e-08
-8.49637e-08
-8.52639e-05
-6.09678e-05
3.66712e-06
-8.58479e-06
-5.32215e-06
4.02921e-07
1.00956e-05
-1.10482e-05
4.88793e-06
1.19095e-05
-1.35627e-07
-2.03816e-07
2.04311e-07
-4.34189e-10
1.51182e-08
-2.01066e-07
-9.92921e-06
9.23451e-07
-1.07083e-07
1.20213e-07
7.30402e-06
-1.33673e-05
7.74028e-06
1.9695e-05
-2.74354e-05
-8.9815e-09
1.80574e-08
-8.8755e-09
6.98518e-05
9.2685e-05
-9.09722e-06
-1.59976e-06
1.07005e-05
1.21523e-05
-1.53592e-05
-1.87078e-05
-4.80229e-06
1.33882e-06
-1.97538e-06
-6.75696e-08
-4.56871e-08
1.13614e-07
-1.60571e-06
5.87278e-07
-1.0228e-05
-1.24109e-05
2.26378e-05
-1.80156e-08
-0.000109567
7.19509e-05
3.76141e-05
-1.56339e-05
7.92417e-07
2.29991e-07
1.1949e-07
-3.42302e-07
3.13545e-07
2.94389e-08
-3.42347e-08
-2.1493e-07
-1.99543e-07
-4.72214e-09
-8.85561e-09
5.74474e-08
4.50181e-08
-5.74772e-08
-2.91477e-08
-1.16919e-08
5.36045e-06
-1.73734e-07
7.49299e-08
9.86374e-08
-5.26231e-06
2.48406e-06
1.86665e-07
-2.11442e-07
2.66154e-08
-1.33992e-07
-5.54834e-09
1.3972e-07
-9.69724e-09
2.57218e-07
-7.05681e-08
5.15702e-08
-2.65505e-09
-9.32617e-06
1.38654e-05
-4.54052e-06
-2.03693e-06
-1.85669e-05
2.06039e-05
-8.62586e-06
1.29057e-05
-4.27968e-06
-2.35325e-06
6.15209e-06
1.19414e-05
-8.45732e-06
-1.53321e-05
1.27291e-05
2.60041e-06
-5.33499e-08
2.30652e-07
8.93067e-08
-3.69404e-08
-1.22141e-08
8.84811e-09
-1.09854e-07
-6.39544e-08
-1.08396e-05
1.74331e-06
3.88683e-08
9.67933e-08
-1.35663e-07
-1.12814e-05
1.12838e-05
-1.92811e-08
-1.40332e-08
3.31424e-08
1.82591e-08
4.60623e-09
-1.84117e-07
8.31185e-08
1.00752e-07
1.29249e-05
-3.87311e-06
-9.04883e-06
-2.83995e-06
4.64005e-06
-1.79684e-06
9.19455e-06
-1.88601e-06
-3.83457e-05
-3.3839e-07
3.86848e-05
-1.44505e-05
5.01151e-07
1.90839e-07
-1.17524e-07
-1.9647e-07
-2.93143e-08
-6.35753e-07
-1.19227e-06
1.82775e-06
8.09425e-08
-3.27393e-08
-4.8156e-08
1.23944e-08
-1.53075e-07
1.40756e-07
-5.42513e-08
2.89074e-08
2.49972e-08
-3.23105e-07
2.04023e-07
1.18938e-07
1.06011e-07
1.7026e-08
-1.03333e-08
-6.64024e-09
-0.00016257
0.000105171
5.7393e-05
-7.21948e-09
1.35479e-07
-3.86027e-08
-9.70401e-08
-4.60439e-06
-5.60493e-05
2.62099e-05
-1.77051e-05
-2.60837e-07
3.99379e-07
-1.39595e-07
-7.60168e-08
-4.21435e-07
4.97327e-07
1.66762e-05
-3.39755e-05
2.14981e-07
-3.09761e-07
9.49878e-08
8.40088e-08
-5.83768e-08
-2.55578e-08
2.21565e-05
-1.68419e-05
-5.31502e-06
8.21473e-08
-2.572e-08
3.35954e-08
-7.69901e-09
4.41727e-06
9.65734e-08
-1.97299e-07
2.93349e-08
-1.09256e-07
1.92571e-07
1.05285e-07
-3.28577e-05
3.11779e-05
1.67932e-06
1.54546e-07
5.58452e-06
-3.00448e-06
-2.57896e-06
-4.38267e-08
-2.98364e-07
-3.24587e-05
4.09446e-05
-8.48305e-06
-3.58911e-08
-1.85123e-08
-5.46343e-06
1.40985e-07
-1.16971e-08
-3.7911e-08
4.95279e-08
-1.1487e-05
1.56064e-05
-0.00014636
-1.622e-05
-2.81871e-07
1.7198e-07
1.09903e-07
7.78744e-08
-1.66501e-07
8.8595e-08
9.24411e-06
-3.65927e-06
1.52366e-07
-2.57992e-07
-9.76356e-08
-9.69592e-09
1.07398e-07
6.88019e-08
3.72239e-08
9.51685e-08
-1.65704e-07
7.03283e-08
9.26229e-05
-9.29758e-05
1.4019e-08
-2.8223e-09
1.31323e-07
-1.27811e-07
-2.90167e-09
-1.35008e-05
-4.75647e-08
7.82141e-08
-3.02678e-08
-2.17646e-07
4.15786e-07
-1.9969e-07
-4.35171e-08
1.1436e-07
-3.57897e-06
1.70675e-05
-1.31922e-05
2.09307e-05
-1.51769e-06
1.3555e-06
1.61735e-07
3.063e-08
3.55552e-06
1.40076e-06
-9.04428e-08
1.68323e-07
1.11958e-06
-1.08009e-06
-3.97068e-08
-3.79962e-05
-3.5041e-07
-2.63517e-07
7.77037e-08
-2.6014e-07
4.2383e-07
-1.63464e-07
4.73222e-08
-4.32164e-08
-4.08925e-09
-7.62726e-08
-9.43078e-08
1.70534e-07
1.56944e-08
-1.56371e-08
5.72453e-05
-8.03606e-05
-4.50386e-08
1.37381e-08
3.16259e-08
-1.25655e-07
5.4299e-08
-8.84855e-08
3.88192e-08
4.90593e-08
-4.70068e-09
-2.40471e-08
3.66826e-06
-1.29959e-05
-3.11514e-08
-4.666e-08
-1.69315e-07
9.13113e-08
7.7801e-08
1.19739e-07
1.73746e-06
1.39931e-05
-1.60306e-05
2.68268e-08
-5.33912e-08
2.64752e-08
1.4896e-07
-4.04331e-09
-2.46914e-08
2.89193e-08
9.56569e-08
2.68042e-07
-3.58145e-07
-5.0833e-06
1.34216e-06
3.74015e-06
4.46587e-05
4.40052e-05
-8.84837e-05
4.42265e-06
1.12641e-05
-1.27421e-07
1.38382e-07
1.05744e-05
-9.36114e-06
-1.21335e-06
1.74293e-08
-1.70534e-07
1.2995e-07
-1.45243e-07
1.55884e-08
1.06946e-07
-8.87263e-08
-1.82531e-08
-3.13592e-09
-1.01521e-08
1.32806e-08
-6.00966e-08
9.05546e-08
-3.05727e-08
-2.12389e-08
1.81273e-08
-3.30002e-05
-3.65665e-05
6.95679e-05
1.23762e-08
-1.79691e-07
1.6687e-07
9.32665e-09
9.73933e-05
0.00014639
-0.000243793
-7.88095e-09
3.91122e-09
5.13582e-06
-3.78875e-05
7.55501e-06
1.50367e-05
-2.25913e-05
-2.04813e-08
3.42128e-07
-0.000132305
2.2726e-05
-4.28958e-07
1.67991e-07
9.7318e-06
-6.06467e-06
-9.96847e-07
-5.21148e-07
6.98954e-08
-1.30228e-07
6.02807e-08
5.50126e-09
1.99285e-07
-1.0414e-07
9.35012e-08
2.41951e-08
-1.1794e-07
-6.83361e-08
2.62999e-08
4.19804e-08
-8.82237e-06
-1.47781e-06
-7.17406e-08
-2.86337e-07
1.04952e-07
-8.17757e-08
-1.87539e-07
-9.14574e-09
1.76049e-06
-1.17357e-05
1.19933e-05
1.72622e-05
-2.92565e-05
9.28121e-07
-3.77503e-07
-5.50402e-07
1.51878e-07
-3.61059e-07
2.0803e-07
-1.9036e-07
1.69331e-07
2.12492e-08
3.32189e-06
-1.14981e-07
4.74582e-08
-4.95145e-08
1.753e-07
-1.25941e-07
4.83168e-06
-1.01725e-07
5.25788e-08
4.88833e-08
-2.3089e-08
4.98484e-08
-1.24779e-07
1.91e-08
1.04879e-07
-1.32542e-07
8.30661e-08
1.98003e-05
-1.07361e-05
-9.06592e-06
8.64215e-08
-1.16087e-07
2.97373e-08
5.07804e-09
-1.17302e-08
6.76472e-09
-1.68911e-07
-5.83073e-08
2.2751e-07
-1.15491e-07
2.6686e-08
-3.0665e-08
-5.68671e-08
-1.0414e-05
-2.75908e-06
1.31544e-05
6.51123e-07
-7.79724e-08
1.7817e-08
3.4554e-06
1.94426e-06
-5.39946e-06
-8.62332e-08
-2.69128e-08
4.02121e-08
1.61567e-07
1.21218e-08
-1.74164e-07
4.13234e-06
-2.22816e-05
1.81492e-05
9.16427e-08
-1.31108e-07
3.96481e-08
6.24736e-09
-4.17707e-08
3.59761e-08
-5.86827e-09
2.45788e-09
1.09176e-07
-5.1073e-08
-5.81454e-08
-2.1172e-06
-4.0951e-06
1.36611e-07
-4.52053e-08
1.41657e-07
-7.14697e-08
-3.3781e-05
-9.85276e-05
1.50398e-07
-1.01217e-07
-4.92151e-08
-1.54488e-07
5.93458e-09
1.48542e-07
-2.99221e-05
7.64636e-06
2.2277e-05
5.15603e-08
-1.11658e-07
6.06107e-08
5.50906e-05
1.68616e-05
-3.65417e-08
3.21012e-08
3.96113e-09
-3.40998e-06
-1.08045e-05
1.42142e-05
-1.137e-05
9.57171e-07
1.10072e-05
8.79172e-06
2.06589e-08
-1.11915e-07
6.53415e-08
-4.26615e-08
-2.16805e-08
3.4161e-07
-3.85229e-07
-1.80753e-07
1.04281e-07
1.48442e-08
-9.8576e-09
-4.99429e-09
-2.63304e-08
-1.16422e-07
1.42883e-07
-4.94997e-09
-7.35629e-11
5.00126e-09
-3.06036e-07
1.37185e-07
3.6284e-09
4.36772e-08
-1.19915e-07
-5.67658e-09
-4.11989e-07
3.16975e-07
-5.83323e-09
1.37515e-07
-9.53758e-06
-7.74831e-06
-5.41322e-06
2.57514e-06
-2.54975e-05
-7.50057e-06
1.9436e-08
1.65724e-07
-2.98495e-08
-6.98311e-09
4.50096e-06
-8.04918e-06
3.54801e-06
-3.8548e-08
1.72487e-07
-4.33256e-07
4.22689e-06
-1.44549e-05
-1.77954e-07
-6.50399e-08
-1.25155e-05
9.10539e-06
-9.29134e-07
1.1503e-05
2.19533e-08
-1.23918e-09
2.43023e-06
-3.48899e-05
3.44936e-06
3.0852e-06
-6.53411e-06
1.68823e-07
-1.57713e-07
-4.75201e-08
-1.18623e-07
-8.82716e-06
-2.05337e-05
2.93593e-05
7.51043e-06
-3.82919e-05
3.07756e-05
5.01443e-09
2.69084e-08
1.19832e-08
2.58902e-09
-1.70109e-08
-1.22112e-08
4.82377e-06
-9.33716e-06
4.51347e-06
2.42197e-07
-1.91863e-06
-1.012e-05
-1.38319e-05
2.39516e-05
-1.23365e-05
4.78806e-08
-4.15377e-08
1.25555e-07
-5.67875e-07
4.42233e-07
-3.92256e-07
5.70293e-07
1.84424e-05
-4.0542e-06
-1.43909e-05
8.88775e-07
2.309e-07
-2.66181e-07
3.6326e-07
1.94852e-07
-1.00574e-07
-9.42186e-08
3.11562e-08
-5.90335e-08
2.75887e-08
1.17942e-05
-1.46764e-05
2.88251e-06
4.3984e-05
-2.86233e-05
-1.53636e-05
-2.69573e-08
-9.34749e-08
-2.05787e-05
7.95648e-06
1.26222e-05
5.86656e-09
2.2853e-08
-3.98713e-08
-7.89032e-08
7.12949e-09
7.18257e-08
-1.45579e-07
-1.36385e-07
-2.36603e-08
3.28777e-08
1.3231e-05
-3.54514e-06
-2.91899e-08
3.60104e-09
1.43394e-06
8.11529e-06
2.98826e-05
-2.43285e-07
-6.26683e-08
2.15e-07
-1.50178e-07
3.23892e-08
-1.30111e-09
2.2883e-08
-9.55482e-06
2.15254e-07
-2.42365e-08
1.6025e-07
-9.70789e-06
-1.18588e-08
2.88411e-08
-5.24159e-08
-2.65153e-08
9.90143e-08
-6.91442e-08
-2.96969e-08
-1.53741e-08
2.93849e-09
1.24492e-08
2.44104e-07
1.2909e-07
-3.73516e-07
1.81373e-07
-1.16437e-05
-2.14538e-06
1.37878e-05
-9.10832e-07
-1.14459e-05
1.75422e-08
-1.17906e-08
-1.21884e-07
-2.00035e-07
3.49907e-07
4.35631e-06
-6.67631e-06
2.31976e-06
-2.18433e-07
4.42137e-07
-2.24541e-07
2.12976e-07
-2.86743e-07
7.35612e-08
7.43447e-08
-5.7033e-08
-1.7281e-08
-6.8219e-05
1.76293e-05
5.06148e-05
6.08618e-08
-1.67421e-07
1.06442e-07
4.08473e-05
3.90814e-06
6.43129e-09
-4.12866e-08
3.42261e-08
-1.06275e-05
1.04566e-05
1.48006e-05
-4.2134e-07
-1.43787e-05
-2.76538e-08
4.01841e-09
6.02783e-08
4.87814e-07
3.8673e-08
-5.25735e-07
1.27315e-07
2.21202e-08
-2.64478e-08
-7.41346e-10
2.73945e-08
1.4649e-07
-2.22283e-08
-1.24333e-07
5.58348e-06
-4.35292e-06
-1.04735e-06
-3.74836e-07
1.42239e-06
-3.37796e-05
-7.5096e-06
-7.44895e-08
4.32983e-08
-4.29504e-05
4.06484e-05
-9.46871e-06
5.58602e-08
4.32177e-07
-1.24916e-07
1.24572e-07
3.48383e-06
1.21185e-05
-1.56017e-05
6.65898e-08
-1.04427e-07
3.80637e-08
1.01113e-05
-2.54732e-05
1.53614e-05
-6.60248e-08
1.06597e-07
-3.99012e-08
5.74929e-08
-2.26247e-08
-3.50544e-08
-6.90178e-07
4.62202e-06
-4.86801e-06
3.53189e-06
1.33639e-06
3.05078e-05
-2.03967e-05
4.13964e-07
-2.88568e-07
-9.63125e-08
-1.58369e-07
2.54883e-07
-3.40348e-08
1.46118e-08
-6.76405e-06
1.20861e-05
-1.79527e-08
-2.12774e-08
3.93189e-08
0.00014514
-1.5056e-05
-0.00013007
2.83705e-06
3.6323e-05
-3.07382e-07
-5.33662e-08
2.68075e-08
6.12097e-09
-3.29143e-08
8.56189e-08
-1.82027e-08
-6.72254e-08
7.8751e-08
5.30622e-07
8.95941e-08
1.05303e-07
1.29796e-08
6.23371e-08
-1.62131e-06
8.28152e-07
-1.71831e-07
2.19835e-07
-4.89957e-08
2.97518e-07
-3.18104e-07
1.02561e-07
3.71916e-08
1.16611e-05
-6.79473e-06
1.80003e-05
-1.38679e-05
5.98521e-06
-2.11141e-08
-5.02274e-08
7.1628e-08
4.70018e-08
1.14199e-07
-1.73148e-08
4.33744e-08
-1.35606e-07
9.21542e-08
-1.52869e-07
-1.26103e-07
-4.85641e-06
6.37842e-06
-1.5216e-06
1.93668e-07
-2.39713e-07
4.58746e-08
6.69665e-06
5.28209e-06
-1.75134e-07
1.87587e-07
1.95743e-06
-2.93454e-06
-7.54336e-09
1.00947e-07
3.01866e-05
1.37971e-05
0.000173703
-2.85371e-05
-1.05413e-08
2.29387e-08
-1.23311e-08
-2.92964e-08
3.60658e-07
9.04964e-06
-4.54829e-06
2.57176e-07
-4.36245e-08
-1.54131e-07
-3.61154e-08
-6.41039e-09
2.1921e-07
-5.72608e-05
0.000105934
2.33913e-08
5.8193e-09
-2.92073e-08
1.87617e-07
-2.09247e-07
2.16259e-08
-4.41745e-09
-1.03826e-08
1.48289e-08
-1.19531e-07
1.2066e-07
-6.97236e-10
-1.80805e-05
2.38523e-05
-1.14769e-05
-1.23792e-05
-1.4752e-07
-4.51598e-07
5.9919e-07
8.92435e-08
-5.13441e-08
-1.21279e-08
5.49488e-09
1.44472e-09
-2.00549e-08
1.87021e-08
1.27132e-07
6.3211e-08
-1.90341e-07
-1.83991e-07
8.48892e-08
9.89802e-08
-2.50577e-05
1.62298e-05
-1.57572e-06
9.39747e-07
1.10613e-05
-6.23807e-06
-1.69148e-06
-9.59063e-06
-2.02727e-07
-3.35642e-07
5.38849e-07
-2.17301e-07
2.46824e-07
-2.97578e-08
1.58996e-05
-1.39203e-05
-1.97867e-06
1.23388e-07
-6.52648e-08
-4.43313e-06
8.23245e-09
1.33297e-07
-3.69935e-09
1.25739e-08
-8.88064e-09
8.75435e-08
-5.92384e-08
-2.84554e-08
-4.24077e-07
3.515e-07
-9.49164e-09
1.11872e-06
-1.11013e-06
5.37452e-09
8.48632e-09
-1.5639e-07
1.08465e-07
-8.69369e-09
2.51073e-07
-2.41912e-07
5.4969e-07
-4.04437e-06
3.49396e-06
-2.23901e-07
6.40292e-09
-1.07456e-05
1.21374e-06
9.53168e-06
-6.3277e-08
-6.35764e-08
-4.86531e-07
-1.02577e-05
6.27874e-07
7.66758e-07
-1.39431e-06
8.24759e-07
-3.98581e-07
-4.26279e-07
-1.83064e-07
5.53093e-07
-3.68256e-07
1.7119e-08
-9.80799e-09
-7.24869e-09
7.56851e-08
5.79936e-08
-1.3362e-07
-1.39035e-06
-1.28162e-05
8.70744e-06
4.10877e-06
1.43829e-07
-1.66762e-08
-1.27148e-07
-3.93597e-06
-9.31908e-07
4.29583e-08
4.56176e-08
3.17038e-08
1.35445e-07
-3.2797e-08
-6.44489e-08
1.92917e-07
-9.12991e-06
-1.14485e-05
-2.53764e-08
-4.29797e-08
-2.65376e-07
8.7571e-08
4.7047e-08
-7.26164e-08
2.56263e-08
1.84408e-07
1.03235e-08
7.51992e-08
7.06052e-08
-7.44102e-08
3.88641e-09
1.60623e-07
5.47987e-08
-1.94219e-09
2.87539e-08
-1.7341e-08
1.3069e-07
-1.13579e-07
3.34617e-07
-1.38221e-06
4.1174e-07
1.23041e-07
-0.000108059
0.000183371
-7.53033e-05
-1.48675e-05
-2.26253e-08
1.20974e-08
3.61973e-08
-1.64298e-08
1.28081e-08
-1.59744e-05
7.03565e-06
8.93883e-06
-9.46575e-08
1.91321e-07
1.14313e-07
-6.12465e-07
4.99029e-07
1.12411e-05
1.26103e-05
-2.24342e-07
2.1787e-07
1.91184e-07
-3.899e-07
-1.55061e-05
-3.70921e-06
1.9216e-05
5.25311e-08
4.64987e-08
-4.38129e-08
2.59185e-08
1.87149e-08
-2.00864e-08
3.95159e-08
3.49107e-08
-4.18158e-06
8.53781e-06
-3.44538e-09
-1.51094e-09
2.2222e-08
-2.88895e-08
6.6989e-09
-8.17168e-05
3.41304e-05
-4.96081e-06
-2.25109e-06
7.21192e-06
-5.89281e-08
1.79409e-07
-1.20462e-07
-3.94489e-08
-1.11963e-05
-6.44255e-06
-1.73477e-05
2.69041e-05
-6.77001e-07
5.1068e-07
1.66193e-07
-2.48431e-07
6.66192e-08
1.81349e-07
2.12652e-07
2.01513e-07
-1.14215e-05
1.38488e-05
-2.42144e-06
-5.65448e-07
3.62624e-07
9.91492e-06
-1.33005e-05
3.38853e-06
-0.00012467
-6.1488e-06
3.79509e-06
-1.17507e-06
1.40914e-05
1.9256e-07
-1.31173e-07
2.83085e-07
-1.93796e-07
-8.93824e-08
2.78866e-05
-3.43178e-05
6.44486e-06
1.53007e-08
-1.03571e-09
-1.41813e-08
-2.2976e-06
-1.15812e-07
1.5437e-07
-3.85199e-08
-5.78712e-09
-9.57075e-09
-3.07648e-05
2.32908e-05
7.46899e-06
5.51565e-07
-4.72846e-07
1.08296e-07
1.8315e-06
3.75282e-06
9.65458e-07
2.25206e-06
-3.2176e-06
-2.75236e-08
-4.69863e-08
-6.02767e-06
-1.94889e-08
3.68218e-08
1.21883e-07
-1.48081e-07
-2.82441e-07
2.30797e-07
5.24857e-08
-1.82513e-07
1.05996e-07
-2.29949e-07
1.80176e-07
4.95283e-08
-1.33488e-05
-2.89792e-06
-2.11135e-05
1.0785e-06
9.91576e-08
-1.17771e-06
-8.72853e-06
-1.06485e-06
9.79778e-06
-1.60831e-07
2.65799e-07
-1.06242e-07
3.17428e-07
1.44833e-05
-0.000244352
0.000341755
1.74639e-07
1.08462e-07
-3.27188e-06
1.52653e-05
-1.56826e-07
4.11613e-08
1.09374e-08
-2.25531e-08
3.6927e-08
-1.42526e-08
3.7225e-08
4.00461e-08
5.17479e-08
-7.74548e-08
2.55273e-08
-3.42328e-06
-7.38464e-06
-4.0547e-07
3.56762e-07
4.61291e-08
1.26187e-05
-1.27006e-05
-4.68625e-06
1.46482e-08
1.12576e-09
-1.72327e-06
5.31351e-07
1.53891e-07
-2.16054e-07
6.20219e-08
8.12309e-09
-1.59538e-08
7.79243e-09
-1.18691e-08
-1.07366e-07
-3.25522e-05
-1.42074e-05
-1.57763e-07
4.17852e-08
-3.77275e-07
4.92263e-07
1.32116e-07
-9.35766e-08
-4.56261e-08
8.56183e-09
3.70076e-08
2.7211e-07
-8.39951e-08
1.68878e-09
-2.23679e-07
-4.10099e-06
-1.32379e-05
1.73385e-05
1.32068e-05
-7.23806e-06
-5.96679e-06
-2.62144e-06
-8.79947e-06
5.17238e-06
4.74412e-06
-1.07469e-07
-1.16859e-07
6.14782e-06
6.90995e-06
2.20295e-08
2.75603e-09
-2.48209e-08
-7.62339e-05
0.000113188
-3.69651e-05
8.39722e-06
-2.95919e-06
-5.43799e-06
7.50415e-08
-3.60776e-07
4.13881e-08
3.23498e-07
1.67291e-05
-7.63844e-07
4.88584e-08
-6.99245e-08
3.93237e-07
-2.0189e-07
-1.91355e-07
-3.36807e-08
3.72943e-08
-3.54089e-09
3.83073e-06
6.98143e-06
2.42767e-07
1.50398e-07
2.88993e-08
1.06591e-07
-4.57503e-08
-5.48155e-08
4.7901e-08
4.22265e-09
2.21229e-09
-6.39172e-09
-9.46695e-08
-1.54013e-07
-0.000136199
5.12796e-05
8.49019e-05
4.95678e-08
3.77641e-08
-8.76012e-08
8.88477e-09
-5.87933e-08
4.99849e-08
4.7894e-07
-4.72472e-07
-7.50881e-09
-8.12768e-08
4.24708e-08
-1.48733e-05
1.30184e-05
1.85402e-06
-1.99408e-07
3.94393e-07
-1.95758e-07
-1.23203e-10
6.51924e-08
-6.54826e-08
-6.99892e-09
-4.14984e-08
-6.03569e-08
-1.12736e-07
-7.14638e-08
-4.71381e-08
1.05347e-07
-5.825e-08
-1.84014e-08
1.84717e-08
3.20173e-11
9.3978e-06
-1.08564e-06
-8.31404e-06
-2.48228e-05
0.000113541
1.46029e-10
3.73965e-08
-3.76877e-08
1.68342e-08
-3.08854e-08
-2.25795e-07
6.42003e-07
-9.71678e-06
-2.83226e-07
-3.22389e-08
8.38642e-08
-5.1215e-08
-4.77154e-08
-1.10417e-08
5.8815e-08
5.15312e-08
-6.82338e-06
3.01216e-06
3.80971e-06
-9.38046e-09
3.16269e-08
-1.14843e-05
-2.13731e-05
-3.57673e-08
1.06601e-07
-1.9426e-08
2.63201e-07
-4.03285e-05
-4.62047e-05
0.000110097
-6.38931e-05
-4.81404e-08
9.18468e-06
-7.98809e-06
-1.21173e-06
1.29017e-09
1.35463e-08
9.391e-06
-1.30273e-05
3.63629e-06
-3.26964e-07
5.20996e-07
-4.2186e-08
-2.63344e-07
3.08312e-07
-9.11838e-08
-1.70114e-08
1.0721e-07
3.94197e-08
4.80264e-08
-1.96238e-05
1.91156e-05
1.1783e-06
1.36471e-05
-6.58366e-09
-3.90587e-08
-2.14371e-07
-1.17742e-06
1.39175e-06
1.38137e-05
-1.03297e-05
1.74023e-05
4.11615e-07
-7.63488e-06
1.03136e-05
2.15947e-08
4.77333e-06
2.56241e-06
4.28737e-09
-4.27852e-09
8.92204e-09
4.05268e-08
3.99491e-07
7.8318e-08
6.4939e-05
-8.75428e-05
2.25977e-05
-6.87318e-08
-7.71528e-08
1.45601e-07
1.3109e-05
-1.02571e-05
-2.85056e-06
-1.62641e-06
2.17401e-06
-5.47242e-07
-1.07633e-07
1.3668e-07
-3.32882e-07
-6.87924e-08
-3.30026e-09
-1.39569e-07
-1.48446e-08
-4.61502e-08
9.76744e-08
-1.66552e-08
-1.98513e-08
1.50494e-09
-1.57969e-07
-2.47869e-07
4.05845e-07
-6.73328e-08
2.46791e-08
-4.17565e-07
-2.042e-07
-1.49424e-08
-7.92833e-05
-5.69062e-05
1.16285e-07
-1.16168e-07
3.19925e-07
3.45398e-08
2.39191e-09
-3.69516e-08
-1.78573e-07
5.78978e-07
2.01445e-07
-3.48345e-06
-6.7395e-06
4.47485e-07
-4.05403e-07
3.29507e-07
2.2075e-07
4.27428e-08
-2.63548e-07
3.88702e-07
-3.78719e-07
-1.00205e-08
2.50345e-09
-3.79257e-07
5.64265e-06
1.16381e-07
-1.95012e-10
4.42128e-09
-2.2606e-08
-1.54353e-08
-3.38628e-05
1.97724e-05
1.40876e-05
-1.29402e-06
3.98986e-06
-2.6965e-06
-1.22905e-07
-3.41031e-08
-3.7597e-08
7.16747e-08
-1.16727e-08
-2.43373e-09
-2.00772e-06
4.6164e-06
-2.17383e-07
-4.40121e-06
1.41768e-05
-4.78566e-06
-1.81815e-05
-3.53918e-06
2.17199e-05
3.54845e-06
-8.50928e-06
1.48206e-06
-7.55055e-07
-7.26948e-07
-2.69626e-05
-8.38388e-09
2.5261e-08
-6.14617e-09
-1.023e-08
-1.1419e-06
1.09732e-06
4.42745e-08
1.30038e-07
-4.56139e-07
1.44526e-06
-3.57605e-05
1.17733e-06
-1.39157e-06
9.91408e-08
-6.25648e-08
-1.20659e-08
-4.17215e-09
-3.82574e-06
3.2254e-06
6.00644e-07
-3.71757e-08
1.46695e-08
5.55683e-06
-3.72431e-06
-1.9217e-07
2.59531e-07
-6.72697e-08
3.7945e-07
-2.00682e-06
-2.793e-08
-4.1864e-08
6.97921e-08
-1.03279e-05
1.43386e-08
1.14062e-08
-2.55209e-08
0.000229031
-8.26457e-05
2.69099e-08
7.16372e-08
-5.4452e-08
-1.72413e-08
3.26434e-07
-4.20535e-08
-2.84169e-07
7.67574e-06
5.53221e-06
-4.89371e-06
1.10417e-05
-2.82367e-05
2.26202e-06
2.59727e-05
-4.26341e-07
2.26524e-07
5.39714e-06
-1.07695e-05
1.86283e-07
-8.917e-08
1.76085e-07
-1.68028e-05
1.56857e-05
1.11679e-06
3.65265e-08
1.04204e-06
2.00407e-06
-3.71267e-06
1.71025e-06
-1.48594e-07
1.3051e-07
1.79381e-08
-3.66538e-08
2.81966e-09
-3.61847e-06
-8.01545e-06
-7.31719e-06
-4.58447e-07
8.93921e-07
-4.35255e-07
6.17866e-08
-2.53956e-07
7.38691e-08
-6.4414e-08
-9.32775e-09
-1.54077e-07
6.37741e-07
-4.8209e-07
-1.11497e-07
1.54819e-07
5.32526e-07
-8.08115e-06
7.54831e-06
6.44672e-06
1.39489e-06
-7.84197e-06
2.25708e-08
6.74808e-08
-1.36022e-07
2.77306e-08
-7.20625e-08
4.44823e-08
1.6282e-07
-2.59059e-07
-9.68637e-05
-1.11987e-05
3.38624e-08
-1.41525e-07
9.12935e-06
-2.68252e-06
1.09874e-05
5.39557e-05
1.00592e-05
-2.13775e-06
-7.92131e-06
-1.77744e-07
-2.34196e-07
1.15746e-07
1.41748e-08
2.04498e-08
-6.61807e-08
4.64031e-08
-2.26446e-05
4.89872e-05
-2.62881e-05
4.78819e-09
-0.000179407
4.69423e-05
0.000132459
6.70178e-08
1.46088e-07
-2.13341e-07
2.03954e-07
-3.81623e-07
-2.53878e-08
2.54868e-08
4.7924e-08
5.09534e-08
-9.89617e-08
-1.06252e-06
6.04137e-07
-2.34639e-08
-6.53761e-07
-7.99199e-05
-2.13192e-06
-2.08804e-05
2.30142e-05