/*--------------------------------*- C++ -*----------------------------------*\
| =========                 |                                                 |
| \\      /  F ield         | OpenFOAM: The Open Source CFD Toolbox           |
|  \\    /   O peration     | Version:  v2012                                 |
|   \\  /    A nd           | Website:  www.openfoam.com                      |
|    \\/     M anipulation  |                                                 |
\*---------------------------------------------------------------------------*/
FoamFile
{
    version     2.0;
    format      ascii;
    class       volScalarField;
    location    "400";
    object      k;
}
// * * * * * * * * * * * * * * * * * * * * * * * * * * * * * * * * * * * * * //

dimensions      [0 2 -2 0 0 0 0];


internalField   nonuniform List<scalar> 
14804
(
0.0233232
0.000146405
0.000189487
0.000161325
0.000166357
0.000180203
0.000151406
0.000148691
0.00019131
0.000149166
0.000237725
0.000190945
0.000149398
0.000167061
0.000200477
0.054873
0.000167147
0.000159936
0.00533344
0.00017386
0.00014994
0.000154049
0.000162587
0.000150273
0.0169216
0.000150263
0.000166397
0.000166209
0.0212495
0.000150415
0.000146332
0.000161191
0.000173824
0.000170213
0.000189463
0.000151413
0.000680275
0.000149579
0.0322464
0.000173426
0.000189493
0.000188378
0.000178051
0.000147663
0.000166303
0.000151373
0.00511587
0.000149203
0.00015444
0.000215823
0.000149493
0.000145937
0.000148069
0.000154537
0.000231978
0.0057184
0.000238393
0.0201694
0.000148736
0.000151474
0.0117951
0.000149642
0.000147648
0.00894325
0.000147637
0.000148212
0.000149873
0.000150876
0.000148231
0.0354868
0.000146853
0.000165405
0.000246259
0.0405264
0.000150077
0.035766
0.0485997
0.00014636
0.000164696
0.000144128
0.0448179
0.000148201
0.000144343
0.000150102
0.000149687
0.000200389
0.000145443
0.000152132
0.000145966
0.000166141
0.000165325
0.000153092
0.000186359
0.000146309
0.000216641
0.0508479
0.02179
0.000160528
0.000149856
0.000263494
0.0207839
0.0355013
0.000149755
0.000169193
0.000206374
0.0366051
0.000190675
0.00020495
0.000148363
0.000146502
0.000147826
0.021425
0.000186542
0.0260133
0.0213488
0.0398533
0.000212868
0.000166078
0.000149658
0.00016036
0.0481241
0.000145981
0.000153089
0.000170905
0.000148783
0.000149697
0.000213541
0.000168216
0.000163514
0.000165253
0.000165096
0.000201896
0.0305333
0.000240206
0.00272192
0.000170359
0.000147704
0.00211879
0.00014995
0.000170436
0.000147082
0.0441256
0.000148659
0.0246721
0.0259392
0.000148339
0.000205523
0.000148371
0.000226078
0.00658634
0.000191313
0.00724787
0.000174078
0.000169322
0.00014427
0.0220505
0.000164465
0.000258407
0.0200294
0.000244046
0.000146877
0.000147488
0.0309477
0.00861253
0.000155827
0.022184
0.000149331
0.0123757
0.000150296
0.000148686
0.000250406
0.000154471
0.000195517
0.000198448
0.00099334
0.000246222
0.000161099
0.000172407
0.000144874
0.000251412
0.000180213
0.0556244
0.000150937
0.000157061
0.000152775
0.0221908
0.000179384
0.000178258
0.000157881
0.00014463
0.000177027
0.00775949
0.000148523
0.00275454
0.00016206
0.000147215
0.0347205
0.00014926
0.000177921
0.0158216
0.0259505
0.000144598
0.000153074
0.000188394
0.000151086
0.0188428
0.000163764
0.000441803
0.000167068
0.000151494
0.000150308
0.0111906
0.000151066
0.000146875
0.000150618
0.000150165
0.000168509
0.00014724
0.000148153
0.000147535
0.000157078
0.000187659
0.000178008
0.0001541
0.000147221
0.000292682
0.000173492
0.00241879
0.0304604
0.000153589
0.000146318
0.000152685
0.000148169
0.035522
0.0402012
0.000149751
0.000151248
0.000205395
0.000197197
0.0001563
0.0411101
0.000202544
0.000149805
0.000147598
0.000145771
0.000202218
0.000159673
0.00015571
0.000162557
0.00014676
0.0457067
0.000147207
0.000147136
0.000146389
0.0275301
0.000150904
0.000144672
0.000154242
0.000146717
0.000148432
0.00985792
0.00015792
0.000163459
0.000149048
0.000411514
0.000149614
0.000163239
0.000145611
0.0190705
0.0127117
0.0539106
0.0597957
0.000149778
0.000148762
0.0491903
0.000203043
0.000152355
0.0227433
0.000170153
0.0364595
0.000206013
0.00014657
0.0147981
0.0115387
0.0498108
0.000608197
0.000170792
0.000152313
0.000157806
0.000215525
0.000147155
0.000149292
0.000153959
0.00015024
0.000179151
0.000244068
0.000203664
0.000163352
0.000147241
0.000157873
0.000145471
0.000146616
0.000158995
0.000173753
0.000164224
0.000150707
0.0170911
0.0369607
0.000198476
0.0244961
0.0173195
0.000150289
0.00015591
0.000156056
0.0276962
0.000150666
0.00941005
0.00021281
0.000143853
0.0505942
0.000204225
0.000210484
0.00181722
0.0156348
0.000149685
0.000172974
0.00021066
0.00014879
0.000881688
0.0227046
0.000169132
0.000166447
0.000160785
0.000155385
0.000148466
0.000146118
0.000146681
0.0262326
0.000150527
0.000195477
0.00015395
0.000149735
0.000160159
0.000149498
0.000146318
0.0238083
0.0504024
0.0339281
0.00019268
0.0303048
0.0226309
0.000154218
0.000148136
0.000145563
0.000150501
0.000205103
0.00014945
0.00575437
0.000144543
0.000147102
0.00015036
0.000198217
0.0001856
0.000195256
0.0621497
0.0392882
0.000152056
0.000164863
0.000178549
0.000147327
0.000153207
0.000149044
0.000164396
0.000150452
0.000146309
0.0322671
0.00014571
0.000149741
0.0304596
0.000267713
0.000959116
0.000160542
0.000175973
0.0527509
0.000159668
0.000147267
0.0559454
0.000151363
0.000148528
0.0553369
0.00015731
0.000144795
0.000150335
0.000154458
0.0266333
0.000153319
0.000217719
0.00016576
0.0655319
0.000149107
0.000196989
0.000147517
0.000207284
0.0268047
0.000164802
0.000154105
0.000218954
0.000149407
0.000173286
0.000149766
0.000147422
0.000159402
0.0386666
0.000149147
0.000150338
0.000321162
0.000148585
0.000160578
0.000150265
0.0230707
0.000214642
0.000179079
0.000145061
0.0310578
0.000153984
0.000166367
0.0608628
0.000163518
0.00015818
0.000145723
0.000152365
0.000150114
0.000263492
0.000148379
0.000151445
0.000148331
0.000145457
0.0233882
0.000147138
0.000150244
0.000172193
0.0486329
0.000146577
0.000149604
0.000145495
0.000157803
0.027553
0.0304026
0.000203349
0.000153073
0.0343938
0.000153132
0.00014966
0.000149752
0.000148866
0.000147491
0.000158942
0.0338893
0.000154515
0.000149693
0.00474549
0.00014545
0.000258774
0.000221672
0.000166948
0.00282923
0.000160655
0.0366983
0.000179211
0.000149729
0.000149692
0.000159235
0.000148584
0.000146539
0.029276
0.000161045
0.000149279
0.000163675
0.0213113
0.0497503
0.000170297
0.000159672
0.00015581
0.000187685
0.000149905
0.000156261
0.0344697
0.000148354
0.000146589
0.00016628
0.000156444
0.00049337
0.000169931
0.000145957
0.00016328
0.000149684
0.00014834
0.0120146
0.000170768
0.000147407
0.000195608
0.000150216
0.000147037
0.000165436
0.0457312
0.000148375
0.00014759
0.00014542
0.00014711
0.0141859
0.000148407
0.00014966
0.0050107
0.00014814
0.000149964
0.0652069
0.000148301
0.000514346
0.000143729
0.000212374
0.0101567
0.0002767
0.0001491
0.000148604
0.000165045
0.00015259
0.000143792
0.000151783
0.00014545
0.000162809
0.000145741
0.000165453
0.000166909
0.000150199
0.0501144
0.000186858
0.0463443
0.000154325
0.000143722
0.000196353
0.000148093
0.000158717
0.000208379
0.000158677
0.0002078
0.03449
0.000147462
0.0696324
0.000192837
0.000154423
0.000154098
0.0672297
0.0595236
0.000144114
0.000146529
0.00014669
0.000207641
0.000188486
0.0590734
0.0460295
0.000147614
0.000178942
0.000177216
0.000405924
0.000165655
0.000157177
0.000158554
0.000146731
0.000204673
0.0600122
0.00016463
0.000175629
0.000143865
0.000146744
0.000147101
0.00016358
0.000145869
0.000211089
0.000148505
0.00563858
0.000230253
0.000161995
0.000170894
0.000146741
0.000147272
0.0341159
0.00015181
0.00598251
0.000146242
0.00014713
0.000146904
0.000149695
0.000176512
0.000160826
0.0419291
0.0442098
0.000148543
0.000149697
0.000159181
0.000194247
0.000170977
0.000159975
0.000146669
0.000283465
0.000152924
0.0217149
0.000145036
0.000237421
0.0138792
0.000145796
0.000147546
0.000170097
0.000149946
0.000143801
0.000169744
0.000150114
0.013786
0.000178511
0.000338603
0.000147069
0.000230387
0.00185963
0.000170306
0.000149943
0.0141896
0.000146762
0.000213059
0.000148171
0.000149114
0.0102579
0.000192703
0.000322977
0.000178642
0.000159529
0.000144591
0.0414342
0.00014685
0.0145943
0.000307536
0.000159679
0.000145709
0.000147763
0.000165035
0.000159402
0.000149516
0.000185943
0.000171266
0.000165741
0.000148529
0.0504953
0.0446373
0.000226213
0.000147592
0.000165426
0.000144192
0.00014951
0.000163272
0.0183743
0.000159761
0.0364379
0.000164313
0.000199767
0.000205724
0.000148705
0.0609157
0.00905522
0.000146777
0.00016113
0.000197126
0.000160013
0.000160364
0.000155157
0.000160717
0.00231195
0.000145582
0.000170215
0.000146158
0.000149398
0.0224504
0.0518271
0.000173742
0.000148259
0.000144761
0.000144166
0.000152758
0.00016241
0.0636145
0.000178584
0.000211578
0.00611865
0.000176958
0.000158994
0.0125696
0.000148619
0.0390502
0.000151686
0.000147011
0.000148135
0.000160177
0.000181296
0.000145396
0.000154348
0.000168995
0.000192948
0.000158724
0.000207546
0.000148333
0.000205777
0.000175511
0.000170113
0.000168011
0.000148959
0.000149167
0.0247783
0.0404139
0.000148615
0.000192644
0.000148258
0.000144679
0.000148536
0.000153125
0.000183214
0.000146399
0.000161908
0.000146859
0.000156054
0.000147767
0.000169588
0.000151825
0.000145765
0.000148388
0.000177674
0.000170518
0.00299262
0.000985811
0.000146838
0.000147538
0.000147163
0.0211826
0.000157024
0.000177955
0.0503001
0.000161108
0.000158524
0.0215183
0.000146978
0.000146901
0.000147453
0.000146699
0.000195686
0.000148293
0.000144681
0.000247609
0.000196732
0.000156053
0.000146477
0.0235078
0.045687
0.000176551
0.000156093
0.000160889
0.00155112
0.000176247
0.00832573
0.000255329
0.000192628
0.0193692
0.000152907
0.000161696
0.000221858
0.00014652
0.000282489
0.000151057
0.000149601
0.0621679
0.000164225
0.000171803
0.0148671
0.00019325
0.000147072
0.0212519
0.000146341
0.000151587
0.000154933
0.000152233
0.000149526
0.0369824
0.060032
0.000166163
0.000203022
0.000155283
0.0148727
0.00346046
0.00016247
0.0495044
0.000151062
0.000146323
0.00014535
0.000148538
0.000148286
0.00698595
0.000161556
0.0508803
0.000216213
0.000149383
0.000178146
0.000160389
0.000146922
0.000149258
0.053156
0.0111845
0.000150109
0.000177858
0.000149547
0.000147265
0.000170738
0.000154452
0.0444146
0.000201839
0.00212647
0.00508073
0.000158252
0.000206387
0.000148597
0.00671199
0.000195097
0.000146776
0.000158865
0.0107114
0.000147552
0.000167991
0.000145261
0.0061769
0.000168123
0.000149862
0.000149514
0.000146128
0.00014582
0.000155724
0.0228804
0.000146702
0.000146991
0.00015919
0.000149807
0.0417156
0.000170836
0.000147934
0.000144791
0.000148354
0.000162214
0.000148623
0.000147023
0.000204025
0.00110172
0.000147687
0.000144449
0.000172386
0.0107378
0.000148006
0.000147427
0.000147237
0.000194184
0.000144674
0.0293917
0.00016986
0.00017585
0.000267602
0.000494462
0.000146837
0.000250605
0.000143088
0.0209086
0.000165286
0.000157963
0.000148386
0.000148119
0.0260104
0.000149231
0.0213463
0.000147302
0.000183169
0.0110939
0.0591437
0.000201235
0.000149056
0.0123759
0.000149936
0.000146723
0.000159007
0.000226153
0.00014956
0.000208168
0.000179933
0.000149733
0.000161225
0.000149765
0.000149836
0.000148349
0.000148908
0.000147062
0.000192024
0.000148558
0.000172272
0.000152176
0.025851
0.00014994
0.000790394
0.000144714
0.000163233
0.000163013
0.000197396
0.000170611
0.000175623
0.000159754
0.000156577
0.000149862
0.000160219
0.000199818
0.000156435
0.000146303
0.000144601
0.0670787
0.000184979
0.000170496
0.000146854
0.000146441
0.00019691
0.000187609
0.0206476
0.0351508
0.000198397
0.000177962
0.0598685
0.000144388
0.000149312
0.00560301
0.00016501
0.000230765
0.000183285
0.000148458
0.000146579
0.000191017
0.000145327
0.0169185
0.000153697
0.000180066
0.00014541
0.000204087
0.000149047
0.00354352
0.000146696
0.000146717
0.000172275
0.000199853
0.000206462
0.0388009
0.000171172
0.020547
0.000156603
0.000171081
0.0202399
0.000165336
0.000212599
0.000149871
0.000145174
0.000191099
0.0257273
0.000181909
0.000153763
0.000146805
0.000178885
0.000149802
0.032956
0.0133749
0.000147329
0.000149398
0.000147452
0.000158945
0.000759123
0.000149511
0.0148976
0.000285754
0.0299546
0.000166801
0.000149684
0.000148878
0.00143841
0.000146903
0.00251696
0.000153815
0.000167176
0.000147702
0.000148071
0.000181891
0.000176827
0.00140105
0.000224734
0.000167462
0.000144179
0.00014915
0.000149327
0.0141607
0.000188324
0.00970058
0.000148809
0.0362549
0.000204082
0.000175091
0.000150558
0.000150213
0.000148313
0.000149315
0.0369209
0.00017013
0.000144829
0.00019385
0.000263225
0.000159987
0.000170298
0.000160978
0.000147292
0.000248439
0.000148973
0.000167107
0.000148623
0.000175247
0.000172626
0.0001475
0.0251965
0.000151583
0.0180599
0.000145597
0.000148884
0.000144951
0.0213703
0.044902
0.000159368
0.000205276
0.000190596
0.000149844
0.000152161
0.000148666
0.070046
0.0115156
0.000197001
0.000231222
0.000148583
0.000152596
0.0135195
0.000153261
0.000161331
0.00259872
0.000154185
0.000154782
0.0368524
0.000192792
0.0687296
0.000152538
0.000170671
0.00015154
0.00041148
0.0278953
0.000148654
0.000152474
0.0313722
0.000192525
0.000177961
0.000150951
0.0218942
0.0371078
0.000148401
0.000177859
0.000144087
0.000147796
0.0317862
0.000147851
0.000171298
0.000162741
0.000206598
0.00014821
0.000148413
0.000144881
0.000164147
0.000153736
0.0130376
0.0624459
0.000170172
0.00191364
0.000145474
0.000146786
0.000149034
0.00014808
0.000164199
0.000159606
0.0272601
0.000164036
0.000150697
0.000178687
0.000144609
0.000147032
0.00014649
0.000244246
0.0373427
0.0270472
0.0001472
0.000166979
0.0187771
0.000148001
0.000147016
0.00015117
0.0551052
0.0194541
0.000150313
0.00019173
0.000171524
0.000155874
0.000154595
0.000148622
0.000194258
0.000192796
0.000166754
0.000233266
0.00259448
0.000148415
0.00014971
0.000160519
0.000147483
0.000181516
0.000152581
0.000188434
0.0001487
0.0141984
0.0355829
0.000150244
0.000147929
0.00015281
0.000144733
0.000192415
0.000146215
0.000148961
0.000146864
0.000192402
0.00014795
0.000207735
0.000149872
0.00014909
0.00407763
0.000164927
0.000148386
0.000205728
0.0191331
0.000233483
0.000147405
0.0586499
0.000148113
0.000145632
0.000149916
0.000163292
0.00015334
0.000167246
0.000176636
0.000158224
0.000148763
0.000144767
0.0401246
0.000191536
0.0297251
0.000285667
0.000145897
0.0522174
0.000182428
0.000152074
0.000149077
0.000190607
0.0151199
0.000147433
0.000265342
0.0680502
0.0674946
0.000163201
0.000148674
0.000165352
0.000155101
0.000149299
0.000146718
0.000186151
0.00014902
0.000146175
0.000149761
0.046811
0.0206279
0.0223239
0.0233234
0.000164795
0.000145287
0.0406741
0.000268863
0.000193819
0.000144939
0.000147581
0.000147906
0.000160878
0.000156352
0.000171978
0.000146435
0.000161587
0.0292315
0.000158448
0.000158495
0.000191445
0.000169736
0.00014976
0.0245028
0.000145761
0.0394618
0.000148028
0.017329
0.0295684
0.000199579
0.000176506
0.00014616
0.000145932
0.000148197
0.000147647
0.000145382
0.00128716
0.0509118
0.000149349
0.000171317
0.000195606
0.000154876
0.000148689
0.000816127
0.000156835
0.0199835
0.0162029
0.0498116
0.000175398
0.000148458
0.000146931
0.0524494
0.000144588
0.000148102
0.000158925
0.000207995
0.000155446
0.000148499
0.000206143
0.000203279
0.000217956
0.025223
0.0553509
0.000146483
0.00014677
0.000205358
0.00014543
0.000148651
0.000146087
0.000229188
0.000205779
0.000149238
0.000159987
0.0126801
0.000148251
0.000176111
0.00021329
0.000148361
0.000148937
0.000179122
0.000159615
0.00016705
0.0190962
0.000193306
0.00014969
0.000149045
0.000143279
0.0273234
0.000145645
0.0486309
0.000148089
0.00215621
0.000149595
0.000149708
0.00015531
0.000151336
0.000199973
0.0258411
0.000242121
0.000173581
0.000147504
0.000172238
0.000148506
0.000176899
0.000242832
0.00014451
0.000178669
0.000149338
0.000145135
0.000149195
0.0301995
0.000190812
0.000149084
0.000152304
0.000189024
0.000149887
0.000206063
0.00271177
0.0316446
0.00878553
0.000151566
0.000188169
0.000148226
0.0211302
0.000155982
0.000149301
0.0249409
0.000157298
0.0058058
0.000149187
0.000192732
0.000167911
0.000149884
0.0169977
0.0230388
0.000168331
0.0338601
0.0437606
0.0317234
0.00015974
0.00035894
0.000148541
0.000148749
0.000196257
0.0479104
0.000169879
0.00014868
0.000145109
0.000148346
0.000149201
0.000148552
0.0471653
0.028179
0.000147575
0.000238799
0.000156378
0.000162127
0.0418223
0.0231892
0.000145834
0.000147081
0.000165811
0.0205224
0.00014948
0.00596935
0.000146291
0.000145361
0.000158139
0.000145012
0.000290895
0.000144572
0.0427723
0.018245
0.000153704
0.000178035
0.000152769
0.000181497
0.000147947
0.000154306
0.0214715
0.000246389
0.000148004
0.0001993
0.000154174
0.0209876
0.0001919
0.000146321
0.000151194
0.0646306
0.0363391
0.000263201
0.000146466
0.000153968
0.000387796
0.0661107
0.000157717
0.000159295
0.000241806
0.000161447
0.000154084
0.022145
0.000191512
0.000188674
0.000258957
0.000149892
0.000151038
0.000146437
0.0261649
0.000151344
0.000150135
0.0587178
0.000149739
0.000149324
0.000148907
0.000195443
0.000148486
0.0483326
0.000148513
0.000179431
0.000158238
0.000191783
0.000157031
0.00016451
0.000155
0.000194501
0.0364908
0.0214671
0.000148245
0.0597687
0.000157831
0.000195062
0.000157654
0.00015895
0.000149756
0.000157923
0.000146555
0.015954
0.000202854
0.000150285
0.000147233
0.000149844
0.000164826
0.000144617
0.000160329
0.00386442
0.00015029
0.000163895
0.0116913
0.00153015
0.000157471
0.000232703
0.000149535
0.000144606
0.000148999
0.000171467
0.000147879
0.000147227
0.000146297
0.000148743
0.000145341
0.0177887
0.000154907
0.0437647
0.0350922
0.000149871
0.000196964
0.000148506
0.000158451
0.014591
0.000892209
0.034232
0.000147462
0.000162197
0.00014431
0.00014484
0.011197
0.000168324
0.000208031
0.000144556
0.000146854
0.000147976
0.000153425
0.000328418
0.000195546
0.000146923
0.00014994
0.000149394
0.00217607
0.000192475
0.000147785
0.003474
0.00125243
0.0228743
0.000158199
0.000184927
0.000193494
0.000146308
0.000146121
0.000148454
0.000147051
0.00724891
0.0533035
0.000192874
0.000159954
0.000206945
0.000265488
0.000158032
0.000148359
0.000147996
0.000221985
0.000159758
0.000169883
0.000160105
0.000148078
0.000165189
0.000159753
0.000153817
0.000150937
0.0546734
0.0279483
0.000146286
0.000165635
0.000151075
0.00014562
0.000149796
0.0336564
0.00014783
0.000203832
0.000163148
0.000151088
0.000149159
0.000147955
0.00320115
0.000149873
0.000177622
0.0648445
0.0427007
0.0001464
0.000183297
0.000151558
0.000149687
0.000145353
0.000154183
0.000148824
0.000175724
0.000147948
0.000524044
0.000155848
0.000147817
0.00015137
0.000166844
0.000159392
0.000158226
0.00015926
0.000159086
0.000144773
0.000144203
0.000173192
0.000147088
0.000710739
0.000149697
0.000187433
0.0394671
0.0388279
0.00014681
0.000211386
0.000165273
0.0466564
0.0493739
0.000303461
0.0213823
0.000144847
0.0560005
0.00015105
0.000153168
0.000210256
0.0457483
0.000170355
0.00180986
0.000146965
0.000154837
0.000215546
0.000203766
0.0374844
0.000265402
0.000180863
0.000156685
0.0256472
0.000154759
0.000247206
0.00014883
0.00017902
0.000217112
0.000152653
0.00018369
0.000144131
0.000148563
0.000174719
0.000148404
0.0380349
0.000159767
0.000148524
0.000221047
0.0276613
0.000144949
0.0243974
0.000154633
0.000145934
0.0350172
0.0465391
0.000150943
0.000147158
0.000148809
0.000191631
0.000154265
0.0518235
0.025182
0.000205192
0.0522753
0.000149022
0.000173709
0.000149681
0.0250744
0.000148204
0.000224613
0.0424657
0.00019478
0.0290702
0.000147357
0.000146339
0.000143257
0.000148294
0.000149757
0.000160745
0.0624613
0.000154316
0.000174508
0.000874963
0.0332234
0.0301483
0.022926
0.000147101
0.000147136
0.000165299
0.000151003
0.0240198
0.000170313
0.000146401
0.0571622
0.0304293
0.000149962
0.000148589
0.000146148
0.0106505
0.000156625
0.000147057
0.000147454
0.000148796
0.00014846
0.000147718
0.000145331
0.000202142
0.000144203
0.000318535
0.00018854
0.00015317
0.000159507
0.000153464
0.000148403
0.000173839
0.000149763
0.000149872
0.000166773
0.000255208
0.000146362
0.000166237
0.000152083
0.000168546
0.0573893
0.000144747
0.000163309
0.00014778
0.0114338
0.000151218
0.0250073
0.00133618
0.0367836
0.0691908
0.000264024
0.000194058
0.000432303
0.0565277
0.000151057
0.0635546
0.000148223
0.000209934
0.0382312
0.000175981
0.00014596
0.000149315
0.000145749
0.0697905
0.000180572
0.000144961
0.000144562
0.000147572
0.000191608
0.000204623
0.000149266
0.00017838
0.0555714
0.000145237
0.000186342
0.0001466
0.000147354
0.000147774
0.00015834
0.0697779
0.000216819
0.000220974
0.000202991
0.0687754
0.00019378
0.0013296
0.0329447
0.000241914
0.0619015
0.000146856
0.000188454
0.000148795
0.000149378
0.000148867
0.000161288
0.000148108
0.000151592
0.00672448
0.000152655
0.000154515
0.000154863
0.000161235
0.000146153
0.000200278
0.000149707
0.000149935
0.000193246
0.000170267
0.0300693
0.00016306
0.000152661
0.00017248
0.070556
0.0112749
0.000149409
0.000196819
0.000152403
0.000166488
0.000148614
0.000149582
0.000153818
0.0497358
0.000166334
0.000291143
0.000158226
0.0110461
0.0542148
0.0522994
0.0210488
0.000147547
0.000146309
0.0611667
0.000174429
0.000169591
0.0270865
0.000148755
0.000145022
0.000149836
0.000151854
0.00018724
0.0185206
0.000182578
0.000144888
0.000146428
0.000148634
0.000175955
0.000249868
0.000148161
0.000160929
0.000176496
0.000148021
0.000167587
0.000209203
0.0333693
0.0318174
0.00014735
0.000173518
0.0448341
0.000174393
0.000158571
0.00017089
0.030122
0.000149109
0.000144028
0.000145681
0.00014608
0.000151795
0.0121683
0.000144049
0.000148501
0.000171713
0.000158671
0.0206807
0.000153641
0.000156632
0.000160482
0.000163476
0.000149145
0.0435565
0.000149075
0.000149758
0.000191692
0.000163365
0.000146651
0.000149769
0.000170254
0.0487165
0.000158099
0.000154316
0.000188387
0.000170003
0.000154973
0.0321444
0.0304673
0.000158626
0.000150737
0.000150551
0.0166099
0.000215404
0.000160192
0.000176643
0.000144618
0.000183473
0.000146757
0.000156922
0.0201989
0.000157439
0.000169303
0.00015366
0.000496806
0.000177956
0.000148898
0.000195121
0.000191521
0.000149663
0.000179909
0.000148785
0.000170588
0.018897
0.0167971
0.000694895
0.00017089
0.000236151
0.000198668
0.000180105
0.000148257
0.000148112
0.000156524
0.000164832
0.0588603
0.000160456
0.000150093
0.000148894
0.0593616
0.000181255
0.0641278
0.000151711
0.000146439
0.0114281
0.0565509
0.000148098
0.000149508
0.000145874
0.000162004
0.000174528
0.00015118
0.0001573
0.000163601
0.000158891
0.0257785
0.000147982
0.000156143
0.0388479
0.000144744
0.000176978
0.000143927
0.000157826
0.0592142
0.000157504
0.000164972
0.000145704
0.000146817
0.000191787
0.000149198
0.000148129
0.00014844
0.000163367
0.00018917
0.000157621
0.000170618
0.000147995
0.000146366
0.000162404
0.030047
0.0436684
0.000157712
0.0192586
0.000157942
0.000154534
0.000154207
0.0129448
0.000153775
0.000149079
0.000148348
0.000190377
0.000161912
0.000184093
0.000149985
0.000148408
0.0105791
0.000151116
0.00014965
0.0380632
0.000157528
0.000148555
0.000144753
0.000164273
0.0214994
0.0221926
0.000145896
0.00016026
0.00015417
0.000146759
0.000145323
0.000163743
0.000158868
0.000186197
0.000144985
0.00016636
0.000165848
0.0193994
0.000159092
0.0668889
0.000207248
0.000151293
0.0221011
0.000276605
0.000207137
0.000165596
0.000164955
0.00014906
0.000148841
0.000159557
0.0356209
0.000381471
0.000148718
0.0582392
0.000148783
0.0001648
0.000173107
0.000159615
0.000149005
0.000229282
0.0503296
0.000143483
0.000148066
0.000163878
0.000147622
0.000159537
0.000184725
0.00141053
0.000162947
0.000149867
0.000144919
0.000173519
0.000166302
0.00019708
0.00015356
0.000204385
0.000160124
0.000195971
0.000173106
0.000200707
0.0001946
0.00018118
0.000201436
0.0184852
0.000157033
0.000519459
0.000157026
0.000193226
0.000148447
0.000145037
0.000161077
0.000147687
0.000177682
0.000243166
0.000169136
0.000157707
0.0503394
0.000165599
0.000157887
0.038747
0.000146314
0.000358776
0.000172225
0.000149876
0.0436967
0.000207038
0.000172906
0.000172862
0.0218661
0.000161406
0.000149594
0.000174015
0.00016587
0.0208307
0.000171252
0.000164751
0.000165016
0.000158329
0.000182521
0.000176162
0.000241634
0.0025609
0.000154214
0.000146281
0.000150073
0.0473069
0.000163043
0.00015318
0.000157298
0.022714
0.000161257
0.0001485
0.000164437
0.000146326
0.000148412
0.000157009
0.00019355
0.000147944
0.0185574
0.000149693
0.000146633
0.000174926
0.000161433
0.0179032
0.000147504
0.000151284
0.0547844
0.0001637
0.000148125
0.0346796
0.0190779
0.000158054
0.00020564
0.000155308
0.000163807
0.03003
0.00016269
0.000909315
0.000205727
0.000172316
0.000165568
0.000165271
0.000145845
0.000148182
0.000146128
0.000166551
0.000212058
0.046169
0.000159839
0.000175483
0.000147434
0.000145784
0.000152427
0.043987
0.000156887
0.00016249
0.000154743
0.000148723
0.015001
0.000148694
0.000144371
0.000215978
0.000149574
0.000148003
0.000146748
0.000149486
0.000153129
0.019909
0.000191693
0.00014897
0.00014408
0.00017048
0.000153033
0.000154499
0.0238122
0.000424703
0.0414844
0.000148161
0.000176006
0.0368765
0.0696498
0.000219274
0.00751772
0.000155838
0.000147999
0.0208428
0.000164433
0.0314605
0.000152038
0.000148076
0.000152007
0.00015299
0.0223377
0.0192921
0.000154497
0.000163309
0.000214806
0.000149424
0.00423262
0.0624464
0.000151685
0.000176273
0.0640618
0.000147308
0.000206359
0.0374155
0.000149736
0.00014713
0.0394749
0.000147868
0.000148442
0.000155077
0.0236044
0.021817
0.000146034
0.000163766
0.000150783
0.0249401
0.000205381
0.000148511
0.000145287
0.0278604
0.0347862
0.0438633
0.000144828
0.000145876
0.000148372
0.000176553
0.000165571
0.000158425
0.000146716
0.00015718
0.0407199
0.000176404
0.000145943
0.0461653
0.000163767
0.000146112
0.00015314
0.000159567
0.000148537
0.000193449
0.000167672
0.0410639
0.00017668
0.00016479
0.0185247
0.000161307
0.000194219
0.0215369
0.000166026
0.0458435
0.000162999
0.0415492
0.0393333
0.0180298
0.000164003
0.0663153
0.000201456
0.00014656
0.000156452
0.000185791
0.000173833
0.000161389
0.0547056
0.000153268
0.000145978
0.000159364
0.000144763
0.00014751
0.000155753
0.000187165
0.000191922
0.000163783
0.00539517
0.000148939
0.000153905
0.000146242
0.000148412
0.000177926
0.000152517
0.000153157
0.000149656
0.000148501
0.000212429
0.000146657
0.000148847
0.000179107
0.000153415
0.032417
0.000172005
0.00026972
0.000163658
0.000153534
0.000150499
0.000192639
0.000148033
0.0466193
0.0214935
0.000151931
0.000148654
0.0448936
0.000201408
0.00020089
0.0248093
0.000144137
0.000148036
0.000156312
0.000552281
0.000153606
0.000148922
0.000168616
0.000164681
0.0156071
0.039738
0.000628279
0.000186855
0.000149465
0.000749095
0.000151534
0.000156987
0.000147689
0.000156912
0.000186572
0.000176176
0.000246461
0.00014728
0.000157626
0.000156752
0.000148109
0.0193889
0.000164128
0.000156737
0.000345526
0.000246376
0.000147652
0.000145872
0.000156467
0.0456038
0.000144261
0.0001759
0.000158039
0.000151045
0.00017224
0.000169266
0.000152655
0.0292357
0.000149401
0.000191474
0.000163616
0.000178722
0.000169298
0.000152986
0.000370434
0.000168134
0.000149251
0.000160246
0.000175542
0.000146066
0.000168445
0.000162868
0.0275502
0.000149573
0.007817
0.00014803
0.000162341
0.00016196
0.000146655
0.0220671
0.000185152
0.000145828
0.000174992
0.000148473
0.000149074
0.000146988
0.000152359
0.000157568
0.000174588
0.000149871
0.000155471
0.000181467
0.000166576
0.000179179
0.000174005
0.000146299
0.000150462
0.000146233
0.000169315
0.000146607
0.000154587
0.000200867
0.000190765
0.0001482
0.000148428
0.000147693
0.000186725
0.000148964
0.000154039
0.000194535
0.000158893
0.00795959
0.000198908
0.000149708
0.000177321
0.0311578
0.000148664
0.000148109
0.0346463
0.000172084
0.000170385
0.000148691
0.000145413
0.000143551
0.000151897
0.0332447
0.0266514
0.000148169
0.000190064
0.00017097
0.00015668
0.000146129
0.000149489
0.0283543
0.000149127
0.000147854
0.0120622
0.000670759
0.000145059
0.000144762
0.000148005
0.0319173
0.000152048
0.000150501
0.0284203
0.0246515
0.000147176
0.000160686
0.000148911
0.000195019
0.000205929
0.000148088
0.0631372
0.000155751
0.000183755
0.000146964
0.00036004
0.0311407
0.000180241
0.0257849
0.0440546
0.000144067
0.0248556
0.000148029
0.00014722
0.0174418
0.000149588
0.000196763
0.000159613
0.00383732
0.000148099
0.00695385
0.0334149
0.000147919
0.000149774
0.000191991
0.0180602
0.000154695
0.000148769
0.000159839
0.000186227
0.000160683
0.000146988
0.0273564
0.00015087
0.000158774
0.000151886
0.000174515
0.0260029
0.000146683
0.030269
0.000182692
0.000209086
0.000149563
0.000151615
0.000177232
0.000203894
0.0675952
0.00014697
0.000148182
0.000145839
0.000410072
0.000201185
0.0231213
0.0708071
0.000188672
0.000145841
0.000149052
0.000147554
0.0461196
0.000147317
0.026775
0.060388
0.000149235
0.00019301
0.000171014
0.000167555
0.000185852
0.000147939
0.000146213
0.000235186
0.00124354
0.000146158
0.000150594
0.0415947
0.000241835
0.000156464
0.000272808
0.000150781
0.000150148
0.0498325
0.0664118
0.00014863
0.000153111
0.000145929
0.0229241
0.0683278
0.00014628
0.00014718
0.000150807
0.000148208
0.000159501
0.000156065
0.000148225
0.0383036
0.000197381
0.000159088
0.000153643
0.00432592
0.000146132
0.000148903
0.000147798
0.0351849
0.000201295
0.000149222
0.000147639
0.0210259
0.000158902
0.0491954
0.000149226
0.0339239
0.0521172
0.000171158
0.000146174
0.000149157
0.000147279
0.000162723
0.000224402
0.000193604
0.000278422
0.000162622
0.000148653
0.000221526
0.00423574
0.0176407
0.000160741
0.000146832
0.000146299
0.000143552
0.000205617
0.00420016
0.000152722
0.000160147
0.000147186
0.000148375
0.00014703
0.000174772
0.00014773
0.000189147
0.000145741
0.00018154
0.0375956
0.0474546
0.0176252
0.000205907
0.000148409
0.000158528
0.000186808
0.000170567
0.000153484
0.000156989
0.000148324
0.000147708
0.000154928
0.000146737
0.000146881
0.000179808
0.000145389
0.000161444
0.0218291
0.000148974
0.000158211
0.000195778
0.000149762
0.0545687
0.000168879
0.000158583
0.000148427
0.000143776
0.000337286
0.000148192
0.000154423
0.000145745
0.000148111
0.000148994
0.000249124