/*--------------------------------*- C++ -*----------------------------------*\
| =========                 |                                                 |
| \\      /  F ield         | OpenFOAM: The Open Source CFD Toolbox           |
|  \\    /   O peration     | Version:  v2012                                 |
|   \\  /    A nd           | Website:  www.openfoam.com                      |
|    \\/     M anipulation  |                                                 |
\*---------------------------------------------------------------------------*/
FoamFile
{
    version     2.0;
    format      ascii;
    class       volScalarField;
    location    "400";
    object      k_0;
}
// * * * * * * * * * * * * * * * * * * * * * * * * * * * * * * * * * * * * * //

dimensions      [0 2 -2 0 0 0 0];


internalField   nonuniform List<scalar> 
14804
(
0.0233233
0.000146405
0.000189486
0.000161325
0.000166357
0.000180202
0.000151406
0.000148691
0.000191308
0.000149166
0.00023606
0.000190939
0.000149398
0.000167061
0.000200426
0.0548729
0.000167147
0.000159936
0.00533346
0.00017386
0.00014994
0.000154049
0.000162585
0.000150273
0.0169213
0.000150263
0.000166397
0.000166209
0.0212499
0.000150415
0.000146332
0.000161195
0.000173823
0.000170212
0.000189463
0.000151413
0.000680149
0.000149579
0.0322594
0.000173426
0.000189494
0.000188379
0.000177995
0.000147663
0.000166303
0.000151373
0.00512418
0.000149203
0.00015444
0.000215509
0.000149493
0.000145937
0.000148069
0.000154537
0.000230654
0.00571983
0.000234644
0.0201697
0.000148736
0.000151474
0.0117952
0.000149642
0.000147648
0.00894486
0.000147637
0.000148212
0.000149873
0.000150876
0.000148231
0.0354862
0.000146853
0.000165405
0.000244907
0.0405266
0.000150077
0.0357654
0.0485999
0.00014636
0.000164706
0.000144128
0.0448176
0.000148201
0.000144343
0.000150102
0.000149687
0.000200373
0.000145443
0.000152132
0.000145966
0.000166141
0.000165325
0.000153092
0.00018636
0.000146309
0.00021731
0.0508482
0.0217903
0.00016053
0.000149856
0.000254403
0.0207841
0.0355007
0.000149755
0.000169193
0.000206392
0.0366045
0.000190671
0.000205064
0.000148363
0.000146502
0.000147826
0.021425
0.000186542
0.0260134
0.0213488
0.0398531
0.00021321
0.000166078
0.000149658
0.00016036
0.0481242
0.000145981
0.000153089
0.000170905
0.000148783
0.000149697
0.000213334
0.000168216
0.000163517
0.000165253
0.000165096
0.000201905
0.0305331
0.00023586
0.00272028
0.000170359
0.000147704
0.00215357
0.00014995
0.000170436
0.000147082
0.0441262
0.000148659
0.0246721
0.0259392
0.000148339
0.000205528
0.000148371
0.000225721
0.00658632
0.000191312
0.00724783
0.000174078
0.000169322
0.00014427
0.0220506
0.000164465
0.000258472
0.0200294
0.000244701
0.000146877
0.000147488
0.0309475
0.0086125
0.000155827
0.022184
0.000149331
0.0123758
0.000150296
0.000148686
0.00025188
0.000154471
0.000195518
0.000198422
0.000991679
0.000245576
0.000161099
0.000172407
0.000144874
0.000248974
0.000180212
0.0556249
0.000150937
0.000157061
0.000152775
0.0221893
0.000179384
0.000178258
0.000157881
0.00014463
0.000176996
0.00776803
0.000148523
0.00284597
0.000161951
0.000147215
0.03472
0.00014926
0.000177922
0.0158216
0.0259503
0.000144598
0.000153074
0.000188394
0.000151086
0.0188428
0.000163764
0.000407525
0.000167068
0.000151494
0.000150308
0.0111907
0.000151066
0.000146875
0.000150618
0.000150165
0.000168509
0.00014724
0.000148153
0.000147535
0.000157079
0.000187659
0.000178008
0.0001541
0.000147221
0.00029564
0.000173492
0.0024191
0.0304602
0.000153589
0.000146318
0.000152685
0.000148169
0.0355217
0.0402014
0.000149751
0.000151248
0.000205385
0.000197191
0.0001563
0.0411103
0.000202475
0.000149805
0.000147598
0.000145771
0.00020219
0.000159673
0.00015571
0.000162554
0.00014676
0.0457124
0.000147207
0.000147136
0.000146389
0.0275304
0.000150904
0.000144672
0.000154242
0.000146717
0.000148432
0.00985649
0.00015792
0.00016346
0.000149048
0.000360973
0.000149614
0.000163239
0.000145611
0.0190705
0.0127117
0.0539108
0.0597951
0.000149778
0.000148762
0.0491916
0.000202989
0.000152355
0.0227433
0.000170153
0.0364589
0.000205997
0.00014657
0.0147982
0.0115388
0.0498111
0.000638319
0.00017082
0.000152313
0.000157806
0.000216109
0.000147155
0.000149292
0.000153959
0.00015024
0.00017915
0.00026873
0.000203602
0.000163349
0.000147241
0.000157873
0.000145471
0.000146616
0.000158995
0.000173753
0.000164232
0.000150707
0.0171032
0.0369602
0.000198467
0.0244959
0.0173195
0.000150289
0.00015591
0.000156056
0.0276964
0.000150666
0.0094088
0.000212326
0.000143853
0.0506021
0.000204232
0.000210384
0.00181737
0.0156348
0.000149685
0.000172974
0.000211023
0.00014879
0.00083015
0.0227046
0.000169132
0.000166447
0.000160789
0.000155385
0.000148466
0.000146118
0.000146681
0.0262325
0.000150527
0.000195478
0.00015395
0.000149735
0.000160159
0.000149498
0.000146318
0.0238086
0.0504023
0.0339274
0.000192681
0.0303046
0.0226309
0.000154218
0.000148136
0.000145563
0.000150501
0.000205101
0.00014945
0.00575438
0.000144543
0.000147102
0.00015036
0.00019823
0.0001856
0.000195254
0.0621501
0.0392882
0.000152056
0.000164863
0.000178548
0.000147327
0.000153207
0.000149044
0.000164397
0.000150452
0.000146309
0.0322756
0.00014571
0.000149741
0.0304594
0.000259716
0.00104297
0.000160542
0.000175975
0.0527514
0.000159668
0.000147267
0.0559451
0.000151363
0.000148528
0.0553368
0.00015731
0.000144795
0.000150335
0.000154458
0.0266331
0.000153319
0.000218512
0.00016576
0.0655317
0.000149107
0.000196987
0.000147517
0.000207349
0.0268661
0.000164802
0.000154105
0.000219164
0.000149407
0.000173286
0.000149766
0.000147422
0.000159401
0.0386881
0.000149147
0.000150338
0.000326029
0.000148585
0.000160578
0.000150265
0.0230709
0.000214306
0.000179079
0.000145061
0.0310578
0.000153984
0.000166367
0.0608634
0.00016352
0.000158181
0.000145723
0.000152365
0.000150114
0.000262926
0.000148379
0.000151445
0.000148331
0.000145457
0.0233888
0.000147138
0.000150244
0.000172193
0.0486327
0.000146577
0.000149604
0.000145495
0.000157803
0.0275529
0.0303992
0.000203183
0.000153073
0.0343933
0.000153132
0.00014966
0.000149752
0.000148866
0.000147491
0.000158942
0.0338777
0.000154515
0.000149693
0.0049509
0.00014545
0.000260766
0.000221403
0.000166948
0.00294224
0.000160655
0.0366979
0.000179211
0.000149729
0.000149692
0.000159235
0.000148584
0.000146539
0.029276
0.000161045
0.000149279
0.000163675
0.0213113
0.0497505
0.000170297
0.000159672
0.00015581
0.000187685
0.000149905
0.000156261
0.0344695
0.000148354
0.000146589
0.00016628
0.000156444
0.000493354
0.000169931
0.000145957
0.00016328
0.000149684
0.00014834
0.0120146
0.000170768
0.000147407
0.000195607
0.000150216
0.000147037
0.000165435
0.0457312
0.000148375
0.00014759
0.00014542
0.00014711
0.0141858
0.000148407
0.00014966
0.00505856
0.00014814
0.000149964
0.0652069
0.000148301
0.000521489
0.000143729
0.00021232
0.0101566
0.000276665
0.0001491
0.000148604
0.000165045
0.00015259
0.000143792
0.000151783
0.00014545
0.000162809
0.000145741
0.000165453
0.000166909
0.000150199
0.0501142
0.000186858
0.0463442
0.000154325
0.000143722
0.000196343
0.000148093
0.000158717
0.000208405
0.000158677
0.000207792
0.0344894
0.000147462
0.0696328
0.000192833
0.000154423
0.000154098
0.0672292
0.0595243
0.000144114
0.000146529
0.00014669
0.000207575
0.000188487
0.0590731
0.0460297
0.000147614
0.000178942
0.000177183
0.000405768
0.000165655
0.000157177
0.000158554
0.000146731
0.00020468
0.0600129
0.00016463
0.000175606
0.000143865
0.000146744
0.000147101
0.00016358
0.000145869
0.000211141
0.000148505
0.0056386
0.000229115
0.000161995
0.000170871
0.000146741
0.000147272
0.0341153
0.00015181
0.00598254
0.000146242
0.00014713
0.000146904
0.000149695
0.000176512
0.000160826
0.0419296
0.0442099
0.000148543
0.000149697
0.000159181
0.00019425
0.000170982
0.000159975
0.000146669
0.000284892
0.000152924
0.0217093
0.000145036
0.000238753
0.0138792
0.000145796
0.000147546
0.000170096
0.000149946
0.000143801
0.000169744
0.000150114
0.0137862
0.000178512
0.000337755
0.000147069
0.000230519
0.00193908
0.000170304
0.000149943
0.0141897
0.000146762
0.000212235
0.000148171
0.000149114
0.0102579
0.000192703
0.000324308
0.000178642
0.000159529
0.000144591
0.0414344
0.00014685
0.0145693
0.000294234
0.000159679
0.000145709
0.000147763
0.000165035
0.000159402
0.000149516
0.000185944
0.000171291
0.000165741
0.000148529
0.0504953
0.0446375
0.000226064
0.000147592
0.000165425
0.000144192
0.00014951
0.000163269
0.0183743
0.00015976
0.0364375
0.000164313
0.000199754
0.000205734
0.000148705
0.0609163
0.00926395
0.000146777
0.00016113
0.000197111
0.000160013
0.000160359
0.000155157
0.000160717
0.00211533
0.000145582
0.000170215
0.000146158
0.000149398
0.0224508
0.0518275
0.000173744
0.000148259
0.000144761
0.000144166
0.000152758
0.000162407
0.063614
0.000178583
0.000211765
0.00611865
0.000176956
0.000158994
0.0125696
0.000148619
0.0390503
0.000151686
0.000147011
0.000148135
0.000160177
0.0001813
0.000145396
0.000154348
0.000168995
0.000192947
0.000158724
0.000207609
0.000148333
0.000205793
0.000175511
0.000170113
0.000168011
0.000148959
0.000149167
0.0247783
0.0404141
0.000148615
0.000192643
0.000148258
0.000144679
0.000148536
0.000153125
0.000183329
0.000146399
0.000161905
0.000146859
0.000156054
0.000147767
0.000169588
0.000151825
0.000145765
0.000148388
0.000177674
0.000170518
0.00296187
0.000985659
0.000146838
0.000147538
0.000147163
0.0211826
0.000157024
0.000177954
0.0503002
0.000161108
0.000158524
0.0215182
0.000146978
0.000146901
0.000147453
0.000146699
0.000195686
0.000148293
0.000144681
0.000260668
0.000196731
0.000156053
0.000146477
0.023508
0.0456875
0.000176551
0.000156093
0.000160889
0.00155178
0.000176249
0.00832421
0.000263095
0.000192629
0.0193693
0.000152907
0.000161696
0.000221755
0.00014652
0.00028481
0.000151057
0.000149601
0.0621679
0.000164225
0.000171823
0.0148673
0.000193261
0.000147072
0.0212519
0.000146341
0.000151587
0.000154933
0.000152233
0.000149526
0.0369825
0.0600328
0.000166163
0.000203035
0.000155283
0.0148727
0.00333863
0.00016247
0.0495045
0.000151062
0.000146323
0.00014535
0.000148538
0.000148286
0.00698592
0.000161556
0.0508801
0.000215888
0.000149383
0.000178145
0.00016039
0.000146922
0.000149258
0.0531561
0.0111846
0.000150109
0.000177858
0.000149547
0.000147265
0.000170738
0.000154452
0.0444148
0.000201897
0.00212742
0.00507928
0.000158252
0.000206397
0.000148597
0.00664383
0.000195088
0.000146776
0.000158865
0.0107115
0.000147552
0.000167991
0.000145261
0.00617688
0.000168122
0.000149862
0.000149514
0.000146128
0.00014582
0.000155724
0.0228708
0.000146702
0.000146991
0.00015919
0.000149807
0.0417161
0.000170838
0.000147934
0.000144791
0.000148354
0.000162197
0.000148623
0.000147023
0.000204029
0.00108078
0.000147687
0.000144449
0.000172386
0.0107379
0.000148006
0.000147427
0.000147237
0.000194185
0.000144674
0.0293915
0.00016986
0.00017585
0.000268996
0.000494094
0.000146837
0.000250686
0.000143088
0.0209086
0.000165286
0.000157963
0.000148386
0.000148119
0.0260101
0.000149231
0.0213447
0.000147302
0.000183169
0.0110939
0.0591437
0.000201297
0.000149056
0.012376
0.000149936
0.000146723
0.000159007
0.000204039
0.00014956
0.000208275
0.000179933
0.000149733
0.000161225
0.000149765
0.000149836
0.000148349
0.000148908
0.000147062
0.000192028
0.000148558
0.000172271
0.000152176
0.0258893
0.00014994
0.000865913
0.000144714
0.000163216
0.000163013
0.000197406
0.000170611
0.000175623
0.000159754
0.000156577
0.000149862
0.000160219
0.000199799
0.000156435
0.000146303
0.000144601
0.0670786
0.000184979
0.000170496
0.000146854
0.000146441
0.000196905
0.000187609
0.0206474
0.0351509
0.000198394
0.000177963
0.0598683
0.000144388
0.000149312
0.00560297
0.00016501
0.000229675
0.000183285
0.000148458
0.000146579
0.000191021
0.000145327
0.0169186
0.000153697
0.000180066
0.00014541
0.000204097
0.000149047
0.0035845
0.000146696
0.000146717
0.000172276
0.000199824
0.000206473
0.0388009
0.000171175
0.0205456
0.000156602
0.000171085
0.0202399
0.000165336
0.000212571
0.000149871
0.000145174
0.000191103
0.0257272
0.000181909
0.000153763
0.000146805
0.000178896
0.000149802
0.0329558
0.0133749
0.000147329
0.000149398
0.000147452
0.000158945
0.00063813
0.000149511
0.0148976
0.000283498
0.0299544
0.000166801
0.000149684
0.000148878
0.00146372
0.000146903
0.00277189
0.000153815
0.000167176
0.000147702
0.000148071
0.000181891
0.000176827
0.00139298
0.000224197
0.000167458
0.000144179
0.00014915
0.000149327
0.0141608
0.000188326
0.00995407
0.000148809
0.0362543
0.000204071
0.000175093
0.000150558
0.000150213
0.000148313
0.000149315
0.0369214
0.00017013
0.000144829
0.000193851
0.000260153
0.000159987
0.000170298
0.000160978
0.000147292
0.000247485
0.000148973
0.000167107
0.000148623
0.000175247
0.000172625
0.0001475
0.0251965
0.000151583
0.0180599
0.000145597
0.000148884
0.000144951
0.0213703
0.0449021
0.000159368
0.000205089
0.000190595
0.000149844
0.000152161
0.000148666
0.070046
0.0115156
0.000196998
0.000231355
0.000148583
0.000152596
0.0135198
0.000153261
0.000161331
0.00260161
0.000154186
0.000154782
0.0368528
0.00019279
0.0687297
0.000152538
0.000170686
0.00015154
0.000411663
0.0278955
0.000148654
0.000152474
0.0313719
0.00019253
0.000177961
0.000150951
0.0218941
0.0371076
0.000148401
0.000177859
0.000144087
0.000147796
0.0317716
0.000147851
0.000171298
0.000162741
0.000206615
0.00014821
0.000148413
0.000144881
0.000164147
0.000153736
0.0130379
0.0624457
0.00017016
0.00191679
0.000145474
0.000146786
0.000149034
0.00014808
0.000164199
0.000159606
0.02726
0.000164036
0.000150697
0.000178689
0.000144609
0.000147032
0.00014649
0.000244407
0.0373428
0.0270474
0.0001472
0.000166979
0.0187772
0.000148001
0.000147016
0.00015117
0.0551044
0.0194541
0.000150313
0.000191729
0.000171524
0.000155874
0.000154595
0.000148622
0.000194261
0.000192789
0.000166754
0.00023353
0.0027104
0.000148415
0.00014971
0.00016052
0.000147483
0.000181517
0.000152581
0.000188435
0.0001487
0.0141984
0.0355828
0.000150244
0.000147929
0.00015281
0.000144733
0.000192414
0.000146215
0.000148961
0.000146864
0.000192405
0.00014795
0.000207831
0.000149872
0.00014909
0.00408092
0.000164927
0.000148386
0.000205739
0.0191331
0.000234593
0.000147405
0.0586503
0.000148113
0.000145632
0.000149916
0.000163292
0.00015334
0.000167241
0.000176636
0.000158224
0.000148763
0.000144767
0.0401246
0.000191531
0.0297252
0.000287647
0.000145897
0.0522177
0.000182427
0.000152074
0.000149077
0.000190607
0.01512
0.000147433
0.000265474
0.0680502
0.0674941
0.000163202
0.000148674
0.000165352
0.000155101
0.000149299
0.000146718
0.00018615
0.00014902
0.000146175
0.000149761
0.0468114
0.020628
0.0223238
0.023324
0.000164795
0.000145287
0.0406743
0.00026271
0.000193818
0.000144939
0.000147581
0.000147906
0.000160878
0.000156352
0.000171975
0.000146435
0.000161587
0.0292314
0.000158448
0.000158495
0.000191446
0.000169739
0.00014976
0.024503
0.000145761
0.0394616
0.000148028
0.017329
0.0295684
0.000199541
0.000176506
0.00014616
0.000145932
0.000148197
0.000147647
0.000145382
0.00135137
0.0509114
0.000149349
0.000171349
0.000195595
0.000154876
0.000148689
0.000698796
0.000156835
0.0199509
0.0162029
0.0498116
0.000175401
0.000148458
0.000146931
0.05245
0.000144588
0.000148102
0.000158925
0.000208017
0.000155446
0.000148499
0.000206169
0.000203282
0.00021818
0.0252236
0.0553516
0.000146483
0.00014677
0.000205361
0.00014543
0.000148651
0.000146087
0.000229232
0.000205814
0.000149238
0.000159987
0.0126801
0.000148251
0.000176111
0.000213286
0.000148361
0.000148937
0.00017912
0.000159617
0.00016705
0.0190962
0.000193315
0.00014969
0.000149045
0.000143279
0.0273236
0.000145645
0.0486312
0.000148089
0.00215713
0.000149595
0.000149708
0.00015531
0.000151337
0.000200099
0.0258417
0.000241619
0.000173581
0.000147504
0.000172238
0.000148506
0.000176899
0.000242599
0.00014451
0.000178671
0.000149338
0.000145135
0.000149195
0.0301993
0.000190814
0.000149084
0.000152304
0.000189026
0.000149887
0.000206148
0.00270776
0.0316445
0.0087581
0.000151566
0.00018817
0.000148226
0.0211302
0.000155982
0.000149301
0.0249417
0.000157298
0.00580676
0.000149187
0.000192726
0.000167911
0.000149884
0.0169977
0.0230388
0.000168331
0.0338601
0.0437608
0.031723
0.00015974
0.000360574
0.000148541
0.000148749
0.000196268
0.0479103
0.000169879
0.00014868
0.000145109
0.000148346
0.000149201
0.000148552
0.0471654
0.0281791
0.000147575
0.0002395
0.000156378
0.000162127
0.0418225
0.0231892
0.000145834
0.000147081
0.000165808
0.0205224
0.00014948
0.00593047
0.000146291
0.000145361
0.000158139
0.000145012
0.000268758
0.000144572
0.0427726
0.018245
0.000153704
0.000178034
0.000152769
0.000181497
0.000147947
0.000154306
0.0214715
0.00024443
0.000148004
0.000199314
0.000154174
0.0209878
0.000191845
0.000146321
0.000151194
0.06463
0.0363389
0.000263058
0.000146466
0.000153968
0.000388079
0.0661093
0.000157717
0.000159296
0.000241061
0.000161448
0.000154084
0.0221452
0.000191506
0.000188642
0.000257865
0.000149892
0.000151038
0.000146437
0.0261653
0.000151344
0.000150135
0.0587181
0.000149739
0.000149324
0.000148907
0.000195444
0.000148486
0.0483325
0.000148513
0.00017943
0.000158238
0.000191781
0.000157031
0.000164514
0.000155
0.000194498
0.0364904
0.0214725
0.000148245
0.0597687
0.000157831
0.000195073
0.000157654
0.00015895
0.000149756
0.000157923
0.000146555
0.015954
0.000202771
0.000150285
0.000147233
0.000149844
0.000164824
0.000144617
0.000160329
0.00386593
0.00015029
0.000163895
0.0116914
0.0015185
0.000157471
0.000237848
0.000149535
0.000144606
0.000148999
0.000171467
0.000147879
0.000147227
0.000146297
0.000148743
0.000145341
0.0177889
0.000154907
0.0437645
0.0350922
0.000149871
0.000196973
0.000148506
0.000158451
0.014591
0.000868072
0.0342317
0.000147462
0.000162197
0.00014431
0.00014484
0.0111969
0.000168324
0.000208142
0.000144556
0.000146854
0.000147976
0.000153425
0.000332211
0.000195541
0.000146923
0.00014994
0.000149394
0.00218226
0.000192467
0.000147785
0.00345046
0.00115077
0.0229344
0.000158199
0.000184926
0.000193494
0.000146308
0.000146121
0.000148454
0.000147051
0.00706482
0.0533047
0.000192875
0.000159954
0.000206945
0.000263677
0.000158032
0.000148359
0.000147996
0.00022107
0.000159758
0.000169883
0.000160105
0.000148078
0.000165189
0.000159753
0.000153817
0.000150937
0.0546737
0.0279483
0.000146286
0.000165644
0.000151075
0.00014562
0.000149796
0.0336556
0.00014783
0.000203818
0.000163148
0.000151088
0.000149159
0.000147955
0.00320026
0.000149873
0.000177624
0.0648437
0.0427008
0.0001464
0.000183296
0.000151558
0.000149687
0.000145353
0.000154183
0.000148824
0.000175723
0.000147948
0.000524954
0.000155848
0.000147817
0.00015137
0.000166844
0.000159392
0.000158226
0.00015926
0.000159086
0.000144773
0.000144203
0.000173192
0.000147088
0.000657474
0.000149697
0.000187433
0.0394673
0.0388277
0.00014681
0.000211454
0.000165263
0.0466566
0.0493741
0.000303739
0.0213825
0.000144847
0.056001
0.00015105
0.000153168
0.00021029
0.045748
0.000170355
0.00176202
0.000146965
0.000154837
0.000215634
0.000203773
0.0374843
0.00026578
0.00018085
0.000156685
0.0256469
0.000154759
0.00024807
0.00014883
0.00017902
0.0002166
0.000152653
0.00018369
0.000144131
0.000148563
0.000174716
0.000148404
0.0380345
0.000159767
0.000148524
0.000220349
0.0276612
0.000144949
0.0243975
0.000154633
0.000145934
0.0350172
0.0465391
0.000150943
0.000147158
0.000148809
0.000191632
0.000154265
0.0518235
0.025182
0.000205195
0.0522755
0.000149022
0.000173713
0.000149681
0.0250746
0.000148204
0.000224737
0.042466
0.000194767
0.0290698
0.000147357
0.000146339
0.000143257
0.000148294
0.000149757
0.000160745
0.0624616
0.000154316
0.000174508
0.000875237
0.0332231
0.0301483
0.0229261
0.000147101
0.000147136
0.000165299
0.000151003
0.02402
0.000170313
0.000146401
0.0571625
0.030429
0.000149962
0.000148589
0.000146148
0.0106501
0.000156625
0.000147057
0.000147454
0.000148796
0.00014846
0.000147718
0.000145331
0.000202134
0.000144203
0.000319994
0.00018854
0.00015317
0.000159507
0.000153464
0.000148403
0.000173836
0.000149763
0.000149872
0.000166771
0.000255714
0.000146362
0.000166237
0.000152083
0.00016855
0.0573896
0.000144747
0.000163308
0.00014778
0.0113886
0.000151218
0.0250072
0.00131312
0.0367791
0.0691906
0.000263315
0.00019405
0.000404553
0.0565284
0.000151057
0.0635543
0.000148223
0.000209988
0.0382312
0.000175983
0.00014596
0.000149315
0.000145749
0.0697906
0.000180596
0.000144961
0.000144562
0.000147572
0.000191609
0.000204632
0.000149266
0.00017838
0.0555716
0.000145237
0.000186339
0.0001466
0.000147354
0.000147774
0.00015834
0.0697782
0.000217021
0.000221156
0.000203064
0.0687755
0.000193773
0.00137987
0.0329633
0.000244
0.0619014
0.000146856
0.000188452
0.000148795
0.000149378
0.000148867
0.000161288
0.000148108
0.000151592
0.00669492
0.000152655
0.000154515
0.000154863
0.000161235
0.000146153
0.000200277
0.000149707
0.000149935
0.000193247
0.000170267
0.0300698
0.00016306
0.000152661
0.00017248
0.0705561
0.0114892
0.000149409
0.000196791
0.000152403
0.000166489
0.000148614
0.000149582
0.000153818
0.0497364
0.000166334
0.000329477
0.000158226
0.0111041
0.0542144
0.0522996
0.0210488
0.000147547
0.000146309
0.0611669
0.000174429
0.000169589
0.0270868
0.000148755
0.000145022
0.000149836
0.000151854
0.000187241
0.0185206
0.000182578
0.000144888
0.000146428
0.000148634
0.000175957
0.000249573
0.000148161
0.000160929
0.000176496
0.000148021
0.000167589
0.000209153
0.0333693
0.0318533
0.00014735
0.000173518
0.0448346
0.000174397
0.000158571
0.000170898
0.0301219
0.000149109
0.000144028
0.000145681
0.00014608
0.000151795
0.0121682
0.000144049
0.000148501
0.000171713
0.000158671
0.0206808
0.000153641
0.000156632
0.000160482
0.00016348
0.000149145
0.0435565
0.000149075
0.000149758
0.000191693
0.000163365
0.000146651
0.000149769
0.000170254
0.0487164
0.000158099
0.000154316
0.000188386
0.000170005
0.000154973
0.0321434
0.030467
0.000158626
0.000150737
0.000150551
0.0166099
0.000215293
0.000160192
0.000176643
0.000144618
0.000183473
0.000146757
0.000156922
0.020199
0.000157439
0.000169302
0.00015366
0.000486423
0.000177956
0.000148898
0.000195119
0.000191522
0.000149663
0.000179909
0.000148785
0.000170588
0.0189749
0.0167972
0.000663112
0.000170893
0.00023715
0.000198655
0.000180105
0.000148257
0.000148112
0.000156524
0.000164832
0.0588605
0.000160456
0.000150093
0.000148894
0.0593625
0.000181253
0.0641273
0.000151711
0.000146439
0.0114281
0.056552
0.000148098
0.000149508
0.000145874
0.000162004
0.000174531
0.00015118
0.0001573
0.000163601
0.000158891
0.0257792
0.000147982
0.000156143
0.0388479
0.000144744
0.00017698
0.000143927
0.000157826
0.0592135
0.000157504
0.000164972
0.000145704
0.000146817
0.000191786
0.000149198
0.000148129
0.00014844
0.000163367
0.000189171
0.000157621
0.000170617
0.000147995
0.000146366
0.000162404
0.0300459
0.0436689
0.000157712
0.0192587
0.000157942
0.000154534
0.000154207
0.0129024
0.000153775
0.000149079
0.000148348
0.000190345
0.000161912
0.000184093
0.000149985
0.000148408
0.0105791
0.000151116
0.00014965
0.0380628
0.000157528
0.000148555
0.000144753
0.000164273
0.0214619
0.0221925
0.000145896
0.00016026
0.00015417
0.000146759
0.000145323
0.000163743
0.000158867
0.000186197
0.000144985
0.00016636
0.000165848
0.0193994
0.000159092
0.0668881
0.000207251
0.000151293
0.0221013
0.000278684
0.000207035
0.000165596
0.000164955
0.00014906
0.000148841
0.000159557
0.0356205
0.000382538
0.000148718
0.0582395
0.000148783
0.0001648
0.000173104
0.000159615
0.000149005
0.000231085
0.050325
0.000143483
0.000148066
0.000163878
0.000147622
0.000159537
0.000184725
0.00131755
0.000162947
0.000149867
0.000144919
0.000173517
0.000166302
0.000197085
0.00015356
0.000204364
0.000160125
0.000195969
0.000173107
0.000200641
0.000194582
0.000181181
0.000201444
0.0184852
0.000157033
0.000528027
0.000157026
0.000193226
0.000148447
0.000145037
0.000161085
0.000147687
0.000177682
0.00024486
0.000169136
0.000157707
0.0503405
0.000165599
0.000157887
0.0387471
0.000146314
0.000363487
0.000172234
0.000149876
0.0436969
0.000207068
0.000172914
0.000172859
0.0218671
0.000161404
0.000149594
0.000174013
0.00016587
0.0208307
0.000171251
0.000164751
0.000165016
0.000158329
0.000182521
0.000176165
0.000244548
0.0025595
0.000154214
0.000146281
0.000150073
0.0473078
0.000163043
0.00015318
0.000157298
0.0227713
0.000161257
0.0001485
0.000164437
0.000146326
0.000148412
0.000157009
0.000193559
0.000147944
0.0185574
0.000149693
0.000146633
0.000174927
0.000161433
0.0179029
0.000147504
0.000151284
0.0547855
0.0001637
0.000148125
0.0346795
0.019078
0.000158054
0.000205617
0.000155308
0.000163807
0.0300298
0.00016269
0.000966851
0.000205403
0.000172316
0.000165568
0.000165271
0.000145845
0.000148182
0.000146128
0.000166551
0.000211445
0.046169
0.000159839
0.000175483
0.000147434
0.000145784
0.000152427
0.0439871
0.000156887
0.00016249
0.000154743
0.000148723
0.015001
0.000148694
0.000144371
0.000216097
0.000149574
0.000148003
0.000146748
0.000149486
0.000153129
0.0199088
0.000191693
0.00014897
0.00014408
0.00017048
0.000153033
0.000154499
0.0238121
0.000417082
0.0414846
0.000148161
0.000176005
0.0368765
0.0696505
0.000219023
0.00800341
0.000155838
0.000147999
0.0208426
0.000164433
0.0314599
0.000152038
0.000148076
0.000152007
0.00015299
0.0223377
0.0192919
0.000154497
0.000163309
0.000214921
0.000149424
0.00416974
0.0624454
0.000151685
0.000176274
0.0640626
0.000147308
0.000206258
0.0374152
0.000149736
0.00014713
0.0394752
0.000147868
0.000148442
0.000155077
0.023731
0.021817
0.000146034
0.000163766
0.000150783
0.0249396
0.000205432
0.000148511
0.000145287
0.0278604
0.0347866
0.0438632
0.000144828
0.000145876
0.000148372
0.000176553
0.000165571
0.000158425
0.000146716
0.00015718
0.0407203
0.000176404
0.000145943
0.0461654
0.000163767
0.000146112
0.00015314
0.000159567
0.000148537
0.000193451
0.000167672
0.0410637
0.00017668
0.00016479
0.0185247
0.000161312
0.00019422
0.0215368
0.000166029
0.045844
0.000162999
0.0415495
0.0393333
0.0180298
0.000164003
0.0663141
0.000201462
0.00014656
0.000156452
0.00018579
0.000173837
0.000161393
0.0547067
0.000153268
0.000145978
0.000159364
0.000144763
0.00014751
0.000155753
0.000187165
0.000191919
0.000163783
0.00539517
0.000148939
0.000153905
0.000146242
0.000148412
0.000177924
0.000152517
0.000153157
0.000149656
0.000148501
0.000212365
0.000146657
0.000148847
0.000179107
0.000153415
0.0324164
0.000172004
0.000268276
0.000163658
0.000153535
0.000150499
0.000192641
0.000148033
0.0466243
0.0214935
0.000151931
0.000148654
0.0448934
0.000201417
0.000200885
0.0248093
0.000144137
0.000148036
0.000156312
0.000559507
0.000153606
0.000148922
0.000168616
0.000164681
0.0156072
0.0397382
0.000559474
0.000186855
0.000149465
0.000774309
0.000151534
0.000156987
0.000147689
0.000156912
0.000186572
0.000176176
0.000246723
0.00014728
0.000157626
0.000156752
0.000148109
0.0193889
0.000164128
0.000156737
0.000335029
0.000248597
0.000147652
0.000145872
0.000156467
0.045604
0.000144261
0.000175899
0.000158039
0.000151045
0.000172234
0.000169258
0.000152655
0.0292622
0.000149401
0.000191474
0.000163616
0.000178722
0.000169297
0.000152986
0.000370502
0.000168133
0.000149251
0.000160246
0.000175543
0.000146066
0.000168445
0.000162868
0.0275498
0.000149573
0.0079331
0.00014803
0.000162336
0.00016196
0.000146655
0.0220671
0.000185151
0.000145828
0.000174992
0.000148473
0.000149074
0.000146988
0.000152359
0.000157568
0.000174588
0.000149871
0.000155471
0.000181461
0.000166579
0.000179179
0.000174005
0.000146299
0.000150462
0.000146233
0.000169313
0.000146607
0.000154587
0.000200868
0.000190761
0.0001482
0.000148428
0.000147693
0.000186724
0.000148964
0.000154039
0.000194551
0.000158893
0.0080154
0.000198908
0.000149708
0.00017732
0.0311003
0.000148664
0.000148109
0.0346468
0.000172084
0.000170385
0.000148691
0.000145413
0.000143551
0.000151897
0.0332441
0.0266512
0.000148169
0.000190069
0.00017097
0.00015668
0.000146129
0.000149489
0.0283544
0.000149127
0.000147854
0.0120359
0.000718318
0.000145059
0.000144762
0.000148005
0.0319169
0.000152048
0.000150501
0.0284201
0.0246517
0.000147176
0.000160692
0.000148911
0.000195037
0.000205927
0.000148088
0.0631367
0.000155751
0.000183756
0.000146964
0.000359172
0.0311398
0.000180242
0.025785
0.0440545
0.000144067
0.024856
0.000148029
0.00014722
0.0174418
0.000149588
0.000196765
0.000159611
0.00373623
0.000148099
0.00695418
0.033415
0.000147919
0.000149774
0.000191943
0.0180602
0.000154695
0.000148769
0.000159839
0.000186229
0.000160683
0.000146988
0.0273566
0.00015087
0.000158774
0.000151886
0.00017451
0.0260031
0.000146683
0.030269
0.000182692
0.00020903
0.000149563
0.000151615
0.000177236
0.000203885
0.0675946
0.00014697
0.000148182
0.000145839
0.000460354
0.000201196
0.0231211
0.0708079
0.000188674
0.000145841
0.000149052
0.000147554
0.0461197
0.000147317
0.0267744
0.0603855
0.000149235
0.000193012
0.000171014
0.000167549
0.000185858
0.000147939
0.000146213
0.00023574
0.00124218
0.000146158
0.000150594
0.041595
0.000242814
0.000156464
0.000280226
0.000150781
0.000150148
0.0498332
0.0664104
0.00014863
0.000153111
0.000145929
0.0229241
0.0683271
0.00014628
0.00014718
0.000150807
0.000148208
0.000159501
0.000156065
0.000148225
0.0383033
0.000197382
0.000159088
0.000153643
0.00415184
0.000146132
0.000148903
0.000147798
0.035185
0.000201251
0.000149222
0.000147639
0.021026
0.000158902
0.049196
0.000149226
0.0339238
0.0521188
0.000171179
0.000146174
0.000149157
0.000147279
0.000162733
0.000224338
0.000193533
0.000278418
0.000162624
0.000148653
0.000221514
0.00423503
0.0176401
0.000160739
0.000146832
0.000146299
0.000143552
0.000205527
0.00420143
0.000152722
0.000160147
0.000147186
0.000148375
0.00014703
0.000174772
0.00014773
0.000189148
0.000145741
0.00018154
0.0375958
0.0474565
0.0176253
0.000205994
0.000148409
0.000158528
0.000186807
0.000170567
0.000153484
0.000156989
0.000148324
0.000147708
0.000154928
0.000146737
0.000146881
0.000179806
0.000145389
0.000161449
0.0218291
0.000148974
0.000158211
0.000195774
0.000149762
0.0545641
0.000168879
0.000158583
0.000148427
0.000143776
0.000343647
0.000148192
0.000154423
0.000145745
0.000148111
0.000148994
0.000250481
0.000489209