/*--------------------------------*- C++ -*----------------------------------*\
| =========                 |                                                 |
| \\      /  F ield         | OpenFOAM: The Open Source CFD Toolbox           |
|  \\    /   O peration     | Version:  v2012                                 |
|   \\  /    A nd           | Website:  www.openfoam.com                      |
|    \\/     M anipulation  |                                                 |
\*---------------------------------------------------------------------------*/
FoamFile
{
    version     2.0;
    format      ascii;
    class       volScalarField;
    location    "400";
    object      nut;
}
// * * * * * * * * * * * * * * * * * * * * * * * * * * * * * * * * * * * * * //

dimensions      [0 2 -1 0 0 0 0];


internalField   nonuniform List<scalar> 
14804
(
0.00672145
0.00583
0.00195395
0.00499749
0.00225224
0.00186711
0.00212414
0.0029321
0.00171243
0.00583396
0.000413138
0.00186237
0.00201759
0.00433904
0.000379958
0.00759503
0.00244931
0.00514608
0.000103214
0.00343617
0.0058364
0.0010323
0.000328492
0.00282232
0.00138375
0.00247046
0.00434603
0.00310217
0.00600754
0.00351671
0.00588486
0.000320458
0.00342849
0.00120347
0.00184128
0.00207727
0.000486369
0.00583535
0.00299039
0.003407
0.00195445
0.00191109
4.99118e-05
0.00502523
0.00259665
0.00103883
0.00166839
0.00216166
0.000972192
0.000169981
0.00205475
0.00587418
0.00583164
0.00564586
0.000176229
0.00204775
0.000655419
0.00577231
0.00583478
0.00105946
0.00209802
0.00184317
0.00501527
0.00293148
0.00485172
0.00583203
0.00583616
0.00197246
0.00583128
0.00768195
0.00589962
0.0044787
0.000385284
0.00817577
0.00587747
0.00761784
0.00793031
0.00582968
0.000154926
0.00583475
0.00786731
0.00583188
0.00583652
0.00587652
0.00583562
0.000804367
0.00582783
0.00579532
0.00582869
0.0029137
0.00124049
0.000962332
0.00213884
0.00589057
0.000154877
0.00810838
0.00619201
0.00038375
0.00236576
0.000428184
0.00596593
0.0068863
0.00583586
0.0040791
0.000987063
0.0073833
0.00186922
0.000129017
0.0058364
0.00588844
0.00583612
0.00654142
0.0021199
0.00323043
0.00658494
0.00691053
0.000855487
0.00121374
0.00583553
0.00511212
0.00810096
0.00582859
0.00210428
0.00184309
0.00583471
0.00583567
0.000911121
0.00418715
0.000282921
0.0018463
0.00194901
0.000543453
0.00742013
0.000397988
0.00121088
0.00207997
0.00483793
0.000855767
0.0041211
0.0011209
0.00583041
0.00455722
0.0059255
0.00323932
0.00416267
0.00583201
0.00104842
0.00583582
0.000731455
0.000154802
0.00170998
0.000286157
0.0033543
0.00405246
0.00583547
0.00635873
0.00454595
0.000334413
0.00288834
0.000612745
0.00582875
0.0058298
0.00743097
0.000360281
0.00375237
0.00644461
0.00212876
0.00233231
0.00434969
0.00316102
0.000444586
0.000806728
0.00159259
0.000389018
0.00061894
0.000504371
0.000227609
0.00117194
0.00583092
0.000627199
0.00170347
0.00862535
0.00218811
0.000418811
0.00105268
0.00510714
0.00100462
0.000873176
0.00247792
0.00583275
5.34096e-05
0.00198827
0.0031253
0.00108784
0.000285455
0.00584258
0.00646442
0.00205938
0.000447337
0.00233243
0.00368592
0.00583267
0.00287743
0.000445989
0.00128595
0.00267124
0.00462983
0.000482098
0.00113277
0.0016619
0.00369171
0.00212062
0.00178273
0.00582877
0.00172433
0.00411992
0.00415602
0.00585041
0.0058441
0.00565295
0.000422313
0.00202209
0.000405888
0.000879516
0.00588342
0.000472695
0.00348801
0.00107028
0.00727717
0.00110071
0.00588787
0.0029359
0.0053671
0.00788309
0.00828357
0.00583585
0.00113835
0.00105178
0.000656891
0.00124964
0.00522854
6.31976e-05
0.00221866
0.00543024
0.0058503
0.00083097
0.0017629
0.00357316
0.000297483
0.00589306
0.00279744
0.00584201
0.00582892
0.00582944
0.00711322
0.00132209
0.00583162
0.00329668
0.00589751
0.00583243
0.00275415
0.00257977
0.000286318
0.00259216
0.000421126
0.0039799
0.00469681
0.00584715
0.00296725
0.00194441
0.0089383
0.00580597
0.00583589
0.0058353
0.00432412
0.000382513
0.0056664
0.00326678
8.06735e-05
0.00763274
0.001057
0.00582791
0.00347767
0.00213726
0.00903911
0.000531641
8.36145e-05
0.00578803
0.000385108
0.000498666
0.00570742
0.00382369
0.00104009
0.00587226
0.00197478
0.000227001
0.000508871
0.000264461
0.0045429
0.000380928
0.00583731
0.00582958
0.000387779
0.00345135
0.000152976
0.0027286
0.00169776
0.00725958
0.0003965
0.0028638
0.00275363
0.00587159
0.000572195
0.00122157
0.00699867
0.0015663
0.0026614
0.000545032
0.00582957
0.00434658
0.00110577
0.000907907
0.00103572
0.0019947
0.00588646
0.00351345
0.000490513
0.00583489
0.000484862
0.00384392
0.00393074
0.00439082
0.000258917
0.000624755
0.00583242
0.00588064
0.00582955
0.00355443
0.00136115
0.00159036
0.000984473
0.00546118
0.00152115
0.00205846
0.00588928
0.00666581
0.00862989
0.00749707
0.00159745
0.00517655
0.00313153
0.00341633
0.00583173
0.00584541
0.00140048
0.00107089
0.00236908
0.00011875
0.00584636
0.00582892
0.00145831
0.000843412
0.00211327
0.000728584
0.00805123
0.00792503
0.00570841
0.00130695
0.00123646
0.00584055
0.0016852
0.00583378
0.000245581
0.00382965
0.00582892
0.00175524
0.00584871
0.00183372
0.00742536
0.000383503
0.000559154
0.0035782
0.000409991
0.00924716
0.00183111
0.00584132
0.00913542
0.00110655
0.00583239
0.00700716
0.000388805
0.00586087
0.00149499
0.00564971
0.0037824
0.00176716
0.000606238
0.00446271
0.00520664
0.00583397
0.000410176
0.00583204
0.00010404
0.00143254
0.000684685
0.000665505
0.000792781
0.00205125
0.00350732
0.00583588
0.00566226
0.000310569
0.00253959
0.00583397
0.00586947
0.000443847
0.00583328
0.00322956
0.00283456
0.00659564
0.000551619
0.00244308
0.00586632
0.00493043
0.000676344
0.00430565
0.00865598
0.000177287
0.00531617
0.00587693
0.00235541
0.00587436
0.000206367
0.00583199
0.0017743
0.00454269
0.00583628
0.00646447
0.00584624
0.00150063
0.00357218
0.00897137
0.00586167
0.0038789
0.00583157
0.0053622
0.00356922
0.00457007
7.0991e-05
0.00178803
0.00776951
0.00170912
0.00588742
0.00583583
0.00592875
0.0046222
0.00605822
0.00446261
0.00349074
0.00583566
0.0010792
0.00583137
0.000447381
0.000785084
0.00433444
0.000834811
0.0035299
0.00702336
0.00240929
0.00175716
0.00583564
0.00030107
0.0036273
0.00585745
0.00405619
0.00502244
0.00220467
0.00132168
0.00337845
0.00759252
0.00208868
0.00443299
0.00118193
0.00201545
0.00588233
0.000496486
0.00539935
0.00344491
0.00586234
0.000881678
0.000477572
0.000345506
0.00096035
0.00585735
0.000597653
0.00583562
0.00476934
0.00165729
0.00212683
0.00502019
0.000450945
0.00176851
0.00583017
0.000181229
0.0082226
0.00583458
0.00583255
0.00582763
0.00588365
0.00255034
0.00583444
0.00183868
0.000974609
0.00346158
0.00192993
0.00810437
0.00583317
0.000429663
0.00583111
0.000958588
0.00114964
0.000304855
0.002452
0.00583351
0.00454984
0.0057722
0.00583035
0.00124816
0.0058306
0.000610277
0.00587593
0.000869804
0.00289389
0.00587373
0.00865192
0.0019923
0.00521124
0.000879481
0.00583209
0.000891427
0.00583179
0.00525962
0.000499523
0.000319082
0.00100959
0.0076342
0.00582994
0.00577053
0.000942301
0.00319002
0.000615319
0.00821394
0.00701114
0.00583392
0.00582794
0.00582929
0.000441734
0.000442386
0.0091563
0.0078537
0.00583206
0.00296496
5.04864e-05
0.000524171
0.00440114
0.00542835
0.00137464
0.00588233
0.00108074
0.00894585
0.000897809
0.000438136
0.00583024
0.00582919
0.00589698
0.000762994
0.00582862
0.000979992
0.00583242
0.000307667
0.000719923
0.000674451
7.23278e-05
0.00588245
0.00584189
0.00765698
0.00580926
0.000333071
0.00582899
0.00589746
0.00584961
0.0058356
0.00323232
0.00347007
0.00747008
0.00769452
0.0058334
0.00552926
0.00391667
0.00118268
0.000164146
0.000655525
0.00588797
8.40969e-05
0.00100709
0.00355072
0.00584684
0.000425624
0.00197001
0.0058285
0.00529824
0.000322955
0.00583644
0.00583093
0.000903358
0.00481065
0.00352871
0.00118993
0.000464367
0.00584389
0.00043653
8.76038e-05
0.000344643
0.00583643
0.00315038
0.00585283
0.000548518
0.00583374
0.005834
0.00152671
0.0016865
0.000471382
0.00300236
0.000516677
0.00584781
0.00807653
0.00583178
0.00169627
0.000431867
0.0039548
0.00582808
0.00562915
0.00451639
0.00132485
0.00583512
0.000437053
7.84136e-05
0.00448365
0.00584016
0.00667837
0.00850519
0.00012091
0.00564437
0.000161176
0.00583552
0.004565
0.000261436
0.00263547
0.000391174
0.00798367
0.000193363
0.000816192
0.00102913
0.00337554
0.00771232
0.00140746
0.00582898
0.00501294
0.000879127
0.00180326
0.000363886
0.00127098
0.000565774
0.000894193
0.00582799
0.000996221
0.00582798
0.00323364
0.00632073
0.00829706
0.000406137
0.00537658
0.00582992
0.00583257
0.00110571
0.000189482
0.00852984
0.00129278
0.000519519
0.000349867
0.000456453
0.000511897
0.00233551
0.00284752
0.00819336
0.00195093
0.00582909
0.00485743
0.00513057
0.000571008
0.00582714
0.000610087
0.00105825
0.000456316
0.000644029
0.00103694
0.00328156
0.00107487
0.00323597
0.00238859
0.00417106
0.00583344
0.00216086
0.00288257
0.00806091
0.00278215
0.00170416
0.00490187
0.00583258
0.00583941
0.00103694
0.000504547
0.00585352
0.000383836
0.00588894
0.00120698
0.00518771
0.000891543
0.00580979
0.00582819
0.00583824
0.00115747
0.00117856
0.000693843
0.000704178
0.00582891
0.00583229
0.00582995
0.00648973
0.000439707
0.000689189
0.00884855
0.000527902
0.00370569
0.00629266
0.0056678
0.00583124
0.00582911
0.00588748
0.00116718
0.00588738
0.00582991
0.000438452
0.00152852
0.000515546
0.00589361
0.00672308
0.00552418
0.00324838
0.000794444
0.00310821
0.000945798
0.000445963
0.00234332
0.00040985
0.0016038
0.00335487
0.00103921
0.000486898
8.18051e-05
0.00583161
0.000409826
0.00438193
0.00583537
0.00916134
0.00461822
6.86465e-05
0.00407486
0.0003954
0.00584285
0.0065552
0.00582931
0.00113691
0.004868
0.00214258
0.0058351
0.00517524
0.006726
0.00432621
0.0011254
0.000867896
0.00219472
0.000843342
0.000487799
0.00738079
0.00477913
0.00582948
0.00584158
0.00583318
0.00343453
0.000454563
0.00467536
0.00874465
0.000867995
0.00589324
0.00141503
0.00028285
0.0058992
0.00327837
0.00890951
0.000672047
0.0035303
0.000757645
0.00230708
0.00583015
0.000981667
0.00565075
0.00813612
0.000485306
0.000990732
0.00161304
0.000518405
0.000997078
0.00583255
0.000329165
0.00132498
0.0058919
0.00525643
0.00064271
0.00584237
0.000206521
0.00585317
0.000358989
0.000208397
0.00207466
0.00232286
0.00588403
0.00584527
0.000914113
0.00110159
0.00585338
0.00589443
0.00519129
0.00170462
0.0073395
0.000174589
0.00583303
0.00583337
0.00360027
0.000206153
0.00287944
0.00582856
0.00111667
0.000596863
0.0058305
0.00584522
0.00120065
0.00167028
0.00583142
0.00590685
0.00588531
0.00148669
0.00583041
0.00463272
0.000806515
0.00332266
0.000118857
8.45035e-05
0.00589139
0.000172271
0.00582505
0.00642972
0.00179725
0.00534816
0.00583391
0.00444434
0.00375689
0.00255219
0.00452487
0.00583009
0.00252076
0.00149441
0.00601753
0.000548348
0.00583381
0.00263008
0.00583641
0.00575842
0.00520927
0.000167651
0.00188842
0.000407083
0.00273466
0.00185096
0.00500072
0.00583589
0.00213736
0.00354709
0.00587928
0.00582864
0.000309151
0.00583372
0.00117469
0.00579539
0.00125596
0.00583641
0.000516927
0.00584071
0.000180667
0.00472757
0.000596582
0.00234011
0.00042073
0.00151523
0.00545551
0.00583618
0.00512653
0.000874852
0.000494626
0.00585404
0.00583118
0.00797271
0.00218912
0.00096393
0.00588286
0.0058291
0.000441411
0.00196491
0.00626452
0.00734797
0.00143893
0.00213893
0.00921515
0.00584315
0.00583446
0.000284307
0.00179225
0.000114995
0.002523
0.00583323
0.00589107
0.00183623
0.00584054
0.0052099
0.00569577
0.00272682
0.00584828
0.00108911
0.00583379
0.00085944
0.00589038
0.00586985
8.98727e-05
0.00049139
0.000996513
0.00714592
0.000151374
0.00438123
0.000386601
0.000162397
0.00428136
0.00442826
0.000105976
0.00167508
0.00585216
0.00183057
0.00397417
0.00264605
0.0056911
0.00584572
0.000664105
0.00451263
0.00584218
0.00194136
0.0058412
0.00204383
0.00584012
0.000567631
0.000343789
0.00192821
0.00257627
0.000142181
0.00716789
0.00375005
0.00588604
0.00583434
0.000693094
0.00584855
0.000624443
0.000665273
0.00337264
0.00583054
0.00583251
0.00264762
0.0032081
0.00073048
0.000771586
0.000333287
0.00583362
0.00583405
0.00205867
0.00353208
0.00204289
0.00167161
0.00583392
0.00678933
0.00108365
0.000290695
0.0020549
0.00531767
0.00324334
0.00588798
0.0060508
0.000835662
0.00584114
0.000892184
0.000316934
0.00513964
0.000896464
0.000510237
0.00583893
0.000297473
0.00306298
0.00428934
0.00276612
0.00327208
0.0035405
0.00584188
0.00351331
0.00171557
0.00237231
0.00583505
0.00295353
0.00584169
0.00621375
0.00811845
0.000595247
0.000397214
0.000443448
0.00184205
0.00297032
0.00264582
0.00770922
0.00184469
0.000499648
0.000649469
0.00583394
0.00576999
0.000660092
0.00320936
0.000658159
0.00109113
0.000624509
0.00129248
0.00614366
0.00166016
0.00784981
0.00286407
8.03584e-05
0.00582358
0.000516544
0.00721397
0.00271328
0.00196102
0.00748595
0.000251753
0.00196487
0.00595832
0.0064869
0.00732314
0.00583713
0.000403094
0.00583198
0.00583538
0.00436556
0.00583528
0.00357794
0.000767639
0.000975864
0.0058335
0.00583214
0.00584165
0.000247304
0.000913122
0.000825147
0.00887469
7.83334e-05
0.000852617
0.00584424
0.0058539
0.00401404
0.0058316
0.00019752
0.00149961
0.00355692
0.000965692
0.00129573
0.00112203
0.00585006
0.00589143
0.00587868
0.000220808
0.00782857
0.00679129
0.00583712
0.00423657
0.00479207
0.00583126
0.00584088
0.00428109
0.00580154
0.00611523
0.00462483
0.00182947
0.00363323
0.000668779
0.00432702
0.00300736
0.000654435
0.000986641
0.00427019
0.000246909
0.000558694
0.00583315
0.00583564
0.000314205
0.00583038
0.0011267
0.00577152
0.00191589
0.00395382
0.00248544
0.00635469
0.00285167
0.00583264
0.0017596
0.00585069
0.000296412
0.00583367
0.0058344
0.00589023
0.000244635
0.0058314
0.000552722
0.00583618
0.00583385
0.00132151
0.00166669
0.00386733
0.001074
0.00222956
0.000162848
0.00583037
0.00818915
0.0033536
0.00582803
0.00382227
0.00128638
0.00124521
0.000332735
0.00324101
0.000514463
0.00374896
0.00584119
0.00820345
0.00105753
0.00580878
0.000366626
0.0058272
0.00825842
0.00236086
0.00197498
0.00593995
0.000453713
0.00193969
0.00590773
3.1069e-05
0.00515473
0.00669667
0.000208533
0.0026749
0.00447669
0.00349202
0.0042068
0.00585734
0.0020703
0.00583366
0.00583325
0.00583587
0.00505097
0.00304073
0.0066059
0.00113496
0.0045802
0.00582715
0.00784342
0.000566361
0.00159947
0.0058341
0.00590743
0.00583324
0.00193878
0.00547282
9.66274e-05
0.00586888
0.000484201
0.00412042
0.00125929
0.00112155
0.00026932
0.000356046
0.00583587
0.00347189
0.00587314
0.00784023
0.00583961
0.00392532
0.00414729
0.000492107
0.00324506
0.00584087
0.00588156
0.00583185
0.00584435
0.0058489
0.000399916
0.00714587
0.00488585
6.91113e-05
0.00117758
0.00471144
0.00263804
0.000442972
0.00545477
0.000922628
0.00225759
0.00888273
0.000270264
0.00583218
0.00587902
0.0075999
0.00585144
0.00365614
0.00525579
0.00102072
0.000692799
0.00583201
0.00109561
0.00111491
0.000794885
0.00681951
0.00788577
0.00587362
0.00587561
0.00106988
0.00584257
0.00285137
0.00583255
0.00061843
0.000585385
0.00589732
0.00489815
0.00203051
0.00583329
0.00328967
0.000488
0.00583161
0.00282964
0.00061703
0.000386871
0.000604341
0.00472469
0.000397077
0.00583564
0.00401548
0.00582528
0.00718505
0.00582914
0.00749143
0.00362248
0.00115402
0.00583536
0.00588724
0.000630271
0.00106236
9.57017e-05
0.00694937
0.000519453
0.00342644
0.0058303
0.00239323
0.00583829
0.000648616
3.26888e-05
0.00583568
0.00103733
0.00589253
0.00583614
0.00589443
0.00730639
0.00184868
0.00583383
0.00237218
0.00197882
0.00184157
0.00108681
0.000953504
0.00614775
0.00128184
0.00535836
0.00205413
0.00329717
0.00354788
0.00551687
0.005888
0.00672191
0.00539054
0.00210181
0.00223438
0.000348241
0.000585949
0.00583621
0.00230866
0.00364339
0.00112348
0.00559915
0.00519531
0.00736715
0.00516772
5.46315e-05
0.00583236
0.00353888
0.000696989
0.00729423
0.00270696
0.00583253
0.00584893
0.00583321
0.00583417
0.00583242
0.00813452
0.00709759
0.00583036
0.000668466
0.000467891
0.00484276
0.00805325
0.0053185
0.0058594
0.00579605
0.000246484
0.00453082
0.00589128
0.000882762
0.00586262
0.00583726
0.00533322
0.0058429
0.000391775
0.00584893
0.00795903
0.00295574
0.00117134
0.00291745
0.00102655
0.00113012
0.00583109
0.000612636
0.00530367
0.000209164
0.00583152
0.00139663
0.000682315
0.00355808
8.8459e-05
0.00588653
0.00110732
0.00911551
0.00673276
0.000244651
0.00582982
0.000728244
0.00040283
0.00773797
0.00234538
0.000312468
0.000568814
0.000336507
0.00262026
0.00374193
0.00102746
0.0003309
0.000275163
0.00173917
0.00115922
0.00588399
0.00660741
0.00550434
0.00168163
0.0076605
0.00175243
0.00208989
0.00583339
0.00159525
0.00583215
0.00896048
0.00583409
0.000782423
0.00372277
0.00181899
0.000636989
0.000259566
0.00418584
0.000225483
0.00797026
0.00364917
0.00325914
0.00950184
0.00165847
0.000363609
0.00147354
0.000409083
0.00583584
0.00183752
0.00583157
0.00381098
0.00013569
0.00144358
0.00583858
0.00470223
0.000352619
0.00585126
0.00425773
0.00149186
0.00148609
0.00466002
0.00198136
0.000443854
0.00539009
0.000315269
0.00583519
0.00583062
0.00583425
0.00368747
0.00583257
0.00582907
0.00584987
0.00583399
0.00583733
0.00559267
0.00073729
0.00854467
0.00592791
0.00583615
0.00139961
0.00335388
0.000986534
0.00233254
0.000603567
0.00623709
0.00583927
0.00479913
0.00584227
0.00585186
0.00141048
0.000751098
0.000109354
0.00583525
0.00588317
0.00583255
0.00571662
0.000475439
0.000523449
0.00587884
0.00583639
0.00589313
0.000417907
0.000365957
0.00575042
0.00126269
0.000535822
0.00375369
0.000427326
0.00214146
0.00171518
0.00587424
0.00588533
0.00583188
0.00589456
0.00141406
0.00456611
0.000459366
0.00157129
0.00104486
6.28865e-05
0.00533184
0.00583435
0.00583117
0.000190422
0.00516684
0.00295155
0.00197999
0.00362478
0.000707756
0.00149522
0.00279572
0.00127629
0.00832487
0.00524199
0.00585902
0.000120315
0.00124274
0.005836
0.00198394
0.00724801
0.00583268
0.00110917
0.00120599
0.00112942
0.00395535
0.00583131
0.00123885
0.00170105
0.000873561
0.00897384
0.00746917
0.0058524
0.00226568
0.00105354
0.00323414
0.00582818
0.000697068
0.00293976
0.000572426
0.00491953
7.32542e-05
0.000667659
0.00583066
0.00162351
0.000215846
0.00518425
0.00103081
0.0012379
0.00524326
0.00583366
0.00583035
0.00349655
0.00589914
0.000561438
0.00583567
0.00206549
0.0072202
0.0073701
0.00584457
0.000935377
0.000136735
0.00800005
0.00786837
0.000385806
0.00576031
0.00584546
0.0083564
0.00169687
0.00102801
0.00097944
0.00874724
0.00122275
0.000491448
0.00584897
0.000950395
0.000882846
0.00111259
0.00634716
0.000356946
0.000619573
0.00546784
0.00370549
0.000652024
0.000422105
0.005833
0.00214445
0.000831527
0.00576728
0.00147337
0.00582652
0.00583232
0.000163552
0.00398772
0.00786613
0.00301598
0.00358083
0.000799838
0.00679662
0.00586228
0.00422832
0.000678095
0.00587656
0.00707853
0.00848246
0.00118534
0.00583697
0.00583535
0.00166261
0.00074796
0.00915198
0.00602176
0.00102848
0.00730328
0.00583369
0.000357595
0.00359167
0.00657709
0.00488884
0.000757394
0.00820195
0.000334133
0.00664324
0.00582935
0.00583229
0.00582537
0.00356965
0.00583585
0.00470664
0.00868937
0.00566019
0.00333183
0.000539106
0.00747765
0.00331242
0.00585818
0.0058812
0.00583584
0.00166836
0.00126833
0.00657897
0.0035728
0.00586142
0.00942414
0.00710488
0.00200743
0.00339335
0.00584149
0.00306334
0.000440887
0.00583049
0.00462348
0.0034427
0.00458858
0.00583557
0.00585578
0.00115613
0.00582975
0.000508848
0.00200893
0.000784421
0.00117461
0.00115082
0.00583491
0.000416979
0.00583592
0.00583621
0.000233502
0.000184327
0.00582901
0.000156723
0.00290244
0.000346063
0.00783563
0.0058314
0.000377037
0.00583249
0.00132469
0.00155829
0.00385509
0.000631091
0.00201042
0.00795023
0.000527259
0.000432167
0.000287165
0.00777377
0.00186558
0.00795394
0.00293295
0.000985369
0.00663135
0.000422361
0.00583856
0.00589099
0.0058743
0.00799094
8.903e-05
0.00584596
0.00585627
0.00582976
0.00178813
0.00106019
0.00583438
0.00262267
0.00935124
0.00583311
0.000260605
0.00587255
0.00473401
0.00449417
0.00139794
0.00705356
0.000850429
0.000780737
0.000500311
0.00718558
0.000639589
0.000450723
0.00192843
0.000294266
0.00901285
0.00587222
0.00203998
0.00583294
0.00212785
0.00583407
0.000566018
0.00584239
0.00101399
0.000368824
0.00576678
0.00317276
0.00459542
0.00187146
0.00582813
0.00115966
0.00177127
0.00588
0.00154016
0.00316805
0.00412943
0.000217974
0.00114883
0.00356366
0.00709576
0.00189707
0.00589411
0.0003059
0.00323326
0.000142333
0.00583372
0.0058903
0.00568813
0.00803539
0.00216761
2.9943e-05
0.000597735
0.00180093
0.00373612
0.00842475
0.00650961
0.00583146
0.00588116
0.00728864
0.00333595
0.000156641
0.00685766
0.00583426
0.00582982
0.00162112
0.00107974
0.00202453
0.00277597
0.000399771
0.00583397
0.00586548
0.0027591
0.000554376
0.000240049
0.00371572
0.00047797
0.00311887
0.00583264
0.00036544
0.00100164
0.00715039
0.00173078
0.00583028
0.00352511
0.00819968
0.000502228
0.000638899
0.000140947
0.00533409
0.0050066
0.00582636
0.00586144
0.00583332
0.002314
0.0017526
0.00582939
0.00426424
0.00257726
0.003004
0.00571987
0.00569941
0.00114533
0.000604435
0.000178848
0.00589821
0.00761811
0.00481884
0.00583583
0.00165794
0.000626991
0.00583076
0.00213357
0.00289049
0.00894333
0.00061067
0.00212561
0.000328167
0.000320272
0.00124003
0.00675885
0.00705583
0.00525844
0.00128461
0.00134427
0.00284653
0.000258745
0.000623429
0.00146452
0.00582958
0.00251274
0.00583225
0.000558906
0.00343372
0.000620386
0.000428707
0.000748962
0.000493962
0.00218703
0.00583326
0.000741582
0.00179147
0.00588446
0.00285829
0.00583361
0.00156831
0.00129153
0.00305974
0.0003298
0.000188058
0.00024981
8.75706e-05
0.00275858
0.00331455
0.00583876
0.00044221
0.00035125
0.00924782
0.000685841
0.00533073
0.00590095
0.00727873
0.000578726
0.0088707
0.00296316
0.00586748
0.00171393
0.00675705
0.00369515
0.00578581
0.00588079
0.000690036
0.000464277
0.00440774
0.00152174
0.00122987
0.000568814
0.00678535
0.00492883
0.000596884
0.00666821
0.00583083
0.000714771
0.00582958
0.0053488
0.00666183
0.00168283
0.00077205
0.00582926
0.00582576
0.00181276
0.00214473
0.00353939
0.00583375
0.000813259
0.0004252
0.00189023
0.000418332
0.00583106
0.0058315
0.000668601
0.00613618
0.00783984
0.00535535
0.00486003
0.00244228
0.000811009
0.00361067
0.00238978
0.000781498
0.00583433
0.00583823
9.71432e-05
0.000817557
0.00222889
0.00150276
0.00583645
0.0015118
0.00152553
0.00435996
0.00801271
0.000652012
0.00404958
0.00582978
0.00102777
0.0035856
0.00662717
0.00582888
0.0005098
0.00566884
0.00583166
0.0058271
0.00462249
0.000407869
0.00217945
0.00586185
0.00248117
0.000910289
0.00583084
0.00428294
0.00848476
0.00103764
0.00154171
0.0059485
0.000287999
6.04854e-05
0.00447679
0.00451502
0.00231133
0.00489064
0.00295407
0.00793093
0.000391681
0.00583458
0.00750228
0.00583575
0.00144818
0.000293265
0.00516496
0.00573741
0.000296621
0.00305823
0.00582915
0.00583789
0.000803191
0.00541826
0.000663396
0.00237498
0.000667892
0.000978982
0.00583614
0.00584627
0.000408437
0.00127217
0.00139501
0.000682791
0.00101361
0.000387289
0.000833952
0.000513959
0.000119847
0.000335735
0.0026184
0.000631379
0.00579113
0.00237316
0.000420369
0.00544066
0.0010349
0.0030213
0.00582716
0.000200579
0.0047051
0.00189908
0.000316263
0.00107818
0.003861
0.00695296
0.00354404
0.000456001
0.00815837
0.0058313
0.000443693
6.92931e-05
0.00583622
0.00717636
0.00104395
7.12889e-05
0.000414184
0.00598503
0.000271415
0.00583538
0.000546775
0.00434722
0.00276878
0.000372619
0.000993884
0.0045621
0.00424978
0.00258277
0.000541654
0.000211655
0.00121144
0.00496871
0.0058639
0.0021782
0.00713164
0.00476812
0.000795481
0.00540542
0.00313187
0.000738053
0.00583927
0.00461668
0.00587329
0.00482953
0.00542613
0.000293912
0.00583102
0.00379252
0.00583568
0.00583032
0.000583592
0.00490197
0.00549146
0.00582979
0.000941365
0.00718611
0.00467458
0.00583782
0.00690941
0.00609513
0.00533906
0.000373443
0.000643032
0.00167177
0.00473913
0.0047588
6.34616e-05
0.000474291
0.00362177
0.00296145
0.00139103
0.00584165
0.00343879
0.00586903
0.00438048
0.000202453
0.00803243
0.000333083
0.000688507
0.005838
0.00584119
0.00116834
0.00693299
0.00323709
0.000864003
0.000694261
0.00307521
0.0022614
0.00583352
0.00583672
0.000851028
0.00214694
0.00358041
0.0058427
0.00466397
0.00153317
0.0060441
0.0016431
0.00246318
0.00583123
0.00376601
0.00206796
0.00486944
0.00525745
0.000260035
0.00669299
0.00332722
0.000772615
0.00631905
0.00587633
0.000774177
0.00072851
0.00552612
0.00583101
0.00614535
0.00448897
0.0070593
0.00356527
0.00350583
0.00317844
0.000776143
0.00535212
0.00590774
0.00251583
0.0010844
0.000899595
0.00205907
0.000311728
0.00728933
0.00359417
0.000815974
0.00532876
0.00583807
0.00104936
0.00728416
0.00305356
0.00582872
0.00674371
0.00434562
0.00583584
0.000641189
0.00334046
0.00497035
0.00583759
0.00470565
0.00131767
0.0054697
0.000462631
0.00583727
0.00583239
0.00679646
0.00552958
0.00834822
0.00583808
0.0058391
0.00351081
0.000953708
0.00450191
0.00434164
0.0058837
0.00541219
0.00715658
0.00181192
0.00583977
0.0073852
0.00148653
0.00587523
0.0007431
0.000461729
0.00342297
0.00163526
0.000899861
0.00805951
0.00100339
0.00457348
0.00490633
0.000206861
0.00148542
0.00642141
0.000304763
0.00829205
0.00471895
0.0072885
0.00800938
0.00504941
0.00463681
0.0045253
0.0011542
0.00586651
0.000631162
0.0021638
0.00024339
0.000305624
0.00709035
0.000728652
0.00583719
0.000397022
0.00582933
0.00583162
0.000813963
0.00202114
0.000675276
0.00195651
0.000288989
0.00589907
0.00515177
0.00582808
0.00359978
0.0010819
0.00502743
0.000719578
0.0058841
0.00369317
2.71988e-05
0.00583175
0.00583448
0.00269971
0.00544339
0.00718551
0.00031075
0.00049534
0.00220896
0.00309305
0.0021324
0.00143776
0.00328404
0.00317439
0.00645841
0.00580777
0.00332596
0.00870461
0.00129771
0.00117732
0.00514243
0.00583049
0.00467939
0.00151065
0.000451487
0.0052504
0.00241193
0.00136783
0.0037413
0.00434623
0.00686036
0.000391089
0.00210255
0.00303478
7.68307e-05
0.00582573
0.0019926
0.0058425
0.00173988
0.00213343
0.00206076
0.000504953
0.00590132
0.00422951
0.00156316
0.00341853
0.0032849
0.00466928
0.00546337
0.000114286
0.00021694
0.00583594
0.00583718
0.00548296
0.00803578
0.00582669
0.00269297
0.00532678
0.0015999
0.000262616
8.25647e-05
0.00249087
0.00156807
0.00218744
0.000275458
0.00471856
0.00287019
0.000204499
0.00151117
0.000402777
0.000160521
0.00228035
0.00510612
0.00286055
0.00584116
0.000998521
0.00478226
0.00624954
0.00223014
0.000930342
0.00354477
0.000312735
0.00485623
0.00584617
0.00348343
0.000275903
0.00585322
0.00340694
0.00363273
0.00589311
0.00583074
0.00120868
0.00321501
0.00344636
0.00583621
0.00140263
0.000214182
0.000170555
0.00238331
0.00349644
0.00587964
0.00586663
0.00583107
0.000152125
0.00583062
0.00125394
0.0011704
0.00187182
0.00375108
0.00452108
0.00584363
0.000330464
0.00583361
0.000712112
0.000226874
0.00179281
0.00035054
0.00120957
0.00229326
8.2705e-05
0.00203816
0.00583281
0.00397941
0.00546769
0.00363976
0.00262759
0.00583298
0.00582831
0.00582852
0.00254844
0.00734652
0.00404964
0.00334371
0.00193899
0.00372631
0.0054442
0.00583758
0.00583502
0.00704427
0.0058973
0.00481344
0.00186707
0.000222901
0.00583209
0.00583295
0.00583134
0.00732112
0.00102014
0.0013424
0.00693813
0.00618891
0.00515299
0.000253597
0.0044219
0.000358581
0.00107756
0.00583119
0.00919058
0.00380872
0.00150224
0.00584045
0.000275359
0.00673882
0.000288757
0.0067243
0.00777792
0.00583
0.00680776
0.00583765
0.0058394
0.0044763
0.00224497
0.000794556
0.000400561
0.000585553
0.00376519
0.00251067
0.00515112
0.00357896
0.00583587
8.63328e-05
0.00486578
0.0056345
0.00583304
0.00514569
0.000214521
0.0030018
0.0058384
0.00449273
0.00537041
0.00148516
0.00374935
9.63339e-05
0.00317865
0.00583117
0.00571909
0.000436509
0.00101039
0.00583528
0.00123108
9.01333e-05
0.00111355
0.00721329
0.00583089
0.00384367
0.00583239
0.000371954
0.00115484
0.00305727
0.00619062
0.000225023
0.00583196
0.00231861
0.00452584
0.00767292
0.00582971
0.00588955
0.00669473
0.00471659
0.000536678
0.00128864
0.000328474
8.78464e-05
0.00583087
0.00583148
0.000518034
0.000771229
0.00583877
0.00540267
0.00752928
0.000500976
0.000601775
0.000523831
0.00125464
0.00168015
0.00759907
0.00792058
0.00583264
0.00122551
0.00587964
0.00496997
0.00781316
0.00586043
0.00582965
0.00127462
0.00363772
0.000378865
0.000516013
0.00352066
0.00732203
0.00123333
0.00522424
0.000968116
0.000713265
0.00582821
0.00583489
0.00550808
0.00213995
7.72211e-05
0.00589085
0.00584069
0.0048866
0.00185914
0.00887147
0.00221761
0.0059907
0.00652685
8.66996e-05
0.00582831
0.00278441
0.0058368
0.000196931
3.89511e-05
7.66974e-05
0.000334701
0.000369045
0.00323288
3.26104e-05
0.000236655
0.00397121
0.00030722
0.00582834
0.00585588
0.00582918
0.00056944
0.00167331
0.000850696
0.000326915
0.0058298
0.00521092
0.00584002
0.000218863
0.00584274
0.00027716
0.00583382
0.00039676
0.00655352
0.00640312
0.00569868
0.000529794
0.00289989
0.00180996
0.00125905
0.00244409
0.000817298
0.000619233
0.00310954
0.00583041
0.000717661
0.00584865
0.00582837
0.000760357
0.00585405
0.000234051
0.00652729
0.00247704
0.000362076
0.000404455
0.00583587
0.0034839
0.000731074
0.00312134
0.00300092
0.00582909
0.000406073
0.00329102
0.00204383
0.0058512
0.0058324
0.00285868
0.000162793
0.000229735
0.000208707
0.00585297
0.00684377
0.00747665
0.00621562
0.003686
0.0058293
0.00589631
0.0058337
0.00584382
0.00697566
0.00791651
0.000823876
0.00336682
0.00070237
0.0043015
0.0058335
0.00610544
0.00120496
0.00584137
0.00138649
0.000959345
0.000100998
0.000454656
0.00187319
0.000103774
0.00541765
0.00603032
0.00501262
0.000338611
0.00822872
0.000208564
0.000410431
0.00160093
0.000109184
0.00752149
0.00354064
0.000603278
0.00436146
0.00212018
0.000151105
0.00583886
0.000652281
0.00685134
0.00583175
0.000520068
0.00209252
0.00233854
0.00163126
0.0036076
0.00666952
0.00502737
0.00585254
0.00724587
0.00320579
0.000339435
0.00583615
0.00583378
0.00121917
0.00311411
0.00220522
0.00584506
0.000384461
0.000722306
0.00537712
0.00760697
0.00583127
0.00583121
0.00582889
0.00590241
0.000930794
0.00212496
0.00148157
0.00758871
0.000858193
0.00583711
0.00287109
0.00772635
0.00390415
0.00217154