/*--------------------------------*- C++ -*----------------------------------*\
| =========                 |                                                 |
| \\      /  F ield         | OpenFOAM: The Open Source CFD Toolbox           |
|  \\    /   O peration     | Version:  v2012                                 |
|   \\  /    A nd           | Website:  www.openfoam.com                      |
|    \\/     M anipulation  |                                                 |
\*---------------------------------------------------------------------------*/
FoamFile
{
    version     2.0;
    format      ascii;
    class       volScalarField;
    location    "400";
    object      omega;
}
// * * * * * * * * * * * * * * * * * * * * * * * * * * * * * * * * * * * * * //

dimensions      [0 0 -1 0 0 0 0];


internalField   nonuniform List<scalar> 
14804
(
3.46996
0.0251123
0.0969759
0.0322813
0.037877
0.0639913
0.0262613
0.0253978
0.111718
0.0255686
0.404903
0.102528
0.0255566
0.0385019
0.180172
7.22486
0.0389212
0.0310793
20.4429
0.0505971
0.0256905
0.0280219
0.040726
0.0257739
12.2288
0.0257787
0.0382872
0.037653
3.53714
0.0257466
0.0248658
0.0382509
0.0506998
0.0448573
0.102897
0.0262813
1.39868
0.0256333
10.7834
0.050903
0.0969545
0.098571
0.163979
0.0252472
0.0378705
0.0264734
3.06635
0.0255348
0.0283441
0.490286
0.0255876
0.0248437
0.0253906
0.0273717
0.597006
2.79252
0.363726
3.49416
0.0254912
0.0265292
5.62198
0.0256399
0.0252363
3.05076
0.025239
0.0254135
0.0256801
0.0260732
0.0254201
4.61951
0.024892
0.0369315
0.408032
4.95689
0.0255343
4.69504
6.12835
0.025106
0.0525758
0.0247017
5.69672
0.0254123
0.024731
0.0255427
0.0256505
0.152979
0.0249566
0.0262509
0.0250428
0.0375855
0.0376631
0.0275056
0.087131
0.0248378
0.503708
6.27103
3.51905
0.0369229
0.0257078
0.497283
3.48376
4.93567
0.0256612
0.0414779
0.209079
4.84641
0.102008
0.428817
0.0254203
0.0248796
0.0253295
3.27528
0.0879955
8.0526
3.24207
5.76704
0.248827
0.038802
0.025646
0.0313687
5.94054
0.0250457
0.0270292
0.0446364
0.0254996
0.0256521
0.234372
0.0401744
0.043188
0.0368811
0.0367874
0.171347
4.11492
0.408642
2.24789
0.0439401
0.0252538
2.4759
0.0255772
0.045235
0.0252267
8.6102
0.025088
7.61644
6.23139
0.0254353
0.196032
0.0254241
0.30908
18.8225
0.111881
25.3283
0.0518968
0.0417825
0.0247229
3.46776
0.0361783
0.52015
6.93458
0.398283
0.0251987
0.0252989
4.1647
23.905
0.0281734
3.44225
0.0255761
5.30619
0.0256916
0.025398
0.563235
0.0285145
0.122767
0.165818
1.60491
0.417304
0.0405081
0.0483555
0.0248457
0.400849
0.0639797
6.26229
0.0260616
0.032357
0.0273083
4.34507
0.0657492
0.062118
0.0297063
0.0247962
0.157583
3.90264
0.02534
2.53213
0.567726
0.0251968
4.97137
0.02552
0.0731438
6.78332
7.04045
0.024791
0.0268213
0.110826
0.0262516
7.05395
0.0353714
0.916418
0.0401739
0.0263321
0.0256987
5.27704
0.026159
0.0251982
0.0260599
0.025636
0.0405457
0.0251675
0.0253509
0.025236
0.0321648
0.0928045
0.0731824
0.0282317
0.025023
0.619176
0.0497396
2.25997
4.18574
0.027676
0.0248507
0.0266174
0.0253481
4.5061
4.85313
0.0256605
0.0264068
0.195283
0.139372
0.0292042
7.17589
0.444162
0.0257082
0.0252433
0.0249168
0.163131
0.031435
0.0281311
0.0408435
0.0249039
14.7096
0.025198
0.0252424
0.0251121
3.87027
0.026145
0.0248083
0.0273391
0.0248778
0.0254494
3.57929
0.0297015
0.0431557
0.0254709
0.977176
0.0255025
0.0347554
0.0249029
6.427
6.53758
5.95076
8.46359
0.0256649
0.0254934
10.1674
0.198262
0.0263384
6.96199
0.0892936
4.77673
0.194904
0.0251496
4.25517
5.39883
5.51058
1.144
0.0913515
0.0263152
0.0333021
0.317076
0.0251657
0.0254247
0.0279134
0.0255847
0.0610014
1.07518
0.182263
0.0436555
0.0251671
0.0335671
0.0249209
0.0251504
0.0351839
0.0503435
0.0510686
0.0259565
10.0668
4.97937
0.164927
8.55371
6.28971
0.0255959
0.0302216
0.0290853
3.95736
0.026069
3.53575
0.246425
0.0246764
11.64
0.184689
0.231835
1.75455
7.83817
0.0254287
0.0492318
0.238316
0.0255
1.81843
5.90661
0.0414296
0.0379079
0.0398566
0.0296363
0.0254553
0.0248474
0.0251617
7.38025
0.0260307
0.122913
0.0280663
0.0254706
0.0318202
0.0255906
0.0248448
3.5717
5.5635
4.52551
0.120617
5.85425
7.2268
0.0273337
0.0254017
0.0249021
0.0260238
0.191526
0.0255986
20.4298
0.0247237
0.0252366
0.0259534
0.141096
0.0878257
0.128773
7.01783
4.77534
0.0262088
0.0373285
0.0605769
0.0252248
0.0271397
0.0255485
0.0465809
0.0257528
0.0251005
18.1921
0.0249131
0.0257238
4.09905
0.49894
1.7153
0.0316683
0.0672606
5.70456
0.0313471
0.0252113
6.12401
0.0264693
0.025466
7.45657
0.0324817
0.0247054
0.0259541
0.0273391
7.04138
0.0271805
0.309708
0.0371434
9.93433
0.0255584
0.153778
0.0252942
0.44903
18.7113
0.0391349
0.0285639
0.276185
0.0255701
0.0494071
0.025663
0.0250449
0.0358827
15.2255
0.0255654
0.0256136
0.723588
0.0254719
0.0317347
0.025785
3.49787
0.248923
0.0604388
0.0247277
6.2992
0.0284366
0.0386392
6.64606
0.0477503
0.0297546
0.0247958
0.0265923
0.0255541
0.774761
0.0254423
0.0263137
0.0253615
0.0249229
3.61797
0.0251679
0.025907
0.0482039
5.4209
0.025006
0.0255059
0.0249495
0.0294288
7.71961
6.47604
0.449249
0.0270229
4.42676
0.0271012
0.0254202
0.0256608
0.0251091
0.0251925
0.0262358
7.57203
0.0274688
0.0256514
4.39724
0.0249426
0.506921
0.282355
0.0385167
3.38906
0.0317304
5.01437
0.0609212
0.0256818
0.0256513
0.035739
0.0253226
0.0250175
7.21761
0.0320651
0.0255255
0.0357162
6.30802
5.92392
0.0437206
0.0308756
0.0289562
0.0931228
0.0254839
0.0309491
6.38404
0.0253413
0.0250053
0.0402704
0.0311251
1.42796
0.0453668
0.0249187
0.0380477
0.02565
0.0253644
7.24953
0.0443098
0.0251856
0.143321
0.0258961
0.02522
0.0528954
5.47969
0.0254302
0.0253045
0.0249536
0.0250031
5.56234
0.0254364
0.0256636
5.14124
0.0252666
0.0257733
7.35749
0.0254237
1.19709
0.0246486
0.221549
8.83465
0.907644
0.0254816
0.0254741
0.0362749
0.0264352
0.0246626
0.0266779
0.0249459
0.0372871
0.0248031
0.0389214
0.0384696
0.0255713
5.79229
0.0937904
8.06859
0.0283238
0.0246433
0.1303
0.0253941
0.0301766
0.222355
0.0347349
0.205826
4.51783
0.0252939
9.62699
0.113222
0.0274167
0.0285812
7.36666
7.01981
0.0247027
0.0251425
0.0251642
0.237683
0.110697
6.45166
5.86087
0.0253107
0.0603524
0.159187
0.774412
0.0376391
0.0289549
0.0307657
0.0249444
0.189383
6.70838
0.037688
0.400856
0.0246756
0.025174
0.0249451
0.0371546
0.0250262
0.215399
0.0254619
18.3269
0.31983
0.0359332
0.0948052
0.0249456
0.0252096
4.45553
0.0261323
17.9617
0.0250887
0.024948
0.0251136
0.0256521
0.0546086
0.0318902
5.61295
5.74563
0.0254643
0.0254602
0.0304232
0.117669
0.0719751
0.034083
0.02491
1.04807
0.0273397
6.11564
0.024806
0.379346
7.04524
0.0250144
0.0252323
0.0550327
0.0256913
0.0246617
0.045355
0.0256075
3.90682
0.0607403
0.729172
0.0251664
0.354907
21.2277
0.0554621
0.0256909
4.5041
0.0250754
0.388426
0.0253989
0.0255594
6.71891
0.114262
0.685171
0.0595005
0.0340008
0.0247257
5.1302
0.025181
8.60374
0.712107
0.0308503
0.0250012
0.0252769
0.0365413
0.0315546
0.0256234
0.10008
0.0936043
0.0369656
0.0254323
6.57485
5.24825
0.57613
0.025255
0.0528617
0.0247094
0.0254396
0.0438251
6.97192
0.0355977
4.56405
0.0486866
0.149997
0.199901
0.0253522
6.87239
6.43375
0.0251806
0.0321427
0.134399
0.0316251
0.0369256
0.0284362
0.0352418
2.58552
0.0249798
0.0455855
0.0250786
0.0254913
3.55187
5.98021
0.0630163
0.0253566
0.0248307
0.0247174
0.0272099
0.0442441
6.81938
0.0608219
0.263007
17.4885
0.0680614
0.0335326
5.38194
0.0253606
4.76607
0.0264192
0.0252202
0.0253227
0.0312202
0.076547
0.0249515
0.0287187
0.0430516
0.130916
0.0331463
0.200153
0.0252962
0.191444
0.0542376
0.0433131
0.0402801
0.0255354
0.0255207
8.5959
5.01357
0.0253812
0.113043
0.0253543
0.0248053
0.0254368
0.0274392
0.363127
0.0250103
0.0392758
0.024938
0.0290806
0.0252745
0.0454523
0.0261326
0.0250104
0.0254166
0.0588626
0.045145
4.3131
1.39995
0.0251913
0.0252967
0.0252426
3.26402
0.03208
0.0636929
5.68456
0.0358418
0.0299539
3.41959
0.0251164
0.025192
0.0252959
0.0249171
0.124645
0.0251882
0.0248171
0.497226
0.128708
0.0306594
0.0248535
3.49658
8.27037
0.0543506
0.029625
0.0319721
1.64001
0.066399
3.55296
0.5068
0.120107
5.77344
0.0273287
0.0366623
0.703476
0.025125
0.540296
0.0258967
0.0256368
6.6007
0.0355602
0.103782
3.64851
0.138451
0.0251712
3.242
0.0251044
0.0265681
0.0276148
0.0265656
0.0256253
6.31701
6.79918
0.0384084
0.1804
0.0289568
6.77658
4.10327
0.0380517
5.71441
0.0258972
0.0251005
0.0248821
0.0254643
0.0253297
15.3685
0.0324802
5.81845
0.249094
0.0253481
0.059564
0.0378877
0.0249054
0.0254509
5.84777
16.6425
0.0256505
0.0638531
0.0256182
0.0252592
0.0461304
0.027333
5.33961
0.178026
2.14637
3.14978
0.0327712
0.206992
0.0254771
20.391
0.121243
0.0249114
0.0302229
16.666
0.0252555
0.0583678
0.0248174
17.2064
0.0583225
0.0257613
0.0255987
0.0248347
0.0249466
0.0292935
20.7703
0.0250628
0.0249373
0.0306648
0.0257414
5.68372
0.0729897
0.0253615
0.0248211
0.0253434
0.043733
0.0253788
0.0252246
0.182708
1.84584
0.02533
0.0247124
0.0483765
6.42875
0.0253807
0.0249587
0.0250178
0.130616
0.0248138
6.34438
0.0457147
0.0529244
1.09196
5.07315
0.024924
0.767846
0.0245643
3.25187
0.0369997
0.029536
0.025435
0.0253195
6.9234
0.0255153
4.3335
0.0252658
0.072664
7.42359
7.98975
0.169701
0.0255503
4.70553
0.0256897
0.0250629
0.0305238
1.34895
0.0256322
0.23686
0.0657972
0.0257115
0.0322404
0.0256628
0.0257187
0.0253384
0.0253276
0.0252309
0.145381
0.0254655
0.0483809
0.0262581
20.5827
0.0256904
1.52902
0.0247767
0.0473329
0.0344813
0.141392
0.0439664
0.0667918
0.0315446
0.0287007
0.0256782
0.031253
0.149801
0.0309102
0.0249917
0.0247979
7.51656
0.0844995
0.0459782
0.0249631
0.0251224
0.152241
0.0954797
3.29595
4.78375
0.137878
0.057531
6.49675
0.0247107
0.0255913
19.7076
0.0367915
0.771092
0.0726459
0.0254505
0.0248815
0.104027
0.0248825
3.24737
0.0269845
0.0660353
0.0248638
0.18739
0.0255489
4.12306
0.0249044
0.024995
0.0958538
0.163928
0.207184
5.42979
0.0755317
4.25614
0.0316008
0.0729229
4.72743
0.0373365
0.539266
0.0257253
0.0248069
0.104393
6.47364
0.0687475
0.0270181
0.0251132
0.0678168
0.0255251
5.06486
6.88945
0.0252224
0.0255756
0.0252481
0.0333933
2.20811
0.0256323
5.78264
0.909107
4.179
0.0383174
0.0254303
0.0255176
2.07534
0.0251179
4.03074
0.0282456
0.0387934
0.0253324
0.0253872
0.0686998
0.0551189
1.91799
0.291262
0.0505263
0.0247151
0.0255655
0.0255714
4.00916
0.0921853
5.80315
0.0255076
4.79645
0.174101
0.0731672
0.0259496
0.0256061
0.0252984
0.0253592
6.10183
0.0458953
0.0247946
0.11821
0.646707
0.031128
0.0459052
0.0357514
0.0252259
0.534294
0.0254263
0.0389588
0.0253871
0.0535583
0.0487574
0.0252487
7.17174
0.0263507
7.61278
0.0249522
0.0254328
0.0248133
3.4392
5.53086
0.0334008
0.214239
0.120152
0.0257148
0.026399
0.0253884
8.1446
6.24255
0.14631
0.356017
0.0254686
0.0264464
20.4813
0.0268774
0.0352663
2.38167
0.0286798
0.0282369
5.99844
0.116129
8.02133
0.0265871
0.0910659
0.0260218
0.796601
3.86685
0.0253828
0.0266926
4.19081
0.163309
0.0578094
0.0253345
3.37515
5.0672
0.0254237
0.0735875
0.0247064
0.0253275
7.28111
0.0253373
0.0449114
0.0363168
0.211708
0.0254067
0.0254475
0.0248013
0.0462546
0.0279519
15.8004
6.86001
0.0890408
2.24443
0.0248918
0.0250748
0.0253683
0.0253926
0.0486096
0.0315148
7.66396
0.0371813
0.0261079
0.0619578
0.0247192
0.024957
0.0249188
0.540564
4.77005
3.98263
0.025218
0.0394139
3.91838
0.0253806
0.0251702
0.0259462
8.07494
3.18125
0.0256645
0.104801
0.0472097
0.0299834
0.0274463
0.0253756
0.1254
0.112824
0.0390506
0.445495
4.64383
0.0254434
0.0256544
0.0381942
0.0252956
0.0700321
0.0264369
0.0983533
0.0254037
5.71264
5.59947
0.0257713
0.0253623
0.0268718
0.0247377
0.14891
0.025064
0.0255316
0.0249336
0.161043
0.0253713
0.211193
0.0256798
0.025556
3.08559
0.0368105
0.0253551
0.191552
8.58156
0.917528
0.0252823
6.19736
0.0252657
0.0249882
0.0255871
0.0354913
0.0274361
0.04944
0.0545004
0.0326455
0.0254112
0.0247839
4.89118
0.106757
5.11727
0.77918
0.0250373
6.04699
0.0772715
0.0266108
0.0250973
0.119884
7.79502
0.024956
1.86885
10.0991
10.0788
0.045134
0.0253917
0.0365596
0.0277578
0.025431
0.0250486
0.0899149
0.0255449
0.025059
0.0256622
8.12672
6.78388
3.37938
13.5986
0.0359798
0.0249328
5.18576
0.469428
0.121177
0.0248435
0.0249823
0.0253558
0.0323631
0.0285688
0.0935857
0.024951
0.0368506
7.0943
0.0310419
0.0310634
0.151224
0.0558044
0.0256621
6.71507
0.0248183
5.03324
0.025349
4.41467
7.12957
0.163193
0.0543921
0.0250237
0.0248118
0.0254116
0.0252631
0.0248562
3.21858
7.12465
0.0254001
0.0962729
0.124089
0.027582
0.0253982
1.84239
0.0287518
21.6594
7.17709
5.60769
0.0767164
0.025455
0.0249925
6.31217
0.0247099
0.025296
0.0302381
0.203773
0.029498
0.0254627
0.188153
0.182328
0.274198
3.69865
6.47239
0.0249391
0.0249795
0.191944
0.0248914
0.025379
0.0250469
0.318274
0.196998
0.025306
0.0311127
6.24477
0.0254147
0.0535344
0.267116
0.0254409
0.0254211
0.0691118
0.0356764
0.0434252
4.04178
0.139104
0.025651
0.0253755
0.0245961
3.80281
0.0249857
5.98543
0.0252928
1.86842
0.0256359
0.0254293
0.0296323
0.026392
0.341345
3.71848
0.399731
0.0506593
0.0252996
0.0465537
0.0254365
0.0638358
1.51869
0.0247632
0.0618788
0.0253436
0.0248683
0.0253113
4.13329
0.103215
0.0255552
0.0265793
0.0955238
0.0257128
0.189604
2.84401
5.14734
6.85384
0.0260359
0.0916053
0.0253122
5.95574
0.0282737
0.0253568
3.7104
0.0290316
2.76229
0.0255136
0.141375
0.0446445
0.0256818
7.36256
6.32344
0.0417814
6.04736
7.80145
4.30606
0.0309111
3.40625
0.0254685
0.0254086
0.135464
5.44494
0.0428102
0.0254915
0.0248094
0.0254313
0.0255737
0.0254701
5.72646
3.97022
0.0253114
0.357234
0.03114
0.0334783
5.19322
4.3601
0.024889
0.0251313
0.0498846
4.52951
0.0253731
6.76212
0.0249533
0.0249023
0.0296516
0.0248186
0.680358
0.0247177
5.37406
6.17272
0.0276929
0.061024
0.0272535
0.0700627
0.0253721
0.0287615
4.04842
0.678678
0.02538
0.1427
0.028663
5.89858
0.264308
0.0248569
0.0262885
6.96158
5.11342
0.655995
0.0251235
0.0283747
0.96268
7.47458
0.0296237
0.0356997
0.396462
0.038616
0.0273325
5.91806
0.106946
0.570183
0.64687
0.0256929
0.0262561
0.0248875
3.95994
0.0259552
0.0258667
7.18325
0.0256831
0.0255571
0.0255266
0.122516
0.0254599
5.39398
0.025456
0.0679124
0.0298116
0.105434
0.0311169
0.0466235
0.0276806
0.182748
4.57837
5.88272
0.0252839
6.29023
0.0299382
0.153714
0.0299411
0.0344463
0.0256615
0.0298839
0.0251312
4.18633
0.367484
0.0259139
0.0252173
0.0255243
0.0447392
0.0247155
0.0313655
2.59035
0.0259212
0.0351706
5.90065
3.44742
0.029215
0.501408
0.0256265
0.0248012
0.0255386
0.0465
0.0253539
0.0252573
0.0250086
0.0254959
0.0248985
3.18072
0.0290149
5.12187
5.91982
0.0256798
0.130685
0.0253045
0.0312885
6.2554
1.47823
5.04781
0.0252535
0.0337972
0.024701
0.024751
7.93845
0.0433578
0.514025
0.0247729
0.0249618
0.0253707
0.0268384
0.690767
0.137581
0.0249918
0.0256905
0.0253506
5.20707
0.138596
0.0252862
2.75127
2.3374
6.09382
0.0333775
0.0863555
0.112813
0.0249067
0.024828
0.0254557
0.0249468
5.1263
10.0606
0.130366
0.0317491
0.198059
1.78051
0.0296393
0.0254286
0.0253802
0.427595
0.0309199
0.0427466
0.0315683
0.025277
0.0397264
0.0316448
0.027126
0.0262348
6.56747
5.33162
0.0249676
0.0580349
0.0262998
0.024952
0.0257126
4.64353
0.0253451
0.18377
0.0354624
0.02627
0.0253907
0.0253725
2.58397
0.0257181
0.0607792
7.01115
5.71693
0.0250153
0.0809014
0.0265705
0.0255774
0.0249397
0.0285246
0.0254209
0.0613642
0.0251453
7.15378
0.0299139
0.0253518
0.0263489
0.0540176
0.0307455
0.0310745
0.0315306
0.030341
0.0248168
0.0247332
0.0495324
0.0249338
1.26593
0.025652
0.0907455
5.23693
5.26831
0.0251191
0.22599
0.0564756
5.83201
5.88298
0.786564
3.71201
0.0247795
6.3432
0.0262046
0.0274897
0.21467
5.23002
0.0452713
3.68271
0.0251267
0.0286298
0.244149
0.183146
5.90569
0.658257
0.0748558
0.0286557
6.9214
0.0290289
0.454358
0.0255153
0.0606561
0.2611
0.0264687
0.0753574
0.0247371
0.0254724
0.0863283
0.0253594
4.83527
0.0310201
0.0253723
0.276365
4.06986
0.0247257
5.77
0.0288995
0.0248332
4.94696
5.48651
0.0262328
0.0252114
0.0255014
0.115259
0.0285463
5.66254
4.18184
0.199509
6.63813
0.0255451
0.0633482
0.0255722
3.81239
0.0253492
0.29656
5.17751
0.156634
4.3733
0.0252784
0.0250912
0.0245918
0.025331
0.0256615
0.0317638
6.79348
0.0272634
0.0523762
1.62299
4.44302
8.81512
3.91351
0.025012
0.0252126
0.0371088
0.026224
3.65099
0.043254
0.024977
6.06551
4.28287
0.0257597
0.0253188
0.025019
3.47675
0.0314205
0.025222
0.0251827
0.0254149
0.0253808
0.0253134
0.0248183
0.174843
0.0247356
0.625992
0.0938507
0.0276971
0.0317692
0.0275667
0.0254336
0.061031
0.0256623
0.0256798
0.0534106
0.588745
0.0251093
0.0571396
0.0263994
0.0515676
7.13022
0.0248221
0.0412822
0.0253374
8.63133
0.0262926
6.48682
2.11725
16.2266
7.83077
0.500749
0.138938
1.50542
6.64465
0.0261398
7.1786
0.0253031
0.213051
5.76522
0.0667824
0.0249993
0.0253463
0.0248112
7.92236
0.160474
0.0247968
0.0246851
0.0252464
0.107156
0.193005
0.0255839
0.0585885
5.94268
0.0248987
0.124725
0.0249635
0.0251721
0.0251473
0.0305858
8.28322
0.254952
0.283032
0.182047
8.11099
0.1238
2.94993
17.0837
0.572578
6.86814
0.0250086
0.0923802
0.0255094
0.0255415
0.0255168
0.0358737
0.0253506
0.0265917
18.2322
0.0264715
0.0274854
0.0275891
0.0326845
0.0250771
0.172705
0.0256557
0.0254991
0.125472
0.0432196
7.28172
0.0449003
0.0271286
0.0483997
8.42027
5.94331
0.0253488
0.170159
0.0265068
0.0584078
0.025475
0.0253946
0.027042
6.11804
0.0379969
9.72326
0.032376
6.13355
11.7125
6.20782
3.2335
0.0253019
0.0248775
7.19835
0.0522876
0.0692288
3.94981
0.0254967
0.0248759
0.0257147
0.0267408
0.0924858
6.67178
0.0886404
0.0248353
0.0249643
0.0253927
0.0610237
0.616083
0.0253003
0.0360644
0.0565899
0.025378
0.0484559
0.208861
4.66678
18.3832
0.0252732
0.0492234
5.46779
0.0601188
0.0324029
0.0764907
5.64707
0.0253425
0.0247201
0.0248541
0.0250424
0.0263426
6.94298
0.0247108
0.0253819
0.0457995
0.0301548
3.61559
0.0269574
0.0293689
0.03456
0.0475311
0.0252865
5.7175
0.0253423
0.0256618
0.115621
0.0378937
0.0251513
0.0257018
0.0432262
5.44724
0.032059
0.0275257
0.124708
0.0563789
0.0283615
4.64725
4.31803
0.0301661
0.0260937
0.0260447
5.83513
0.342029
0.0341267
0.0560105
0.0248076
0.0730169
0.025163
0.0312218
5.8825
0.0316396
0.051131
0.0280985
1.00576
0.0579501
0.0255257
0.127464
0.106907
0.0254336
0.0629428
0.0255047
0.0446602
14.6316
5.48973
2.10702
0.0693935
0.409416
0.350501
0.0652891
0.0253237
0.025367
0.0313746
0.0444719
6.22085
0.0340169
0.0255725
0.0252322
7.01365
0.0768535
6.83378
0.0262227
0.0249578
6.66779
7.04207
0.0252776
0.025395
0.0248051
0.0357568
0.061552
0.0259439
0.0297545
0.0357685
0.033311
3.79914
0.0251448
0.0302975
5.82584
0.0248238
0.0618987
0.0246891
0.0295067
7.31155
0.0297734
0.0390905
0.0249952
0.0250587
0.105798
0.0255354
0.0252392
0.0254451
0.0367096
0.116102
0.029729
0.0531128
0.0253804
0.0250993
0.036246
4.66112
5.57006
0.0294494
3.96266
0.0297576
0.0285662
0.0272965
5.41672
0.0281427
0.0255521
0.0254098
0.238544
0.0350625
0.0825942
0.025754
0.0254277
6.99768
0.0262701
0.0254865
4.75035
0.0314171
0.0252817
0.0248299
0.0370984
5.99604
3.34872
0.0250298
0.0348407
0.027196
0.0251658
0.0249392
0.0354232
0.0345119
0.0854329
0.0247337
0.037964
0.0392972
3.32703
0.0303973
7.29738
0.199729
0.0263438
3.71541
0.567909
0.528834
0.0369899
0.0365348
0.025494
0.0252871
0.0308744
4.49139
0.973933
0.025489
7.13737
0.0254951
0.0369187
0.0673901
0.0309033
0.0252903
0.445976
13.4979
0.0246147
0.0253629
0.0373373
0.0252536
0.0332786
0.0777795
2.11191
0.0356207
0.0256792
0.0247884
0.0617031
0.038954
0.131558
0.0280948
0.173563
0.0361293
0.13005
0.0561854
0.323249
0.152451
0.0691951
0.165602
3.19199
0.0291073
1.23572
0.0288616
0.114427
0.0253469
0.0248898
0.0410519
0.0252453
0.0572637
0.471098
0.0434171
0.0293903
6.35218
0.0368825
0.0328851
4.74935
0.0250911
0.808613
0.103602
0.0256804
5.60639
0.198322
0.109475
0.057944
3.65346
0.0400905
0.0256356
0.0570376
0.0381555
7.5234
0.0568606
0.0376562
0.036171
0.0298543
0.0706687
0.062566
0.550519
2.11394
0.027225
0.0249461
0.0257894
6.09361
0.0341944
0.0277098
0.0291001
7.25254
0.0346139
0.0254312
0.0356179
0.0249137
0.0253778
0.0289357
0.152551
0.0253719
4.89316
0.0256514
0.0251501
0.0577974
0.0329321
3.26019
0.0253018
0.0264315
6.68842
0.0350193
0.0253734
5.01918
3.13002
0.0296033
0.217084
0.0294667
0.0353802
6.33662
0.0341871
14.3286
0.433758
0.047578
0.0369833
0.0374509
0.0249664
0.0253122
0.0248982
0.0380212
0.372318
5.57008
0.0363989
0.0579806
0.0252542
0.024958
0.0270043
5.78574
0.0288736
0.0354109
0.0289323
0.025404
6.63349
0.0254895
0.024735
0.253785
0.0256454
0.0252634
0.0251165
0.0254428
0.0271246
3.29395
0.104926
0.0254576
0.0247083
0.045268
0.026893
0.0273651
4.52922
1.63325
5.58502
0.0252841
0.0580523
5.83576
9.55152
0.27854
10.3193
0.0282003
0.0253813
3.39163
0.0354946
4.4566
0.0263205
0.0252491
0.0263159
0.0275754
4.17361
3.26556
0.0275789
0.0357243
0.238781
0.0256078
13.5779
7.34887
0.0261632
0.0577453
9.65095
0.0252322
0.187428
5.13656
0.02561
0.0252423
5.39334
0.0251645
0.0254362
0.029368
7.06621
4.38943
0.0250161
0.034802
0.0261461
4.2728
0.206829
0.0254419
0.0249103
4.09925
6.29092
5.25421
0.0248075
0.0249827
0.025284
0.0574461
0.036778
0.0298708
0.0249361
0.0290419
5.68985
0.0548461
0.0249912
5.80399
0.0355603
0.0248691
0.0277034
0.0343659
0.0253737
0.112985
0.0422635
5.09509
0.0569618
0.0360317
3.77567
0.0415207
0.130751
3.35393
0.046862
5.5286
0.0345414
5.42341
4.91091
3.57068
0.0353698
10.4386
0.174542
0.0249826
0.0305191
0.0858632
0.0722848
0.0395467
6.71519
0.0278144
0.0250083
0.0349415
0.0248335
0.0252948
0.0293981
0.0926037
0.114981
0.0351669
18.6691
0.0252479
0.0270631
0.0250927
0.0253582
0.0605308
0.026443
0.0277002
0.025434
0.0253716
0.843982
0.025148
0.0255115
0.060311
0.0268309
4.51145
0.0653811
0.544516
0.0348922
0.0269818
0.0259276
0.109562
0.025272
14.0711
3.32799
0.02616
0.0253921
5.15745
0.155203
0.170634
4.82444
0.0247213
0.0251683
0.0291096
1.22325
0.0269272
0.0254558
0.041689
0.0358143
3.59094
5.79241
1.60649
0.088871
0.0255256
9.74994
0.0260111
0.029207
0.0252784
0.0292555
0.0874519
0.0540529
0.488087
0.0249571
0.0293133
0.0292517
0.0252671
5.90244
0.0351506
0.0286888
3.02333
0.611971
0.0253004
0.0249901
0.028537
5.6751
0.0247587
0.0533026
0.0296688
0.0262242
0.0659599
0.0812217
0.0266975
18.6443
0.0255992
0.150015
0.034675
0.0622685
0.0630423
0.0270519
0.919698
0.0626688
0.0255023
0.0313832
0.0524701
0.0250064
0.0427683
0.0340567
4.32346
0.0256415
8.40229
0.0252595
0.0405439
0.033351
0.0250856
6.33488
0.115774
0.0249142
0.0513633
0.0253662
0.0252963
0.0252092
0.0269432
0.0293693
0.0506586
0.0256795
0.028544
0.113154
0.057045
0.0607929
0.0497663
0.0248822
0.0256471
0.0250782
0.068841
0.0251443
0.0281472
0.171622
0.101914
0.0252968
0.0253738
0.0252742
0.114432
0.0255354
0.0283543
0.180226
0.0307226
22.7066
0.164445
0.0256689
0.136303
15.2872
0.0254875
0.0253091
6.33655
0.0472789
0.0434591
0.0254914
0.0249495
0.0246291
0.0263655
4.52523
6.58119
0.0252754
0.0980222
0.0458818
0.0287793
0.0250325
0.0256193
4.02515
0.0252872
0.0251351
6.46048
3.00922
0.0248726
0.0248179
0.0253809
4.35963
0.0268631
0.0260067
4.09624
3.98317
0.025157
0.0390779
0.0253325
0.15126
0.191105
0.0253958
6.71685
0.0281345
0.0752323
0.0251631
1.30753
4.56732
0.0918379
3.83459
5.66406
0.0247113
3.65108
0.0253576
0.0252115
3.89648
0.0256621
0.132968
0.0351319
6.55333
0.0253004
2.76972
6.48692
0.0252294
0.0256644
0.271162
3.71167
0.027455
0.0255046
0.0310627
0.136264
0.0318683
0.025176
6.08903
0.0258082
0.0307858
0.0262464
0.110599
8.18049
0.0251549
5.29263
0.0899775
0.206936
0.0256307
0.0265777
0.132707
0.183103
7.96857
0.0252054
0.0253156
0.025005
1.10248
0.174211
7.56272
9.07166
0.14714
0.0250072
0.0254763
0.0252052
5.76798
0.0252701
4.33871
7.46797
0.0253798
0.125851
0.0458892
0.0495681
0.207274
0.0253716
0.0250731
0.453996
1.61241
0.0250323
0.0257124
5.38908
0.433038
0.0305688
0.516008
0.026146
0.0258681
6.15484
7.49119
0.0254825
0.0273255
0.0248194
4.61254
7.74123
0.0249606
0.0252469
0.026089
0.0253138
0.0358833
0.0306182
0.0253227
5.23128
0.160039
0.0304519
0.0278551
6.06495
0.0250732
0.0255195
0.0252835
11.8642
0.409204
0.0253312
0.0252776
4.30277
0.0306532
5.54535
0.0255449
5.66276
6.77741
0.0924498
0.02508
0.0254761
0.0252329
0.0446435
0.980767
0.298771
0.831853
0.0398252
0.0253914
1.01098
17.8984
4.38922
0.038068
0.0251928
0.0249833
0.0246264
0.19476
2.51009
0.0273601
0.0373925
0.0252471
0.0253784
0.0251763
0.0827974
0.0252843
0.133961
0.024982
0.085222
5.29288
6.39127
3.09285
0.199855
0.0253225
0.0304356
0.0864909
0.0438114
0.0278848
0.0309463
0.0253281
0.0253341
0.029051
0.025089
0.025201
0.0688854
0.0248356
0.0412824
3.34429
0.0254611
0.033774
0.150247
0.0256624
13.1431
0.0450673
0.0301421
0.0253355
0.0246652
0.830604
0.0252834
0.0276301
0.0249085
0.0253945
0.0254465
0.557272
2.05221
0.0677322
0.0247042
5.82023
4.11498
5.81065
0.0270699
0.0247255
0.02495
0.0247758
0.0249426
4.90862
4.75223
0.114346
6.66333
0.0282916
0.0386609
0.0255392
5.60239
0.0268117
0.0246811
0.0260299
0.0427487
2.65263
0.512216
0.0256863
1.56236
0.0290048
5.4055
3.23127
5.69437
5.80312
0.101654
0.692192
12.8052
0.375482
4.67135
13.8833
0.0335545
0.0379961
0.088329
0.697358
0.0251625
0.0355595
6.70744
0.0254159
0.580626
0.0261168
0.026052
0.0307493
0.0252484
5.19892
9.81415
0.0248246
4.46897
0.0253131
0.870812
0.0256777
0.025551
0.162293
6.86722
16.8491
0.0251055
0.151582
0.0368612
0.0269555
4.99619
0.024887
0.0249173
0.0251224
0.0251959
4.2788
15.1534
0.102971
5.28845
0.0376696
0.0250252
0.0271243
7.35077
0.0272955
0.0257831
1.05066
0.0253094
0.0368613
0.295978
0.0931678
4.40926
0.0255088
0.0329371
0.748839
0.0259648
0.156073
0.0260845
0.0360902
0.0252822
0.0346355
0.129532
7.91817
17.3216
0.025112
5.77092
4.19867
0.0720508
0.183143
0.191605
7.65683
6.2433
0.0294558
6.7131
0.0262747
5.6021
0.0258388
0.044532
0.0326693
1.5035
0.0247882
0.0251136
0.0262062
0.130445
7.78781
0.0266305
0.0368283
0.357967
1.928
0.0776263
6.75926
0.0363988
1.09192
0.0255725
0.0248112
0.0251533
0.0956915
0.461519
0.0372203
0.0296685
0.0460142
0.0253575
0.119128
5.58937
5.07579
9.16925
0.517307
0.0253305
1.96469
0.0249147
0.025162
0.860176
7.25958
6.04628
7.05023
7.17465
5.885
1.20064
0.0253185
0.0249438
0.384838
4.20497
3.37884
0.0623132
0.0552403
5.18507
5.20364
4.2334
5.74236
0.0254145
0.0308331
0.0289911
0.0311844
0.0253023
0.0367428
0.0255059
0.025361
0.0307699
0.0253292
0.0262252
0.080938
0.0286328
0.0333997
0.0522174
0.035182
0.0350579
3.83171
0.0251697
6.42703
0.0256525
0.0360072
3.92776
13.2006
0.356064
0.0304034
0.0252757
4.82446
2.54877
5.61398
9.11708
0.02538
0.567042
7.82113
0.037116
0.0255337
0.0290672
0.242651
8.41007
0.0944197
6.88423
0.0254783
3.46597
0.0466587
5.76333
0.311158
0.0262665
4.16938
4.08614
0.0249886
13.3751
0.376779
0.0299718
0.0871169
5.36622
8.46344
0.200038
5.68632
0.924134
0.079112
0.0364838
0.0259578
0.0302987
6.00395
1.7985
4.67116
1.91561
0.148831
0.0256645
0.347322
0.3139
0.0779565
0.0252133
0.0253829
0.026007
4.61218
4.47255
5.94729
0.276011
0.0253127
0.031081
0.0286682
0.46889
0.099397
0.0284738
0.0256801
2.15761
0.025357
13.6059
0.0640426
3.82568
5.21794
5.68288
0.0256516
0.212632
0.0253255
1.74034
0.0250767
0.969213
4.6455
0.033958
0.0253222
0.0478917
7.58276
0.445704
0.976285
3.66208
0.0254685
0.0253031
0.0810152
11.6596
0.0248241
0.430246
0.0247337
0.0304808
6.83049
0.237239
0.0477342
3.34322
0.269139
9.72735
0.0253182
0.0414941
0.0365968
8.8179
4.86533
0.0255187
5.00892
0.039789
0.0256363
3.26021
0.0249156
1.73693
0.0252154
5.09046
0.0311503
5.63889
0.0499486
0.0265552
0.167988
8.65258
0.176808
4.99155
5.92282
0.0350144
0.121746
0.0247009
0.0264281
0.0254465
0.0249345
0.0288056
0.0250741
0.0255492
4.65243
0.483131
0.183634
8.68288
5.14423
0.280808
0.038631
6.43313
0.0312068
4.50326
5.92685
3.61829
0.0280553
0.0256503
0.0841203
4.73242
0.187528
0.0251276
7.45927
0.0560955
0.838014
0.0450205
5.68558
0.0287221
0.0263148
0.0340527
0.0324934
0.169092
0.0253608
0.71742
0.0385459
0.18877
0.0255493
0.0364246
4.95005
7.35391
0.0291716
0.0374523
0.0254763
0.0271588
0.318687
5.77228
14.3835
0.0448094
3.20204
0.0365829
0.025103
0.0261604
0.501417
7.19209
0.0262401
0.0250983
0.10136
1.21908
0.0593069
6.51548
0.0253504
8.26757
10.0884
0.255653
8.03709
0.0254329
0.0250818
0.13179
0.0383918
4.06923
0.0310955
0.142084
0.051444
0.0334326
0.231548
0.188732
0.0249173
0.0254789
0.0377102
0.797829
5.72776
5.65298
0.0988333
0.0249444
0.168027
0.0332636
3.92251
0.242787
0.0252552
0.0323599
2.32662
0.0249162
0.0256378
0.331386
0.0254928
0.286559
0.0391448
0.0601882
7.96913
0.0253254
0.0249832
0.0253269
0.0253304
0.0246911
0.0275898
0.0253363
0.025345
0.0253565
0.159469
0.0253676
0.0471336
0.0253197
0.0253814
0.0253967
0.564586
0.0254129
0.136378
0.0254307
0.0319582
0.0315023
8.40754
6.25681
6.66742
0.0254498
0.0353974
0.850449
0.169863
0.031422
0.0254855
0.0280915
5.55835
0.0393981
0.100681
0.037337
0.104304
21.7015
0.0919601
0.0250891
0.0254347
2.67066
1.1656
0.0288487
0.0253039
0.0387568
5.19546
0.376797
0.158906
0.0335487
6.71828
0.602393
0.0270264
0.0255
4.3217
7.18087
0.025471
0.0364367
5.71558
6.31122
0.174674
0.0249055
0.0388997
0.0249222
6.33573
0.0250193
6.17919
5.76496
0.034017
6.94469
0.0248546
0.147423
0.0253135
0.0261684
0.0613072
4.21742
0.0305964
0.0714635
0.0511464
0.0407786
0.0246676
0.0249712
0.0273494
0.0247312
0.0332844
0.0262466
5.98604
0.0253667
0.0249118
6.53112
0.0481319
7.6064
0.216164
6.56606
0.0281397
0.0250163
6.75211
4.45149
5.71297
5.89467
0.0353466
0.509052
0.142185
0.0252181
5.67064
0.0255185
5.79694
4.02362
5.97649
6.53868
0.0372965
0.0528586
7.56708
5.71228
0.0247283
3.13899
0.0549104
3.94332
1.3673
0.0833113
0.0253573
1.07072
4.79002
11.5233
0.0384706
0.592262
0.0293058
7.32608
6.2639
8.74993
0.0252709
0.180334
0.0332144
6.03537
5.74047
5.84717
2.16381
0.0591501
9.77465
0.0291282
0.997025
0.0421737
0.0378344
0.0252396
0.135316
0.0262373
0.0362195
4.33791
5.95021
0.0337851
5.22932
0.0365858
1.8616
0.0520707
5.48808
0.0260815
5.38735
0.0378105
8.09453
0.0249911
0.0368774
0.0252607
0.056891
0.124445
0.0348049
6.16213
0.232769
0.57059
0.703161
0.0388802
0.0255039
0.0252873
5.7877
0.0252618
3.43969
4.26595
0.22092
0.0297714
0.742405
0.0253554
0.0425019
0.0309127
0.044763
0.0342883
4.09515
0.049869
0.582902
0.0256705
0.0278636
0.0316021
0.0303012
0.0285625
0.154631
0.0254935
0.0252396
6.00998
0.0252364
0.134331
0.21367
9.40556