/*--------------------------------*- C++ -*----------------------------------*\
| =========                 |                                                 |
| \\      /  F ield         | OpenFOAM: The Open Source CFD Toolbox           |
|  \\    /   O peration     | Version:  v2012                                 |
|   \\  /    A nd           | Website:  www.openfoam.com                      |
|    \\/     M anipulation  |                                                 |
\*---------------------------------------------------------------------------*/
FoamFile
{
    version     2.0;
    format      ascii;
    class       volScalarField;
    location    "400";
    object      omega_0;
}
// * * * * * * * * * * * * * * * * * * * * * * * * * * * * * * * * * * * * * //

dimensions      [0 0 -1 0 0 0 0];


internalField   nonuniform List<scalar> 
14804
(
3.46995
0.0251123
0.0969719
0.0322813
0.037877
0.0639908
0.0262613
0.0253978
0.111715
0.0255686
0.394112
0.102524
0.0255566
0.038502
0.180172
7.22489
0.0389213
0.0310793
20.4429
0.050597
0.0256905
0.0280219
0.0407116
0.0257739
12.2291
0.0257787
0.0382872
0.037653
3.53712
0.0257466
0.0248658
0.0382526
0.0506996
0.0448573
0.102898
0.0262813
1.39868
0.0256333
10.7836
0.050903
0.0969517
0.0985708
0.163533
0.0252472
0.0378705
0.0264734
3.06643
0.0255348
0.0283441
0.490384
0.0255876
0.0248437
0.0253906
0.0273717
0.597083
2.79267
0.36154
3.49415
0.0254912
0.0265292
5.62198
0.0256399
0.0252363
3.05081
0.025239
0.0254135
0.0256801
0.0260732
0.0254201
4.61953
0.024892
0.0369315
0.405603
4.95692
0.0255343
4.69507
6.12837
0.025106
0.0525742
0.0247017
5.69672
0.0254123
0.024731
0.0255427
0.0256505
0.152969
0.0249566
0.0262509
0.0250428
0.0375855
0.0376631
0.0275056
0.0871309
0.0248378
0.503779
6.27106
3.51904
0.036923
0.0257078
0.48411
3.48375
4.93566
0.0256612
0.041478
0.209064
4.84643
0.102001
0.428896
0.0254203
0.0248796
0.0253295
3.27529
0.0879962
8.05265
3.24208
5.76705
0.24906
0.0388021
0.025646
0.0313687
5.94055
0.0250457
0.0270292
0.0446364
0.0254996
0.0256521
0.234411
0.0401744
0.0432017
0.0368811
0.0367874
0.171314
4.11491
0.400209
2.2473
0.0439401
0.0252538
2.4559
0.0255772
0.0452348
0.0252267
8.61036
0.025088
7.61643
6.23139
0.0254353
0.196026
0.0254241
0.309764
18.8225
0.111878
25.3282
0.0518968
0.0417825
0.0247229
3.46776
0.0361783
0.512138
6.93456
0.399903
0.0251987
0.0252989
4.16469
23.905
0.0281734
3.44225
0.0255761
5.30618
0.0256916
0.025398
0.564068
0.0285145
0.122768
0.165846
1.60418
0.412507
0.0405392
0.0483549
0.0248457
0.399607
0.0639793
6.26221
0.0260616
0.0323551
0.0273083
4.34507
0.0657499
0.0621203
0.0297063
0.0247962
0.157322
3.89057
0.02534
2.53751
0.567761
0.0251968
4.97139
0.02552
0.0731446
6.78333
7.04046
0.024791
0.0268213
0.110827
0.0262516
7.05392
0.0353714
0.937249
0.040174
0.0263321
0.0256987
5.27705
0.026159
0.0251982
0.0260599
0.025636
0.0405457
0.0251675
0.0253509
0.025236
0.0321647
0.0928043
0.0731828
0.0282317
0.025023
0.6422
0.0497397
2.26004
4.18573
0.027676
0.0248507
0.0266174
0.0253481
4.50611
4.85316
0.0256605
0.0264068
0.195284
0.139374
0.0292042
7.17592
0.443977
0.0257082
0.0252433
0.0249168
0.16316
0.031435
0.0281312
0.0408317
0.0249039
14.7097
0.025198
0.0252424
0.0251121
3.87026
0.026145
0.0248083
0.0273391
0.0248778
0.0254494
3.57894
0.0297015
0.0431586
0.0254709
0.977953
0.0255025
0.0347554
0.0249029
6.42699
6.53759
5.95069
8.46354
0.0256649
0.0254934
10.1676
0.198273
0.0263384
6.96198
0.0892382
4.77674
0.194909
0.0251496
4.25516
5.39882
5.51058
1.16915
0.0913562
0.0263152
0.0333023
0.317507
0.0251657
0.0254247
0.0279134
0.0255847
0.061001
1.06046
0.182214
0.0436491
0.0251671
0.0335674
0.0249209
0.0251504
0.0351841
0.0503434
0.0511014
0.0259565
10.0691
4.97938
0.164933
8.55377
6.28972
0.0255959
0.0302216
0.0290853
3.95734
0.026069
3.53538
0.246272
0.0246764
11.6401
0.184716
0.231257
1.75456
7.83816
0.0254287
0.0492319
0.238332
0.0255
1.79869
5.90659
0.0414296
0.0379079
0.0398575
0.0296363
0.0254553
0.0248474
0.0251617
7.38025
0.0260307
0.122916
0.0280663
0.0254706
0.0318202
0.0255906
0.0248448
3.57168
5.56344
4.52553
0.120616
5.85425
7.22679
0.0273337
0.0254017
0.0249021
0.0260238
0.191544
0.0255986
20.4298
0.0247237
0.0252366
0.0259534
0.141093
0.0878264
0.128746
7.01791
4.77536
0.0262088
0.0373285
0.060577
0.0252248
0.0271397
0.0255485
0.0465803
0.0257528
0.0251005
18.1923
0.0249131
0.0257238
4.09904
0.484324
1.76195
0.0316683
0.0672622
5.70455
0.0313471
0.0252113
6.12399
0.0264693
0.025466
7.45657
0.0324817
0.0247054
0.0259541
0.0273391
7.04131
0.0271805
0.309336
0.0371434
9.93438
0.0255584
0.153761
0.0252942
0.449104
18.7111
0.0391351
0.0285639
0.276578
0.0255701
0.0494069
0.025663
0.0250449
0.0358827
15.2266
0.0255654
0.0256136
0.731538
0.0254719
0.0317347
0.025785
3.49786
0.250728
0.0604392
0.0247277
6.2992
0.0284366
0.0386392
6.64611
0.0477443
0.0297546
0.0247958
0.0265923
0.0255541
0.782722
0.0254423
0.0263137
0.0253615
0.0249229
3.61795
0.0251679
0.025907
0.0482039
5.42084
0.025006
0.0255059
0.0249495
0.0294288
7.71966
6.47577
0.449169
0.0270229
4.42677
0.0271012
0.0254202
0.0256608
0.0251091
0.0251925
0.0262358
7.57219
0.0274688
0.0256514
4.38792
0.0249426
0.506261
0.279858
0.0385167
3.42482
0.0317304
5.01438
0.0609214
0.0256818
0.0256513
0.0357391
0.0253226
0.0250175
7.21765
0.0320651
0.0255255
0.0357162
6.308
5.92385
0.0437206
0.0308756
0.0289562
0.0931228
0.0254839
0.0309491
6.38407
0.0253413
0.0250053
0.0402703
0.0311251
1.42577
0.0453669
0.0249187
0.038047
0.02565
0.0253644
7.24952
0.0443098
0.0251856
0.143319
0.0258961
0.02522
0.0528935
5.47969
0.0254302
0.0253045
0.0249536
0.0250031
5.56235
0.0254364
0.0256636
5.13398
0.0252666
0.0257733
7.35742
0.0254237
1.23729
0.0246486
0.221424
8.83465
0.912118
0.0254816
0.0254741
0.0362749
0.0264352
0.0246626
0.0266779
0.0249459
0.0372869
0.0248031
0.0389212
0.0384696
0.0255713
5.79228
0.0937914
8.06858
0.0283238
0.0246433
0.130305
0.0253941
0.0301766
0.221849
0.0347351
0.205754
4.51784
0.0252939
9.62709
0.113224
0.0274167
0.0285812
7.36668
7.01985
0.0247027
0.0251425
0.0251642
0.237882
0.110696
6.45162
5.86088
0.0253107
0.0603524
0.15892
0.776258
0.0376391
0.0289549
0.0307657
0.0249444
0.189372
6.7084
0.0376881
0.400797
0.0246756
0.025174
0.0249451
0.0371546
0.0250262
0.2156
0.0254619
18.3269
0.317227
0.0359331
0.0946023
0.0249456
0.0252096
4.45555
0.0261323
17.9617
0.0250887
0.024948
0.0251136
0.0256521
0.0546082
0.0318902
5.61294
5.74563
0.0254643
0.0254602
0.0304232
0.117672
0.071979
0.0340834
0.02491
1.04829
0.0273397
6.12025
0.024806
0.385254
7.04527
0.0250144
0.0252323
0.0550308
0.0256913
0.0246617
0.0453553
0.0256075
3.90683
0.0607409
0.707071
0.0251664
0.358834
21.2346
0.0554556
0.0256909
4.5041
0.0250754
0.387692
0.0253989
0.0255594
6.71892
0.114255
0.685554
0.0595004
0.0340006
0.0247257
5.13023
0.025181
8.59509
0.704363
0.0308503
0.0250012
0.0252769
0.0365413
0.0315546
0.0256234
0.100075
0.0936895
0.0369656
0.0254323
6.57487
5.24826
0.576207
0.025255
0.0528599
0.0247094
0.0254396
0.0438184
6.9719
0.0355977
4.56406
0.0486872
0.149976
0.199884
0.0253522
6.87244
6.45867
0.0251806
0.0321427
0.134404
0.0316251
0.0369247
0.0284362
0.0352428
2.59874
0.0249798
0.0455851
0.0250786
0.0254913
3.55185
5.98014
0.0630176
0.0253566
0.0248307
0.0247174
0.0272099
0.0442138
6.81939
0.0608223
0.262125
17.4885
0.0680617
0.0335326
5.38193
0.0253606
4.7661
0.0264192
0.0252202
0.0253227
0.0312202
0.0765468
0.0249515
0.0287187
0.0430517
0.130912
0.0331463
0.200107
0.0252962
0.191416
0.0542375
0.0433132
0.0402801
0.0255354
0.0255207
8.59596
5.0136
0.0253812
0.113035
0.0253543
0.0248053
0.0254368
0.0274392
0.363041
0.0250103
0.0392791
0.024938
0.0290806
0.0252745
0.0454519
0.0261326
0.0250104
0.0254166
0.0588634
0.0451445
4.42702
1.39982
0.0251913
0.0252967
0.0252426
3.26404
0.0320801
0.0636935
5.6845
0.0358432
0.0299539
3.41959
0.0251164
0.025192
0.0252959
0.0249171
0.124658
0.0251882
0.0248171
0.510052
0.1287
0.0306594
0.0248535
3.49657
8.27043
0.0543515
0.029625
0.0319721
1.64013
0.0663984
3.55297
0.525104
0.120108
5.77345
0.0273287
0.036663
0.7033
0.025125
0.549172
0.0258967
0.0256368
6.60077
0.0355602
0.103881
3.64852
0.138539
0.0251712
3.24201
0.0251044
0.0265681
0.0276148
0.0265656
0.0256253
6.31701
6.7992
0.0384084
0.180423
0.0289568
6.77661
4.07911
0.0380533
5.71435
0.0258972
0.0251005
0.0248821
0.0254643
0.0253297
15.3685
0.0324802
5.81844
0.248831
0.0253481
0.0595631
0.0378876
0.0249054
0.0254509
5.84769
16.6424
0.0256505
0.0638539
0.0256182
0.0252592
0.0461299
0.027333
5.33963
0.177981
2.14649
3.15005
0.0327712
0.206981
0.0254771
20.3908
0.121233
0.0249114
0.0302229
16.6659
0.0252555
0.058372
0.0248174
17.2064
0.058324
0.0257613
0.0255987
0.0248347
0.0249466
0.0292935
20.77
0.0250628
0.0249373
0.0306648
0.0257414
5.68371
0.0729881
0.0253615
0.0248211
0.0253434
0.0437038
0.0253788
0.0252246
0.182712
1.81828
0.02533
0.0247124
0.0483757
6.42875
0.0253807
0.0249587
0.0250178
0.130614
0.0248138
6.34436
0.0457138
0.052924
1.09213
5.071
0.024924
0.773318
0.0245643
3.25188
0.0369996
0.029536
0.025435
0.0253195
6.92342
0.0255153
4.33352
0.0252658
0.0726642
7.42358
7.98979
0.169739
0.0255503
4.70553
0.0256897
0.0250629
0.0305238
1.34567
0.0256322
0.237606
0.0657971
0.0257115
0.0322404
0.0256628
0.0257187
0.0253384
0.0253276
0.0252309
0.14538
0.0254655
0.0483806
0.0262581
20.5825
0.0256904
1.48549
0.0247767
0.0473012
0.0344813
0.141446
0.0439664
0.0667925
0.0315446
0.0287007
0.0256782
0.031253
0.149823
0.0309101
0.0249917
0.0247979
7.51648
0.0844988
0.0459778
0.0249631
0.0251224
0.152215
0.0954791
3.29596
4.78375
0.137879
0.0575325
6.4967
0.0247107
0.0255913
19.7076
0.0367915
0.77094
0.0726457
0.0254505
0.0248815
0.104032
0.0248825
3.24738
0.0269845
0.0660352
0.0248638
0.187409
0.0255489
4.12344
0.0249044
0.024995
0.0958996
0.163916
0.207182
5.42978
0.0755303
4.25608
0.0315997
0.0729243
4.72745
0.0373365
0.539388
0.0257253
0.0248069
0.104398
6.47363
0.0687472
0.0270181
0.0251132
0.0678182
0.0255251
5.06484
6.88948
0.0252224
0.0255756
0.0252481
0.0333933
2.14557
0.0256323
5.78266
0.907912
4.17898
0.0383174
0.0254303
0.0255176
2.07931
0.0251179
4.00536
0.0282454
0.0387934
0.0253324
0.0253872
0.0686995
0.0551191
1.93609
0.289319
0.0505219
0.0247151
0.0255655
0.0255714
4.00916
0.0921868
5.82151
0.0255076
4.79646
0.174094
0.0731682
0.0259496
0.0256061
0.0252984
0.0253592
6.1018
0.0458953
0.0247946
0.118205
0.654884
0.031128
0.0459056
0.0357507
0.0252259
0.546363
0.0254263
0.0389588
0.0253871
0.0535582
0.0487573
0.0252487
7.17173
0.0263507
7.61276
0.0249522
0.0254328
0.0248133
3.43919
5.53087
0.0334006
0.213883
0.12015
0.0257148
0.026399
0.0253884
8.1445
6.24254
0.146306
0.355715
0.0254686
0.0264464
20.4814
0.0268774
0.0352662
2.38208
0.0286801
0.0282369
5.99842
0.116134
8.02125
0.0265871
0.0910723
0.0260218
0.798374
3.86683
0.0253828
0.0266926
4.19081
0.163364
0.0578102
0.0253345
3.37515
5.06719
0.0254237
0.0735884
0.0247064
0.0253275
7.28047
0.0253373
0.0449114
0.0363168
0.211725
0.0254067
0.0254475
0.0248013
0.04625
0.0279519
15.8004
6.85995
0.0889318
2.24327
0.0248918
0.0250748
0.0253683
0.0253926
0.0486116
0.0315148
7.66401
0.0371814
0.0261079
0.0619575
0.0247192
0.024957
0.0249188
0.544579
4.77007
3.98261
0.025218
0.0394139
3.91838
0.0253806
0.0251702
0.0259462
8.07483
3.18126
0.0256645
0.104799
0.0472097
0.0299834
0.0274463
0.0253756
0.125394
0.112828
0.0390506
0.44783
4.60586
0.0254434
0.0256544
0.0381941
0.0252956
0.0700326
0.0264369
0.0983528
0.0254037
5.71265
5.59946
0.0257713
0.0253623
0.0268718
0.0247377
0.148913
0.025064
0.0255316
0.0249336
0.161054
0.0253713
0.211577
0.0256798
0.025556
3.08796
0.0368106
0.0253551
0.191549
8.58152
0.921879
0.0252823
6.19743
0.0252657
0.0249882
0.0255871
0.0354913
0.0274361
0.0494328
0.0545
0.0326455
0.0254112
0.0247839
4.89121
0.106757
5.11727
0.795641
0.0250373
6.04692
0.0772713
0.0266108
0.0250973
0.119887
7.79502
0.024956
1.86899
10.0992
10.0789
0.0451342
0.0253917
0.0365596
0.0277578
0.025431
0.0250486
0.0899145
0.0255449
0.025059
0.0256622
8.12672
6.78385
3.37938
13.599
0.0359798
0.0249328
5.18582
0.474446
0.121179
0.0248435
0.0249823
0.0253558
0.0323631
0.0285688
0.0936106
0.024951
0.0368496
7.09435
0.0310419
0.0310634
0.15122
0.0558116
0.0256621
6.71515
0.0248183
5.03323
0.025349
4.41468
7.1296
0.163188
0.0543923
0.0250237
0.0248118
0.0254116
0.0252631
0.0248562
3.211
7.12462
0.0254001
0.096293
0.124082
0.027582
0.0253982
1.81138
0.0287518
21.6595
7.17709
5.60763
0.0767244
0.025455
0.0249925
6.31211
0.0247099
0.025296
0.0302381
0.203697
0.029498
0.0254627
0.188131
0.182314
0.274384
3.69863
6.4723
0.0249391
0.0249795
0.191913
0.0248914
0.025379
0.0250469
0.315597
0.197032
0.025306
0.0311127
6.24476
0.0254147
0.0535338
0.267304
0.0254409
0.0254211
0.0691117
0.0356765
0.0434235
4.04178
0.139103
0.025651
0.0253755
0.0245961
3.80279
0.0249857
5.98539
0.0252928
1.86859
0.0256359
0.0254293
0.0296323
0.0263924
0.341326
3.71846
0.392898
0.0506593
0.0252996
0.0465537
0.0254365
0.0638363
1.51911
0.0247632
0.0618789
0.0253436
0.0248683
0.0253113
4.13328
0.103221
0.0255552
0.0265793
0.0955275
0.0257128
0.189569
2.84924
5.14734
6.85332
0.0260359
0.0916023
0.0253122
5.95572
0.0282737
0.0253568
3.71038
0.0290316
2.76239
0.0255136
0.14144
0.0446435
0.0256818
7.36256
6.32343
0.0417815
6.04737
7.80146
4.30606
0.0309111
3.40893
0.0254685
0.0254086
0.135426
5.44489
0.0428102
0.0254915
0.0248094
0.0254313
0.0255737
0.0254701
5.72645
3.9702
0.0253114
0.357751
0.03114
0.0334783
5.19325
4.3601
0.024889
0.0251313
0.0498921
4.52952
0.0253731
6.76293
0.0249533
0.0249023
0.0296516
0.0248186
0.66584
0.0247177
5.37409
6.17272
0.0276929
0.0610241
0.0272535
0.0700631
0.0253721
0.0287615
4.04842
0.674817
0.02538
0.142707
0.028663
5.89859
0.264052
0.0248569
0.0262886
6.96165
5.1134
0.656321
0.0251235
0.0283747
0.962889
7.47463
0.0296237
0.0356998
0.38727
0.0386188
0.0273325
5.91809
0.106946
0.57021
0.642467
0.0256929
0.0262561
0.0248875
3.95993
0.0259552
0.0258667
7.1833
0.0256831
0.0255571
0.0255266
0.122514
0.0254599
5.39393
0.025456
0.0679125
0.0298116
0.105432
0.0311169
0.0466319
0.0276806
0.182586
4.57839
5.87951
0.0252839
6.29029
0.0299382
0.153696
0.0299411
0.0344464
0.0256615
0.0298839
0.0251312
4.18632
0.367553
0.0259139
0.0252173
0.0255243
0.0447319
0.0247155
0.0313655
2.59045
0.0259212
0.0351706
5.90064
3.41276
0.029215
0.507178
0.0256265
0.0248012
0.0255386
0.0465
0.0253539
0.0252573
0.0250086
0.0254959
0.0248985
3.18074
0.0290149
5.12184
5.91983
0.0256798
0.1307
0.0253045
0.0312885
6.25543
1.43984
5.04781
0.0252535
0.0337972
0.024701
0.024751
7.93847
0.0433577
0.514143
0.0247729
0.0249618
0.0253707
0.0268384
0.689825
0.137578
0.0249918
0.0256905
0.0253506
5.19495
0.138725
0.0252862
2.75281
2.38061
6.10007
0.0333775
0.0863558
0.112813
0.0249067
0.024828
0.0254557
0.0249468
5.12551
10.0607
0.130355
0.0317491
0.198102
1.78111
0.0296393
0.0254286
0.0253802
0.427118
0.0309199
0.0427467
0.0315683
0.025277
0.0397266
0.0316448
0.027126
0.0262348
6.56749
5.33161
0.0249676
0.058043
0.0262998
0.024952
0.0257126
4.64355
0.0253451
0.183803
0.0354624
0.02627
0.0253907
0.0253725
2.58406
0.0257181
0.0607791
7.01121
5.71694
0.0250153
0.0809005
0.0265705
0.0255774
0.0249397
0.0285246
0.0254209
0.0613647
0.0251453
7.15057
0.0299139
0.0253518
0.0263489
0.0540274
0.0307455
0.0310745
0.0315306
0.030341
0.0248168
0.0247332
0.0495325
0.0249338
1.26104
0.025652
0.0907443
5.23697
5.2683
0.0251191
0.225893
0.0564137
5.83202
5.88293
0.786758
3.71201
0.0247795
6.34312
0.0262046
0.0274897
0.214618
5.22998
0.0452714
3.74527
0.0251267
0.0286298
0.244193
0.183118
5.90571
0.660533
0.074856
0.0286557
6.9214
0.0290289
0.457284
0.0255153
0.0606556
0.261215
0.0264687
0.0753572
0.0247371
0.0254724
0.0863252
0.0253594
4.83529
0.0310201
0.0253723
0.275418
4.06986
0.0247257
5.77001
0.0288995
0.0248332
4.94696
5.48649
0.0262328
0.0252114
0.0255014
0.115259
0.0285463
5.66248
4.18183
0.199497
6.63817
0.0255451
0.0633506
0.0255722
3.81238
0.0253492
0.296939
5.17755
0.156435
4.37331
0.0252784
0.0250912
0.0245918
0.025331
0.0256615
0.0317638
6.79358
0.0272634
0.0523763
1.62323
4.44303
8.81515
3.91351
0.025012
0.0252126
0.0371088
0.026224
3.65099
0.043254
0.024977
6.06556
4.28287
0.0257597
0.0253188
0.025019
3.4767
0.0314204
0.025222
0.0251827
0.0254149
0.0253808
0.0253134
0.0248183
0.17487
0.0247356
0.622743
0.0938533
0.0276971
0.0317692
0.0275667
0.0254336
0.0610304
0.0256623
0.0256798
0.0534129
0.589426
0.0251093
0.0571514
0.0263994
0.0515718
7.13026
0.0248221
0.0412867
0.0253374
8.62548
0.0262926
6.48681
2.10495
16.2267
7.83078
0.49917
0.138949
1.57528
6.64458
0.0261398
7.17871
0.0253031
0.213031
5.76522
0.0667845
0.0249993
0.0253463
0.0248112
7.92235
0.160601
0.0247968
0.0246851
0.0252464
0.107161
0.192987
0.0255839
0.0585879
5.94273
0.0248987
0.124719
0.0249635
0.0251721
0.0251473
0.0305858
8.28322
0.25525
0.283437
0.182078
8.11102
0.12381
2.96086
17.0841
0.554732
6.86808
0.0250086
0.0923751
0.0255094
0.0255415
0.0255168
0.035872
0.0253506
0.0265917
18.2296
0.0264715
0.0274854
0.0275891
0.0326845
0.0250771
0.172681
0.0256557
0.0254991
0.12547
0.0432197
7.28168
0.044901
0.0271286
0.0483997
8.42021
5.95163
0.0253488
0.169988
0.0265068
0.0584048
0.025475
0.0253946
0.027042
6.11793
0.0379969
9.72671
0.032376
6.13815
11.7124
6.20783
3.23351
0.0253019
0.0248775
7.19843
0.0522877
0.0692274
3.9498
0.0254967
0.0248759
0.0257147
0.0267408
0.0924867
6.67176
0.08864
0.0248353
0.0249643
0.0253927
0.0610249
0.617075
0.0253003
0.0360645
0.0565898
0.025378
0.0484518
0.208898
4.66679
18.3835
0.0252732
0.0492234
5.4678
0.0601208
0.0324028
0.0765194
5.64707
0.0253425
0.0247201
0.0248541
0.0250424
0.0263426
6.94299
0.0247108
0.0253819
0.0457995
0.0301548
3.61559
0.0269574
0.0293689
0.0345597
0.0475565
0.0252865
5.7175
0.0253423
0.0256618
0.11562
0.037894
0.0251513
0.0257018
0.0432263
5.44719
0.032059
0.0275257
0.124706
0.0563839
0.0283615
4.64726
4.31804
0.0301661
0.0260937
0.0260447
5.83515
0.342729
0.0341265
0.0560099
0.0248076
0.073017
0.025163
0.0312218
5.88249
0.0316396
0.0511302
0.0280985
1.01063
0.0579494
0.0255257
0.127453
0.106914
0.0254336
0.0629428
0.0255047
0.0446601
14.62
5.48975
2.13001
0.0693885
0.409163
0.350419
0.0652894
0.0253237
0.025367
0.0313748
0.0444705
6.22091
0.0340167
0.0255725
0.0252322
7.01368
0.0768531
6.83381
0.0262227
0.0249578
6.66778
7.04213
0.0252776
0.025395
0.0248051
0.0357569
0.0615543
0.0259439
0.0297545
0.0357685
0.033311
3.79912
0.0251448
0.0302975
5.82584
0.0248238
0.0618983
0.0246891
0.0295067
7.3117
0.0297734
0.0390903
0.0249952
0.0250587
0.105799
0.0255354
0.0252392
0.0254451
0.0367096
0.116099
0.029729
0.0531143
0.0253804
0.0250993
0.036246
4.66114
5.57007
0.0294494
3.96267
0.0297576
0.0285662
0.0272965
5.41029
0.0281427
0.0255521
0.0254098
0.238376
0.0350625
0.0825951
0.025754
0.0254277
6.99767
0.0262701
0.0254865
4.75037
0.0314171
0.0252817
0.0248299
0.0370983
5.99564
3.34873
0.0250298
0.034841
0.027196
0.0251658
0.0249392
0.0354232
0.0345118
0.0854323
0.0247337
0.037964
0.0392971
3.32703
0.0303973
7.29741
0.199771
0.0263438
3.71541
0.57208
0.528959
0.0369899
0.0365348
0.025494
0.0252871
0.0308744
4.4914
0.974054
0.025489
7.13739
0.0254951
0.0369187
0.0673888
0.0309033
0.0252903
0.44189
13.4977
0.0246147
0.0253629
0.0373374
0.0252536
0.0332784
0.0777793
2.09053
0.0356206
0.0256792
0.0247884
0.0617015
0.038954
0.131564
0.0280948
0.173599
0.0361291
0.13004
0.0561869
0.323325
0.152424
0.0691953
0.165801
3.192
0.0291073
1.22158
0.0288616
0.114423
0.0253469
0.0248898
0.0410642
0.0252453
0.0572627
0.476929
0.0434174
0.0293903
6.35211
0.0368825
0.0328851
4.74938
0.0250911
0.805559
0.103712
0.0256804
5.60639
0.198285
0.109588
0.0579421
3.65344
0.0400896
0.0256356
0.0570355
0.0381555
7.52339
0.0568623
0.037656
0.036171
0.0298543
0.0706685
0.0625688
0.54834
2.11378
0.0272251
0.0249461
0.0257894
6.0937
0.0341944
0.0277098
0.0291001
7.2556
0.0346138
0.0254312
0.0356179
0.0249137
0.0253778
0.0289357
0.152532
0.0253719
4.89317
0.0256514
0.0251501
0.057799
0.0329321
3.2602
0.0253018
0.0264315
6.68835
0.0350193
0.0253734
5.01918
3.13003
0.0296033
0.217142
0.0294667
0.0353802
6.33659
0.0341871
14.3396
0.433988
0.047578
0.0369833
0.037451
0.0249664
0.0253122
0.0248982
0.0380212
0.372413
5.57005
0.0363987
0.0579784
0.0252542
0.024958
0.0270043
5.78566
0.0288736
0.0354109
0.0289323
0.025404
6.63351
0.0254895
0.024735
0.254229
0.0256454
0.0252634
0.0251165
0.0254428
0.0271246
3.29396
0.104926
0.0254576
0.0247083
0.045268
0.026893
0.0273651
4.52921
1.61812
5.58498
0.0252841
0.0580543
5.83577
9.55159
0.277344
10.3706
0.0282003
0.0253813
3.39164
0.0354946
4.45662
0.0263205
0.0252491
0.0263159
0.0275754
4.17362
3.26557
0.0275789
0.0357243
0.238972
0.0256078
13.5701
7.34898
0.0261632
0.0577429
9.65093
0.0252322
0.187339
5.13654
0.02561
0.0252423
5.39334
0.0251645
0.0254362
0.029368
7.0655
4.38943
0.0250161
0.034802
0.0261461
4.27282
0.206956
0.0254419
0.0249103
4.09924
6.2909
5.25419
0.0248075
0.0249827
0.025284
0.0574483
0.036778
0.0298708
0.0249361
0.0290419
5.68985
0.054848
0.0249912
5.80399
0.0355604
0.0248691
0.0277035
0.0343659
0.0253737
0.112986
0.0422633
5.09506
0.0569599
0.0360317
3.77566
0.041525
0.130752
3.35393
0.0468642
5.52862
0.0345414
5.42349
4.91091
3.57067
0.0353698
10.4388
0.174558
0.0249826
0.0305191
0.0858639
0.072304
0.0395445
6.71513
0.0278144
0.0250083
0.0349416
0.0248335
0.0252948
0.0293981
0.0926046
0.114983
0.0351669
18.6691
0.0252479
0.0270631
0.0250927
0.0253582
0.0605306
0.026443
0.0277
0.025434
0.0253716
0.843309
0.025148
0.0255115
0.0603101
0.0268309
4.51146
0.0653592
0.545296
0.0348923
0.0269818
0.0259276
0.109562
0.025272
14.0709
3.328
0.02616
0.0253921
5.15742
0.155195
0.170628
4.82443
0.0247213
0.0251683
0.0291096
1.22528
0.0269272
0.0254558
0.041689
0.0358143
3.59095
5.79241
1.65286
0.0888718
0.0255256
9.75496
0.0260111
0.029207
0.0252784
0.0292555
0.0874519
0.0540514
0.488679
0.0249571
0.0293133
0.0292517
0.0252671
5.90242
0.0351506
0.0286888
3.02197
0.633722
0.0253004
0.0249901
0.028537
5.6751
0.0247587
0.0533035
0.0296688
0.0262242
0.0659356
0.0811909
0.0266975
18.6443
0.0255992
0.150008
0.034675
0.0622683
0.0630388
0.0270519
0.919765
0.0626899
0.0255023
0.0313832
0.0524696
0.0250064
0.0427682
0.0340567
4.32348
0.0256415
8.39111
0.0252595
0.040534
0.033351
0.0250856
6.33486
0.115777
0.0249142
0.0513627
0.0253662
0.0252963
0.0252092
0.0269432
0.0293693
0.0506591
0.0256795
0.028544
0.113153
0.0570311
0.0607938
0.049766
0.0248822
0.0256471
0.0250782
0.0687934
0.0251443
0.0281472
0.171631
0.10191
0.0252968
0.0253738
0.0252742
0.114429
0.0255354
0.0283543
0.180619
0.0307226
22.7057
0.164423
0.0256689
0.136225
15.2875
0.0254875
0.0253091
6.33653
0.0472789
0.0434591
0.0254914
0.0249495
0.0246291
0.0263655
4.52525
6.58119
0.0252754
0.0980266
0.0458818
0.0287793
0.0250325
0.0256193
4.02514
0.0252872
0.0251351
6.46812
2.88023
0.0248726
0.0248179
0.0253809
4.35963
0.0268631
0.0260067
4.09623
3.98316
0.025157
0.0390778
0.0253325
0.15088
0.191132
0.0253958
6.71691
0.0281345
0.0752321
0.0251631
1.30886
4.56734
0.0918378
3.83458
5.66406
0.0247113
3.65107
0.0253576
0.0252115
3.89648
0.0256621
0.132955
0.0351317
6.52712
0.0253004
2.76974
6.48693
0.0252294
0.0256644
0.270946
3.71166
0.027455
0.0255046
0.0310627
0.136271
0.0318683
0.025176
6.08909
0.0258082
0.0307858
0.0262464
0.11058
8.18042
0.0251549
5.29263
0.0899789
0.206992
0.0256307
0.0265777
0.132701
0.183119
7.96861
0.0252054
0.0253156
0.025005
1.13602
0.174237
7.56272
9.0716
0.147184
0.0250072
0.0254763
0.0252052
5.76787
0.0252701
4.33873
7.468
0.0253798
0.125851
0.0458892
0.0495645
0.207326
0.0253716
0.0250731
0.453987
1.6121
0.0250323
0.0257125
5.38911
0.434766
0.0305688
0.537512
0.026146
0.0258681
6.15474
7.49124
0.0254825
0.0273255
0.0248194
4.61253
7.74126
0.0249606
0.0252469
0.0260889
0.0253138
0.0358833
0.0306182
0.0253227
5.23127
0.160042
0.0304519
0.0278551
6.04754
0.0250732
0.0255195
0.0252835
11.864
0.409142
0.0253312
0.0252776
4.30278
0.0306532
5.54537
0.0255449
5.66276
6.77737
0.0925483
0.02508
0.0254761
0.0252329
0.0446236
0.980987
0.298447
0.840891
0.0398304
0.0253914
1.01033
17.8904
4.38929
0.0380642
0.0251928
0.0249833
0.0246264
0.194647
2.51026
0.0273601
0.0373921
0.0252471
0.0253784
0.0251763
0.0828025
0.0252843
0.133962
0.024982
0.0852208
5.29294
6.39122
3.09286
0.200007
0.0253225
0.0304356
0.0864905
0.0438113
0.0278848
0.0309463
0.0253281
0.0253341
0.029051
0.025089
0.025201
0.0688849
0.0248356
0.0412892
3.34429
0.0254611
0.0337742
0.150151
0.0256624
13.1434
0.0450676
0.0301421
0.0253355
0.0246652
0.834874
0.0252834
0.0276301
0.0249085
0.0253945
0.0254465
0.557278
1.89104
0.0677187
0.0247042
5.82023
4.11497
5.81068
0.0270699
0.0247255
0.02495
0.0247758
0.0249426
4.90862
4.75225
0.114348
6.6633
0.0282916
0.0386609
0.0255392
5.60235
0.0268117
0.0246811
0.0260299
0.0427488
2.65049
0.532312
0.0256863
1.4579
0.0290048
5.40563
3.23129
5.62737
5.80311
0.10165
0.693232
12.7719
0.375555
4.67136
13.883
0.0335544
0.0379961
0.0883325
0.682541
0.0251625
0.0355595
6.70739
0.0254159
0.58008
0.0261168
0.026052
0.0307493
0.0252484
5.1989
9.81439
0.0248246
4.46898
0.0253131
0.839413
0.0256777
0.025551
0.162316
6.86566
16.8486
0.0251055
0.151584
0.0368611
0.0269555
4.99621
0.024887
0.0249173
0.0251224
0.0251959
4.28024
15.1538
0.102969
5.28843
0.0376695
0.0250252
0.0271243
7.35081
0.0272956
0.0257831
1.05112
0.0253094
0.0368612
0.296014
0.0931688
4.40926
0.0255088
0.0329372
0.748863
0.0259648
0.156282
0.0260845
0.0360902
0.0252822
0.0346356
0.129485
7.9182
17.3231
0.025112
5.77093
4.19868
0.0720563
0.183157
0.19158
7.65689
6.24326
0.0294558
6.71306
0.0262747
5.60211
0.0258388
0.0445327
0.0326694
1.50428
0.0247882
0.0251136
0.0262062
0.130435
7.78785
0.0266305
0.0368282
0.35499
1.92749
0.0776861
6.75915
0.0363992
1.11137
0.0255725
0.0248112
0.0251533
0.0956899
0.461476
0.0372203
0.0296685
0.046015
0.0253575
0.119135
5.58936
5.07583
9.16922
0.527476
0.0253305
1.96543
0.0249147
0.025162
0.859334
7.25953
6.04657
7.05033
7.17462
5.88502
1.19512
0.0253185
0.0249438
0.384975
4.20497
3.47333
0.0622947
0.0552765
5.18503
5.20362
4.23338
5.74237
0.0254145
0.0308331
0.0289911
0.0311848
0.0253023
0.0367428
0.0255059
0.025361
0.0307699
0.0253292
0.0262252
0.0809382
0.0286328
0.0333996
0.0522165
0.0351825
0.035058
3.83171
0.0251697
6.42699
0.0256525
0.0360072
3.92776
13.2003
0.356115
0.0304034
0.0252757
4.82447
2.57401
5.61401
9.21137
0.02538
0.566015
7.82295
0.037116
0.0255337
0.0290672
0.24269
8.41005
0.0944153
6.88431
0.0254783
3.46596
0.0466531
5.76335
0.311785
0.0262665
4.16936
4.08629
0.0249886
13.3804
0.374219
0.0299718
0.0871185
5.36618
8.46331
0.199979
5.68626
0.934709
0.0791121
0.0364838
0.0259578
0.0302987
6.00399
1.79881
4.67119
1.91939
0.148833
0.0256645
0.348678
0.315332
0.0779567
0.0252133
0.0253829
0.026007
4.6122
4.47256
5.9424
0.276044
0.0253127
0.0310805
0.0286682
0.475457
0.0993971
0.0284739
0.0256801
2.11422
0.025357
13.5993
0.0640415
3.82568
5.21844
5.68289
0.0256516
0.212635
0.0253255
1.74174
0.0250767
0.997042
4.6455
0.0339581
0.0253222
0.047896
7.58266
0.445822
0.938638
3.66207
0.0254685
0.0253031
0.0810145
11.6596
0.0248241
0.422106
0.0247337
0.0304808
6.83051
0.237316
0.0477341
3.34321
0.268286
9.72706
0.0253182
0.0414917
0.0365968
8.81769
4.86533
0.0255187
5.00892
0.0397838
0.0256363
3.26022
0.0249156
1.71875
0.0252154
5.0781
0.0311508
5.63892
0.0499499
0.0265552
0.168117
8.65257
0.176839
4.99155
5.92283
0.0350155
0.121952
0.0247009
0.0264281
0.0254465
0.0249345
0.0288056
0.0250741
0.0255492
4.65245
0.479189
0.183649
8.6828
5.1442
0.281087
0.0386277
6.43304
0.0312068
4.50327
5.92683
3.61828
0.0280544
0.0256503
0.0841207
4.73244
0.187551
0.0251276
7.45918
0.0560961
0.839656
0.0450239
5.68557
0.0287221
0.0263148
0.0340526
0.0324933
0.169201
0.0253608
0.702485
0.0385459
0.188797
0.0255493
0.0364246
4.95004
7.35405
0.0291716
0.0374523
0.0254763
0.0271588
0.320361
5.77252
14.3863
0.044808
3.20206
0.0365839
0.025103
0.0261604
0.502287
7.19215
0.0262401
0.0250983
0.101353
1.25913
0.0593206
6.51539
0.0253504
8.26757
10.0884
0.254475
8.03703
0.0254329
0.0250818
0.131788
0.0383918
4.06922
0.0310955
0.142093
0.0514448
0.0334326
0.231625
0.188785
0.0249173
0.0254789
0.0377102
0.798482
5.72778
5.65298
0.0988309
0.0249444
0.168059
0.0332644
3.92251
0.24266
0.0252552
0.0323599
2.28024
0.0249162
0.0256378
0.333022
0.0254928
0.287251
0.0391448
0.0601892
7.9692
0.0253254
0.0249832
0.0253269
0.0253304
0.0246911
0.0275898
0.0253363
0.025345
0.0253565
0.159606
0.0253676
0.0471336
0.0253197
0.0253814
0.0253967
0.562243
0.0254129
0.136374
0.0254307
0.0319582
0.0315023
8.40749
6.2568
6.66743
0.0254498
0.0353973
0.828137
0.169891
0.0314214
0.0254855
0.0280915
5.55835
0.0393982
0.100682
0.0373369
0.104304
21.7007
0.0919594
0.0250891
0.0254347
2.65797
1.11442
0.0288487
0.0253039
0.0387573
5.19542
0.379014
0.158924
0.0335489
6.71827
0.604045
0.0270264
0.0255
4.3217
7.18092
0.025471
0.0364374
5.71561
6.31123
0.174648
0.0249055
0.0388996
0.0249222
6.33579
0.0250193
6.17926
5.76496
0.0340171
6.94476
0.0248546
0.147424
0.0253135
0.0261684
0.0613081
4.21741
0.0305964
0.0713661
0.0511445
0.040778
0.0246676
0.0249712
0.0273494
0.0247312
0.0332844
0.0262466
5.98603
0.0253667
0.0249118
6.53103
0.0481361
7.60644
0.216315
6.56614
0.0281397
0.0250163
6.75217
4.4515
5.71298
5.89461
0.0353466
0.517004
0.142191
0.0252181
5.67064
0.0255185
5.79694
4.02362
5.97653
6.53863
0.0372965
0.0528491
7.56969
5.71221
0.0247283
3.1358
0.0549118
3.94332
1.41412
0.0833108
0.0253573
1.06656
4.79005
11.5292
0.0384706
0.5936
0.0293058
7.32614
6.26381
8.75011
0.0252709
0.180338
0.0332144
6.03534
5.74048
5.84721
2.16357
0.0591486
9.77419
0.0291282
0.997657
0.0421739
0.037838
0.0252396
0.135313
0.0262373
0.0362166
4.34596
5.95022
0.033785
5.22928
0.0365858
1.89619
0.0520712
5.48809
0.0260815
5.38733
0.0378105
8.09457
0.0249911
0.0368773
0.0252607
0.056891
0.124451
0.0348046
6.16206
0.232564
0.592599
0.705329
0.0388752
0.0255039
0.0252873
5.78773
0.0252618
3.43969
4.26595
0.220983
0.0297714
0.753446
0.0253554
0.0425019
0.0309127
0.0447628
0.0342883
4.09514
0.0498715
0.591027
0.0256705
0.0278636
0.0316021
0.0303012
0.0285625
0.15468
0.0254935
0.0252396
6.00996
0.0252364