/*--------------------------------*- C++ -*----------------------------------*\
| =========                 |                                                 |
| \\      /  F ield         | OpenFOAM: The Open Source CFD Toolbox           |
|  \\    /   O peration     | Version:  v2012                                 |
|   \\  /    A nd           | Website:  www.openfoam.com                      |
|    \\/     M anipulation  |                                                 |
\*---------------------------------------------------------------------------*/
FoamFile
{
    version     2.0;
    format      ascii;
    class       volScalarField;
    location    "400";
    object      p;
}
// * * * * * * * * * * * * * * * * * * * * * * * * * * * * * * * * * * * * * //

dimensions      [0 2 -2 0 0 0 0];


internalField   nonuniform List<scalar> 
14804
(
-0.0162494
0.019642
-0.0220541
-0.0219344
-0.0306594
-0.0367518
0.0011786
0.0525719
-0.0186941
0.0241606
-0.106759
-0.022646
0.0619531
-0.0246046
-0.127611
-0.275401
-0.0315224
-0.0218019
-0.0160874
-0.0210685
0.0320967
0.0188487
0.0482168
-0.00207067
-0.0521128
-0.000802151
-0.0209523
-0.0283304
-0.0155796
-0.00840103
-0.00325835
0.0677518
-0.0210456
-0.0472265
-0.0193792
7.88275e-05
-0.0214461
0.0280727
-0.264251
-0.021873
-0.021641
-0.0195598
0.240261
0.0367182
-0.0298783
0.0743907
-0.0219646
0.0489042
0.018519
-0.15705
0.0633465
0.00591211
0.0313163
-0.0170238
-0.154556
-0.0160877
-0.0152336
-0.0159145
0.0347565
0.0766533
-0.0178498
0.0648243
0.0350648
-0.016478
0.0354475
0.0319012
0.0321073
0.00802066
0.0229764
-0.00517856
-0.00539684
-0.020855
-0.117349
-0.0122766
-0.0113424
-0.00625283
-0.265916
0.0193388
0.173288
0.00393807
-0.21416
0.0316134
0.00415975
-0.0111882
0.0267761
-0.058925
0.0137726
-0.0140239
0.0167839
-0.0289313
-0.0417616
0.044994
-0.0196688
-0.004335
-0.166073
-0.263997
-0.0156685
0.0689653
0.0131284
-0.110677
-0.0169817
-0.011466
0.0269364
-0.0250443
-0.0176496
-0.0087381
-0.0225613
-0.135684
0.0385
-0.00367652
0.037528
-0.0178991
-0.0196526
-0.196728
-0.0197071
-0.212097
-0.0173695
-0.0432384
0.0264144
-0.0222328
-0.25854
0.0166367
-0.00819853
-0.0366232
0.0343203
0.0280431
-0.0166007
-0.0247331
0.0510208
-0.0349002
-0.0348006
-0.0931867
-0.00560408
-0.0955595
-0.013426
-0.0357379
0.0374366
-0.0717948
-0.00858938
-0.0491041
0.0252463
-0.298811
0.0056718
-0.262828
-0.0242422
0.0231768
-0.0178546
0.0380071
-0.0406809
-0.0132914
-0.0186922
-0.0212873
-0.0218448
-0.0243892
0.00422403
-0.0165697
-0.0205193
-0.15087
-0.0109631
-0.0396627
0.0215119
0.0214245
-0.00751379
-0.0501794
-0.0204677
-0.0173494
0.0493505
-0.0164669
-0.00905467
0.0525896
-0.0135017
0.0362051
-0.0297874
-0.122685
-0.0125799
-0.097321
0.171792
-0.0491868
0.0102003
-0.0152052
-0.0358733
-0.0552433
-0.000338995
0.140859
0.0453373
-0.0103056
-0.0620907
-0.0605832
-0.025023
0.00704889
0.253949
-0.0195631
0.0178313
-0.0549144
-0.0212634
0.0308736
-0.00999501
0.0604939
-0.084949
-0.00578124
-0.0431432
0.00677311
-0.0156891
-0.106123
0.0795527
-0.00952744
-0.0204513
-0.0584698
-0.0445748
0.00252083
-0.00851837
-0.0191676
0.0065777
0.0213712
0.0289166
-0.00898896
-0.024354
0.027403
0.0433049
0.0350869
0.134471
-0.0194022
-0.0881197
0.0382576
0.000819248
-0.0715256
-0.0210752
-0.0155879
-0.00827748
0.0166869
-0.00388044
-0.0146245
0.0439411
-0.0117992
-0.0134895
0.0273665
0.0706301
-0.0200864
-0.0750146
-0.0160269
-0.300198
-0.0616718
0.0146215
0.0360469
0.00630418
-0.0593036
-0.0299746
-0.0203112
0.0535701
-0.00394942
-0.295941
0.0310087
0.0214862
0.0194014
-0.00958613
0.079091
0.00778958
-0.0183537
-0.00504188
0.0321099
-0.013867
-0.0254317
0.0555016
0.057333
-0.12446
-0.00618114
-0.0203094
0.00665595
-0.00821461
-0.00929108
-0.0529565
-0.277727
0.026558
0.0341169
-0.296515
-0.129977
-0.0145057
-0.0232148
0.217361
-0.00849147
-0.0203088
0.0185907
-0.0156226
-0.0170038
-0.0837369
-0.0707923
0.209483
-0.0143228
0.132941
-0.0139532
0.027124
-0.00463157
0.0164125
-0.0113985
-0.0369891
-0.221293
-0.0938421
0.0656458
0.0269212
0.138197
0.0102676
0.0209176
0.12245
-0.0210404
0.177906
0.000545741
-0.257982
-0.010542
-0.120449
-0.225963
-0.00604622
-0.0115447
0.0738722
-0.0140186
-0.00924014
0.0304016
-0.0141061
-0.102991
0.00491166
-0.2747
-0.0215085
-0.018096
-0.0163617
-0.00687249
-0.0105133
-0.0210918
-0.124892
0.0339211
-0.176173
-0.0104237
-0.0254961
-0.0223604
0.168894
0.0733433
0.0318481
-0.00297872
0.0213219
-0.257253
0.0591491
-0.0293447
0.0315146
-0.00980219
-0.0309639
0.0633037
-0.00420434
-0.0142318
-0.0500098
-0.00831282
-0.0184499
-0.0443421
-0.0288457
-0.0183404
0.0309771
0.00703775
0.060322
-0.0214205
0.0168473
-0.0146772
0.00135091
0.0215271
0.0556584
-0.0615268
-0.0209303
-0.0730984
-0.0916981
-0.0157978
-0.0140947
-0.0411648
-0.046714
0.0331916
-0.00784207
0.0329617
0.0558525
-0.00891796
0.0186476
-0.304409
0.00672738
0.0406854
-0.0113954
-0.121741
-0.0718586
-0.024662
-0.0801628
-0.0822961
-0.0297204
0.032088
-0.206554
0.0727275
0.0286571
-0.273914
0.128996
-0.00171454
0.0567815
-0.0169258
-0.0693074
-0.00839841
-0.0195944
-0.0221753
-0.238502
0.0329352
-0.115798
0.0314042
-0.125054
-0.296648
-0.0389276
0.0956873
-0.0204135
0.0620582
-0.0210588
0.030527
0.000670693
0.121748
-0.295443
0.0241095
-0.0116419
-0.121545
0.0349302
-0.0253888
-0.000368579
-0.0153086
-0.10644
-0.0311924
-0.00232317
-0.263092
0.0926618
-0.0208588
-0.0882467
0.171462
-0.0189916
-0.00307652
-0.0103008
0.0171584
-0.21134
0.0282589
0.00388892
0.0457879
0.0105431
-0.0150095
0.0277826
0.05284
-0.0217575
-0.0496968
0.00793115
-0.00564568
0.0127559
-0.019635
-0.210898
-0.0828477
-0.0637885
-0.00953966
-0.00968767
-0.0065629
-0.0103945
0.03091
0.00673013
0.0279295
0.00674497
-0.151358
-0.0190763
0.0306931
-0.197583
0.0123608
-0.148043
-0.0438535
-0.0248904
-0.178953
-0.0245781
-0.0113286
-0.0307249
0.0649319
0.0271895
0.116059
0.00850328
0.0103159
-0.199356
-0.0215691
0.0602937
-0.0393215
-0.0100955
-0.0318218
-0.0343759
-0.02349
-0.0111168
-0.0194147
-0.0107978
0.104563
-0.213808
0.0470861
0.00733803
-0.0466325
0.108009
-0.0217872
-0.0523714
0.00946778
-0.0230412
0.0310631
0.0457448
-0.0111291
-0.0353918
0.0278444
-0.109568
0.0536031
0.0247868
0.112756
-0.023025
0.0372473
0.0323985
0.0134612
0.000394836
-0.00972243
0.0369063
0.0634054
-0.183768
0.0198924
0.021918
-0.221719
0.0355412
-0.172642
0.0038401
-0.0152614
-0.0110282
-0.0225766
0.05805
0.035195
-0.0221229
-0.0147628
0.00437913
0.0478771
0.0130039
-0.0229205
-0.00291144
-0.0451262
-0.0285307
-0.0112686
-0.212335
-0.0208568
-0.157056
0.0317167
0.00361702
-0.0562331
0.0315969
-0.0192059
-0.12166
0.125373
-0.0157933
-0.00845348
0.0211549
-0.243268
-0.0551785
-0.0186706
0.0975659
-0.15993
-0.0757251
0.00425502
0.018381
0.0216587
-0.134882
-0.104972
-0.213392
-0.261587
0.0319988
-0.0242073
0.225623
-0.0177876
-0.0207489
-0.0193331
-0.027663
-0.00118981
-0.0183666
-0.0796494
-0.0428752
-0.0161356
0.00468431
0.0215225
-0.00445743
-0.036041
0.0161222
-0.0172243
0.0289318
-0.0156743
-0.0427775
-0.020559
0.264391
-0.000735258
0.0319041
-0.00846621
-0.0136824
-0.0153652
0.0182388
-0.00484359
0.0207394
0.024552
-0.0248485
-0.0253528
-0.116852
-0.254506
0.0352905
-0.00950482
-0.023418
-0.0435555
0.0104
0.00460738
-0.00311118
-0.162542
0.0376092
-0.0829545
0.00317697
-0.114479
-0.00646722
0.0159826
0.0348539
-0.0398325
0.029516
0.0041659
-0.0529852
-0.0097641
-0.0191189
-0.0506811
-0.0574816
0.0275011
-0.104274
-0.267053
-0.0437366
0.0303112
-0.0128037
0.0163395
-0.0135697
0.0366955
0.0330936
-0.0201235
-0.0191403
-0.0134213
-0.0244291
0.0313744
0.00102726
-0.0132772
0.0251887
-0.245163
-0.157564
-0.0231305
0.0149073
0.0394843
-0.0209112
-0.0295347
0.027862
-0.102892
0.180861
-0.0246859
0.0374165
-0.270878
-0.020049
-0.164667
0.0371214
0.106179
0.00389562
-0.00795087
0.0720125
-0.00896634
0.0763564
-0.0117724
0.111904
-0.0614621
-0.0181477
0.00886372
-0.0830087
-0.242976
0.0216034
-0.0220502
-0.0574638
-0.0305415
0.075699
-0.00964822
0.00334759
-0.0517058
0.0142711
-0.0515962
0.0171274
-0.00135842
-0.0145503
-0.0388918
-0.0674752
0.0449332
0.00975637
0.00490726
0.0304209
0.165292
-0.165281
-0.0479771
-0.137286
-0.0135028
-0.0808896
0.0408873
-0.0146353
0.0185684
-0.0125599
0.00149378
0.020367
0.0448002
-0.0212538
-0.0820032
0.0138058
0.10082
-0.0477077
-0.109076
0.0424662
-0.0158719
0.018358
-0.0161369
-0.0209771
-0.0330108
-0.0215994
0.0239646
0.0519466
-0.209012
-0.0137776
0.0278785
-0.0194437
0.045057
0.00754241
0.0371416
0.0308319
-0.0164657
0.0106655
0.0503599
-0.00275776
-0.0133229
0.0396024
-0.0534159
-0.0137912
0.0150893
0.0391594
-0.0496639
-0.0473199
-0.243221
-0.0215079
0.0214318
0.0318333
0.0203506
-0.0189237
0.124182
-0.0694904
-0.0370936
0.00420968
-0.0227853
-0.0166173
0.0206412
0.0249684
0.0214585
-0.00282407
-0.0431226
0.0127563
0.0086012
-0.100914
-0.0315994
0.0975068
-0.00471117
-0.0137932
-0.297356
-0.0267952
0.00796834
-0.0261365
-0.0181776
-0.0781163
-0.0116147
-0.103443
-0.0184741
-0.30748
0.035447
0.00828436
-0.124167
0.0174792
-0.113678
-0.0120135
0.0246142
-0.115306
-0.020798
0.263113
-0.0191987
-0.119058
0.0280942
-0.0187991
0.0190987
0.0459048
-0.0184181
-0.0090845
0.0321753
-0.297493
-0.0828748
-0.0209325
-0.02198
0.0158006
-0.00670525
-0.197142
0.00432922
-0.0350092
-0.0123622
0.0171456
0.00725092
0.0349264
0.0460126
-0.0105661
-0.0229879
-0.208608
-0.0165029
0.0168584
-0.0453493
0.111038
0.00481457
-0.000564208
-0.0527007
-0.0221142
-0.00742341
-0.0706566
0.0179051
0.0258043
-0.0522994
-0.0167369
-0.0187399
-0.101906
-0.0176154
-0.0121747
0.0466722
-0.0172316
0.0278913
-0.282104
-0.0382926
-0.00401176
-0.020312
-0.0205227
0.0364731
0.0272982
0.00189687
-0.0146603
0.018301
0.0396664
0.0153916
-0.00359771
0.0115556
0.0102093
-0.302204
0.0150847
-0.00385832
-0.0190841
0.0423518
-0.125599
0.0227467
0.0351685
0.0094737
0.0474823
0.167689
0.0255431
0.0204463
-0.0164839
-0.0582967
0.0266664
0.00139831
-0.0475343
-0.0171833
0.0298794
-0.00656239
0.000279152
-0.018283
0.00834179
-0.0682893
-0.0551728
-0.0251699
-0.148692
-0.125938
-0.00352563
-0.205982
0.00418917
-0.019327
-0.036171
-0.0201809
0.0365066
0.0446518
-0.0537837
0.0596677
-0.00918623
0.0257123
-0.0258162
-0.0126657
-0.271517
-0.0954214
0.0331336
-0.016901
0.0244587
0.0144831
-0.0190125
-0.21988
0.0613878
-0.143208
-0.0206424
0.0380489
-0.0225455
0.0282573
0.0231768
0.0465632
0.0175421
0.020751
-0.131009
0.0355103
-0.0492173
-0.0141916
-0.303552
0.0314412
-0.054163
0.00411313
0.173375
-0.0202288
-0.0776401
-0.0338989
-0.0770881
-0.0303698
-0.0177272
0.0299986
-0.0217223
-0.0567684
0.101708
0.0120606
0.00760003
-0.210077
-0.0205165
-0.05327
-0.000372559
0.0179295
-0.1137
-0.0198307
-0.0192059
-0.0151223
-0.0310146
-0.0320619
-0.209352
0.00177687
0.0242437
-0.00735202
-0.0359739
-0.114003
-0.0252676
0.0353147
0.00550543
-0.0207785
0.00771032
-0.0191233
-0.0155666
-0.0206372
0.00469573
-0.0217415
0.026187
-0.194717
-0.00361683
0.00454624
0.114652
-0.100435
-0.0172043
-0.0768521
0.0234661
-0.0129869
0.136629
0.011464
-0.00634036
-0.0208138
-0.120921
0.0673749
0.00193363
-0.0211321
-0.0299891
-0.0238892
-0.0156727
0.0216189
-0.0740372
-0.00868665
-0.0117328
-0.00827195
0.0329543
0.0603096
0.0350456
0.0310643
-0.231038
0.0375295
-0.00817149
-0.207972
-0.00965522
-0.0278461
-0.0103582
0.0338239
-0.0487947
0.0215464
-0.200365
0.103319
-0.0277254
0.0264811
0.0343237
-0.0243131
-0.0264427
-0.0514764
-0.027019
-0.0118024
0.0046068
0.026019
0.0527016
-0.0164256
-0.0213634
-0.208622
0.0343582
-0.0125695
-0.0396216
-0.0669055
0.00854275
-0.0107606
0.0196548
-0.00892081
-0.124742
-0.0547745
0.00454182
-0.0567815
-0.183666
-0.0209263
-0.0540472
0.0159341
0.0326377
-0.162283
0.00972421
-0.0215719
0.0301359
-0.0209972
-0.0213633
0.0356408
-0.268285
0.000707398
-0.0133853
0.0121415
0.0550849
0.00488984
-0.0172288
-0.01991
0.00847915
-0.134802
-0.108113
0.0668505
-0.0130761
0.0268997
-0.206248
-0.0154965
-0.101069
-0.0188009
0.0356655
-0.0147321
-0.136775
-0.0162235
-0.0167461
-0.017505
0.106598
-0.00755294
-0.115633
-0.0188289
-0.21792
-0.0140928
0.192609
-0.0132037
-0.0173426
-0.00900506
0.0245575
-0.0077767
-0.00713423
-0.138282
-0.0327583
0.00540269
-0.0169068
-0.0372523
0.0384277
-0.0865839
0.00485175
0.0370286
-0.138079
0.0374201
-0.0271615
-0.0330993
-0.0167308
0.0363974
0.0285526
0.00451082
0.0626959
0.0368448
-0.135568
-0.215548
0.234886
-0.0178396
0.00702016
0.0156606
-0.00323918
0.0306039
0.118907
-0.0303162
-0.228128
-0.0410765
0.0693508
-0.053287
0.00042614
-0.00299697
-0.000950598
-0.201319
-0.0158744
-0.0101903
0.0314001
-0.0208906
-0.00949398
0.0285317
0.0277992
-0.0121209
-0.284671
-0.0216189
-0.0101496
-0.0260792
-0.021793
0.0528391
-0.0182329
0.0233586
-0.0779212
-0.0533839
-0.0208261
-0.194702
-0.253598
0.0352888
0.0320634
0.105894
0.0266501
-0.0512837
-0.014616
-0.0196525
0.0475988
-0.00896592
-0.0745846
-0.00188405
0.0342678
-0.00897655
0.000645141
-0.133708
0.0183573
0.0333992
-0.0030925
-0.139514
0.0302187
-0.092078
0.0316636
0.0265354
-0.0177424
-0.0371179
0.0479966
-0.0161464
-0.0159325
-0.215999
0.0263518
-0.121401
0.0209919
0.0144698
-0.00701328
-0.0385328
0.0107645
-0.0115596
-0.0259954
0.0501352
0.047635
0.00409184
-0.0142973
-0.0502804
-0.01941
-0.19124
0.0157886
-0.0402793
-0.0228959
0.000950744
0.00524688
-0.106399
-0.0049955
-0.00667465
0.0135679
-0.253058
-0.251174
0.116811
0.0291998
-0.0249517
-0.0195073
-0.00413581
0.0124103
-0.0204353
0.026344
0.0179331
0.0317074
-0.295238
-0.0146887
-0.0158985
-0.307486
-0.0222987
0.0129134
-0.0151144
-0.059132
-0.0186191
0.00803211
-0.00686893
0.0355835
-0.0308861
-0.0175861
0.106703
0.00275549
0.0120671
-0.223895
-0.0235801
-0.02436
-0.134172
-0.0323698
0.0287415
-0.308194
-0.00227768
-0.0370629
0.0206926
-0.00938023
-0.194524
-0.102775
-0.0244486
0.0151485
-0.0034944
0.0228594
0.0379291
0.00427985
-0.242022
-0.282193
-0.00759107
0.24645
-0.0393572
-0.0180319
0.0314471
-0.164732
-0.018959
-0.299298
-0.00740977
-0.0343551
-0.0705849
0.0280368
0.00910321
-0.0415328
-4.62887e-05
0.0409907
-0.020299
-0.0159694
0.0472971
0.0236544
-0.0388378
-0.0188446
-0.0210006
-0.0137608
-0.0531733
0.00832976
0.00212445
-0.0197031
0.00740048
0.0225073
0.0172223
-0.0270235
-0.0897193
-0.00994887
-0.0222417
-0.0121722
0.0358795
-0.0257832
-0.145949
0.0233168
0.00945187
-0.0764066
0.0820224
-0.0438553
-0.00955772
-0.120343
0.0311278
-0.0027874
0.00466469
-0.0115695
0.014518
-0.0300502
0.0404533
-0.0183711
0.0319983
-0.0106481
0.077082
0.0839154
-0.105787
-0.0112039
-0.0656238
-0.0214145
0.0267519
-0.0324331
0.0375434
-0.0758363
0.0211126
0.0053028
-0.052
-0.00958193
0.0104835
-0.00937791
-0.00935354
-0.0208441
0.0269273
-0.0102918
-0.0209874
0.0678639
-0.0164986
-0.0219246
-0.0258893
-0.253056
-0.0135159
-0.0217589
0.0403077
-0.00856641
-0.0173792
-0.00875954
-0.0143992
-0.019719
-0.0157794
0.0577288
-0.125979
-0.0469309
0.0244374
-0.00545919
-0.016541
-0.0458447
-0.257423
-0.140817
-0.0087418
-0.0205474
-0.0813847
0.0275765
0.048112
-0.0792117
-0.0326846
-0.030365
0.0237444
0.00273758
0.035662
0.0328783
0.028123
-0.0253695
-0.0107663
0.0264932
-0.0285159
0.110183
-0.020043
-0.0156789
-0.00643583
0.00876422
0.0224474
0.032854
-0.0082086
-0.00999456
-0.246716
0.00440126
0.00951589
-0.0199599
0.00482144
-0.169307
0.000703899
-0.0170232
-0.00703837
0.0101027
-0.0209898
0.0397503
-0.0525785
0.028181
0.103103
-0.00829803
-0.212327
0.0305973
-0.0347016
0.103379
-0.307919
-0.0742842
-0.00363578
0.0815518
-0.118656
-0.0121575
-0.200275
0.020102
0.075022
-0.014603
-0.12598
-0.0252731
0.125823
-0.0577444
0.0603282
-0.0178481
-0.307699
-0.0519916
-0.0212046
-0.201599
0.0673801
0.0802175
-0.00283287
-0.0108384
-0.0130104
0.0367058
-0.258553
0.0652463
0.0587494
0.0275526
-0.0309218
0.0234777
-0.0530966
0.0361769
-0.0703802
-0.0227624
-0.0265407
0.0406399
0.0521382
-0.0187603
-0.14514
-0.00960126
-0.0771915
0.0176168
-0.133085
-0.0264704
-0.127689
-0.0253804
0.0822235
0.0313421
-0.0265249
0.0219745
-0.0123801
-0.138524
0.065571
0.0318371
-0.00905709
0.0151652
4.50772e-05
-0.022691
-0.0184029
0.0662962
-0.0208534
-0.0165257
-0.22897
-0.0187115
-0.159374
0.0300668
0.00790204
0.0333528
-0.0211248
0.0338391
0.0217551
0.0117622
0.0347821
0.00906689
-0.019236
0.0488652
-0.039318
-0.258661
0.0312386
-0.0365458
0.00715319
-0.0190218
-0.00751112
-0.0664068
-0.0122446
0.0351477
-0.0203166
0.00186669
0.000542375
-0.00756822
-0.0513118
-0.135106
0.00560767
-0.000823718
0.0341336
-0.0153581
-0.0263418
-0.0971567
0.00154273
0.0294037
-0.0100985
-0.244416
-0.124004
0.0400057
-0.0230906
-0.200494
-0.0762527
0.0869161
-0.0217405
-0.0315307
-0.000470742
-0.00377766
0.0235362
0.00623062
-0.195692
-0.292074
-0.107362
-0.0314415
-0.0170267
-0.0385058
-0.0189844
0.0368982
0.0278723
-0.177062
-0.0204321
-0.0292444
-0.0296757
0.033002
-0.0417357
-0.0311895
-0.0175687
0.0707751
-0.255733
-0.0198458
0.00623576
0.197118
0.0730974
0.0119404
0.0260831
-0.00916002
0.0339138
-0.0170956
-0.0386493
0.0821407
-0.00426726
0.0295189
-0.0119335
0.0677221
-0.06047
-0.124183
-0.249901
0.0114175
-0.0229475
0.081269
-0.00177589
0.0129476
0.0784172
0.0538039
-0.0735643
0.000229249
-0.161697
0.0491651
0.02641
0.016024
0.0322537
-0.0194054
-0.0189991
-0.028767
-0.0205871
0.00742048
0.00608156
-0.0211274
-0.00509334
-0.0350522
0.028515
-0.0198084
-0.0132829
-0.0644156
0.0223469
-0.0236974
0.19887
-0.253093
-0.0315983
-0.0137885
-0.0099555
0.00286038
-0.0564889
0.0163549
0.0333698
-0.0153993
-0.0363703
-0.0493196
-0.248562
0.022393
0.0158963
-0.0220557
-0.0199899
-0.235575
-0.195338
-0.0789332
-0.0186211
-0.0610899
0.0764086
-0.127784
0.0238544
-0.0345462
-0.0262493
-0.0146643
-0.0416226
0.00753617
0.0254726
-0.0351256
0.0483149
-0.0108875
-0.02545
0.0500467
-0.026429
-0.00734182
-0.00176496
-0.305584
0.0693506
-0.00251444
-0.025506
-0.0242727
0.06946
0.03064
0.0332374
-0.0187817
0.0664462
-0.0550478
-0.006844
-0.0195382
-0.265772
0.0267158
-0.065814
-0.00134595
-0.00863282
0.0446255
-0.0297482
-0.0158038
-0.133199
-0.00969944
0.0223328
0.0199617
0.00451804
0.0462192
0.0291974
-0.0231665
-0.0997113
-0.0164663
-0.0212046
-0.0135736
-0.00995487
-0.304586
-0.00832563
0.00140505
0.0302626
-0.0373105
0.0809927
-0.0100263
-0.0270172
0.00633288
-0.121824
-0.00822862
0.020587
0.00734599
0.0145042
-0.0113856
0.125642
0.0254369
0.0261741
0.0482369
0.0460269
0.0366953
0.00705907
-0.0174374
0.0063358
-0.0261004
-0.0207612
0.0806899
-0.029263
0.0143929
0.0372616
-0.0695544
0.0312992
0.0291805
0.0286458
-0.195769
0.0190908
0.127211
-0.0125173
-0.0267352
-0.260482
0.00827482
0.0257275
0.0335081
-0.262854
0.0192044
-0.0289852
-0.171017
-0.305636
-0.163309
-0.0673506
-0.113477
-0.222986
-0.0582713
0.00555215
-0.102322
0.0320409
-0.0237477
-0.256478
-0.0771845
0.01375
-0.00923348
-0.00249473
-0.175802
0.0075694
0.00318398
-0.00114967
0.0361117
-0.0200877
-0.0185697
0.03282
-0.0296538
-0.129438
0.0115163
-0.120438
0.00218656
0.0258857
0.00562317
-0.0270914
-0.17338
-0.0322445
-0.0395118
-0.0992436
-0.16007
-0.0800279
-0.223933
-0.29953
-0.18069
-0.219166
0.00458541
-0.0226148
0.0238506
0.0603889
0.0340743
-0.00378945
0.0425055
0.0808381
-0.288022
-0.0145889
-0.0190071
-0.018354
-0.0318492
0.0174051
-0.0200468
0.0663116
-0.0108709
-0.018554
-0.0288999
-0.129871
0.122422
0.0278526
-0.0211626
-0.186155
-0.144018
-0.0101751
-0.13836
-0.0140743
0.120274
0.0353569
-0.010437
-0.0157051
-0.0327211
-0.032347
-0.242642
0.0270466
-0.158387
-0.295497
-0.251032
-0.0186777
0.030191
-0.00237021
-0.0885029
-0.0211461
0.0462773
-0.0110602
0.0346804
0.011116
0.0666479
0.0606312
-0.0196656
-0.00610176
-0.0987124
0.00797984
0.00443418
0.032363
-0.0736863
-0.189521
0.0402829
0.02013
-0.02094
0.0345017
-0.0237151
-0.0154893
-0.0155697
-0.296986
0.0206525
-0.0217306
-0.102633
-0.0710904
0.00949677
0.0412371
-0.291179
-0.00689828
0.00721707
0.00737643
0.0170399
-0.00771124
-0.00982228
0.00701292
0.0470295
-0.0315656
-0.0246855
-0.0118606
-0.0154501
-0.0191196
-0.00208461
0.161759
-0.00968744
-0.234479
-0.00647788
0.0320869
-0.018754
-0.0277956
0.0224059
0.0173803
-0.0299794
-0.0386821
0.0230609
-0.0175812
-0.122144
-0.0355635
-0.00664772
-0.0087411
-0.00983523
-0.0188955
0.0779665
0.0668683
-0.00785145
-0.184354
-0.00460279
-0.0447743
0.00842842
-0.0280281
0.0244289
0.0531025
-0.306071
0.0556348
-0.0409287
0.0819292
-0.0351973
-0.0344278
0.0258299
-0.0708677
-0.0203042
-0.0100088
-0.0242079
0.0235767
-0.0414297
-0.283923
-0.00746764
-0.236827
-0.00268575
-0.194101
-0.092018
-0.0206487
0.04354
0.040708
0.120727
0.0136217
-0.123502
-0.0144354
-0.0104729
-0.0091652
-0.0745739
-0.0830105
-0.151213
-0.0114895
0.00329402
-0.0131755
-0.0736667
0.0308903
-0.00967697
0.00456678
-0.0259762
-0.0722609
-0.0124064
-0.0241272
-0.0396135
0.0273301
-0.0122969
-0.000412352
0.0550084
-0.182786
0.0085321
-0.0710853
0.00522763
-0.0187497
-0.0897564
-0.0254687
-0.0413033
0.0148083
0.0126656
-0.0234016
0.0500863
0.0110717
0.0360634
-0.0381209
-0.110614
-0.0258201
-0.0523896
0.0266528
0.0199317
-0.0250392
-0.0093697
-0.12199
-0.018565
-0.0106264
-0.0257609
0.0332051
-0.0180445
-0.0870793
0.066442
0.0330056
0.0395533
-0.0705212
-0.0305509
-0.021715
0.0693221
0.0381904
-0.0144748
0.0239539
-0.00785987
-0.0118178
0.022694
0.00105454
0.00904203
-0.0418977
-0.0871108
-0.0157561
0.0155992
0.0238739
-0.0162085
0.0240015
0.0131103
-0.0204803
0.0869151
-0.0200823
-0.00164549
-0.0317743
-0.0452481
-0.0153975
-0.0226159
-0.14788
-0.0157445
0.0207917
-0.00985918
-0.149071
-0.0847699
-0.0217797
-0.0207212
0.0503528
-0.00577413
-0.0254751
-0.00907168
-0.0133497
0.0348433
-0.0784874
0.0330619
-0.0392042
-0.0541763
-0.0196428
-0.00797712
-0.193472
-0.301483
0.0037137
0.0400405
-0.0388721
0.0369176
-0.00314435
-0.0276898
-0.0663182
-0.0385292
0.0321219
0.0027782
-0.064845
-0.0419758
-0.0375068
0.100052
-0.0443828
0.0638301
-0.0642085
-0.0672235
-0.130351
-0.131855
-0.0205053
-0.079564
-0.0217857
-0.0241028
-0.160408
-0.0189834
-0.0499563
0.0321126
0.0116348
0.181927
0.0365072
-0.0350113
-0.173126
-0.0487607
-0.0221261
-0.0399257
-0.0266114
0.082544
-0.0146449
0.01941
-0.161314
0.215164
0.0296433
-0.0195792
-0.0156983
0.183082
-0.0649416
-0.0147396
0.104832
0.0302315
-0.0693514
-0.0210388
-0.0201196
-0.0525542
-0.0428964
-0.0234737
-0.0221508
-0.0250275
-0.0756586
-0.20405
-0.0121852
-0.0171581
0.00385369
0.0124847
-0.0318293
-0.020708
0.0825066
-0.0186938
-0.170127
-0.0235897
0.037754
-0.0218568
-1.95455e-05
0.0453125
-0.0182366
-0.134514
0.0275656
-0.00747061
0.0289749
0.0218671
-0.0699947
-0.0200667
-0.0201827
0.0236337
0.0820184
-0.0546708
-0.0206295
0.0401073
-0.0288231
-0.0194529
-0.0202511
-0.137781
0.0585332
-0.0356683
-0.0715145
-0.0202047
-0.248428
-0.0146445
-0.0211046
-0.0294512
-0.0404468
0.0112613
0.0435216
0.00054871
-0.0241082
-0.168181
-0.0223777
0.102589
-0.068312
0.0345537
0.0110526
0.0322996
-0.0229433
-0.0223373
-0.0353835
0.0594342
0.0526369
-0.00540471
0.0235145
0.00700058
-0.0466847
0.0261133
0.0298978
0.0223325
-0.00751406
-0.00583904
-0.0193914
-0.0332516
0.0551439
0.005118
-0.0216664
-0.0125087
-0.0175429
-0.00651012
-0.230808
-0.018639
0.0272404
-0.0651698
-0.250954
-0.231885
-0.0706599
-0.272567
-0.0173014
0.0261034
-0.0187549
-0.0246677
-0.00871572
-0.0137041
0.0179467
-0.0130951
0.0897729
-0.00744962
-0.0201428
-0.0188317
-0.0395968
-0.0319127
0.0356292
-0.278105
-0.0990674
-0.0128495
-0.0610261
-0.228341
0.0329051
-0.0435835
-0.0427408
0.000503743
0.0210333
-0.0153986
0.00578128
0.0375007
0.0691298
-0.161303
-0.00654921
0.015138
-0.0221588
0.0727984
-0.00931983
-0.120235
0.0371518
0.0108484
-0.00979983
-0.136448
-0.0663954
0.00566114
0.0129025
0.00919421
-0.0567193
-0.0239417
-0.0221647
-0.00115815
-0.01829
-0.135366
-0.0385016
0.0131232
-0.0244862
-0.0376248
-0.0015898
0.0971272
0.0357726
0.0507949
-0.0326841
-0.0491043
-0.0429134
-0.0518411
-0.0216952
-0.0118525
0.187218
-0.0182268
-0.0190783
0.00245772
-0.112705
-0.0202992
-0.0164233
-0.0266392
-0.013969
-0.0206043
-0.248349
-0.0225526
0.00511453
0.0431873
-0.0198037
-0.059439
0.0921356
-0.056304
0.101899
0.0147448
0.0713608
0.00928504
0.0305515
0.0131744
-0.0196504
-0.0790192
-0.0334536
-0.0158919
-0.00890699
-0.0167412
0.017818
0.0487295
-0.0555916
-0.0148937
0.104018
-0.00996855
0.0495032
0.17112
0.022942
0.0338622
-0.0300508
-0.0159784
-0.00887723
-0.0432998
-0.139423
-0.0311878
-0.0167066
0.00763631
-0.036269
0.0317314
-0.29451
-0.0175402
-0.0138796
0.0515726
-0.0406967
-0.0339964
-0.018909
-0.00879516
0.00571802
0.000897018
-0.0177756
-0.0197631
-0.0163437
0.0497527
-0.0426465
-0.0263171
-0.0167802
-0.171223
-0.195925
-0.019682
0.00147221
-0.239298
-0.0132608
-0.0243867
0.0385658
-0.023885
-0.0197984
-0.0349085
-0.0140122
-0.00536839
-0.0215807
-0.0224553
0.0231718
-0.00720717
-0.0232627
-0.0183794
-0.166822
-0.209372
0.0363561
0.0134013
-0.0179352
-0.164658
0.00804234
-0.0316741
-0.0187755
0.022422
-0.0464055
0.23775
-0.0115449
-0.299603
0.0384914
-0.136175
-0.0217178
-0.0209077
0.0130212
-0.00422254
-0.0200753
0.0617558
0.058794
-0.0201226
-0.0291087
0.0140212
-0.049861
-0.0204851
-0.00890649
0.0232153
-0.262
0.027101
0.0602338
-0.0200155
0.0187785
-0.014922
-0.11494
0.00533211
-0.025891
0.0493749
-0.00849931
0.0251354
0.0273816
-0.0231024
-0.0242872
0.0306997
-0.014812
-0.0903039
0.112229
-0.0319607
-0.0230311
-0.00208051
-0.0116795
0.0185757
0.057522
0.0218813
-0.00447081
-0.021139
-0.0232868
0.0311424
0.0465143
0.0386309
-0.116527
0.0326649
0.0723142
-0.145521
-0.0288436
-0.295745
-0.0203575
0.012628
0.042507
-0.293829
0.0290565
0.0438446
-0.139783
-0.0210738
-0.0311944
0.0327756
0.0131689
0.00418024
-0.0100972
-0.00860344
-0.0392971
0.0221313
-0.0245575
-0.021337
-0.0178824
0.0161729
0.0266594
-0.00941191
-0.00958934
0.00156318
-0.168465
-0.23977
0.00974427
0.00770772
0.0292124
-0.00832391
0.0629404
0.0710557
-0.00748959
-0.0110484
0.0256189
0.147891
-0.00345689
-0.125883
-0.0175135
0.0262687
-0.12972
-0.0199767
-0.0406208
0.0269407
-0.216868
-0.00945632
-0.0952526
-0.00834032
-0.185165
0.00563148
-0.010242
0.0399593
0.0315303
-0.0128658
0.0438221
-0.0596084
0.0658574
-0.26735
0.042592
-0.0189261
-0.184734
0.0211854
0.0319053
-0.0595856
-0.0135694
-0.0173031
0.0287573
-0.019909
-0.116336
-0.0262044
0.0279907
-0.30648
-0.0121593
-0.0286321
-0.0135149
0.0603862
-0.107888
0.0229345
-0.0219727
-0.100258
-0.0154448
0.0268533
0.0433074
0.0351217
-0.0178376
-0.147932
0.0253258
0.0442154
0.0150155
-0.167474
-0.0214405
-0.038112
-0.218545
-0.129157
0.0152292
0.0567404
0.0297776
-0.023831
0.0208962
-0.00933964
-0.100958
-0.00676957
-0.0956451
-0.0462882
-0.0174621
-0.0431789
0.0262566
0.0184707
-0.0134804
-0.0128218
0.0159794
-0.0116236
-0.0160871
-0.125573
0.0473192
-0.0699874
0.0723498
0.0384375
-0.0357957
-0.128874
0.0284383
0.0148699
-0.00315495
-0.006972
-0.151049
0.00559128
0.02389
0.0771997
0.0425347
0.101939
0.0948327
0.0448438
-0.0609401
-0.0210913
-0.0194494
0.0337538
-0.257856
0.0172863
0.0328622
0.0402106
-0.307792
-0.0828104
-0.00901257
0.0378646
-0.00778847
-0.02844
-0.100281
0.0377703
-0.291679
-0.0578776
0.166097
0.0176642
0.0545288
0.0324233
0.156093
0.0414092
-0.0628046
-0.0221996
0.031091
0.0517394
0.125232
-0.284313
-0.012661
0.0917296
0.0203574
0.0081752
0.00396747
-0.0964475
-0.0157291
0.080926
0.113525
0.0243895
0.0444109
0.0283028
-0.0453388
0.0392126
-0.128014
0.0137702
-0.0986993
-0.0140389
-0.0413786
-0.0206949
-0.100649
0.0212605
-0.0279348
-0.0450973
-0.0325192
0.0636885
0.03657
0.0399859
0.0254679
0.0524666
0.0186059
0.0203111
-0.0710483
0.00224326
0.152933
-0.018601
0.0553402
0.125431
-0.120161
0.0296522
-0.296874
-0.0533212
-0.0248554
0.0276476
0.00483008
-0.130895
0.0242242
-0.0178549
0.00577212
0.0338497
0.012426
-0.182999
-0.235228
-0.013724
-0.000399649
-0.166111
-0.00863838
-0.023652
-0.0174163
0.00621713
-0.00435255
0.00638543
0.00945645
-0.0236866
-0.00975955
-0.0624821
-0.0162724
0.087072
-0.0210961
0.0240204
-0.0193736
0.0315578
0.00169535
0.0658618
-0.0503687
-0.139947
-0.0850575
0.043757
-0.233032
-0.0184454
-0.016082
-0.0205867
-0.256069
-0.237311
-0.0759926
-0.127548
-0.276015
-0.128419
-0.0148288
-0.291936
0.0122699
-0.0211687
-0.0211503
-0.210748
0.0267224
-0.0145532
-0.287622
0.0296362
-0.0152555
-0.000339481
0.00372388
-0.0286494
0.0190816
-0.0376033
-0.232798
0.00229303
-0.0100264
0.0202938
-0.215029
0.031314
0.0325029
-0.0224909
-0.1376
-0.301003
0.0208979
-0.12232
-0.0328787
-0.016394
-0.0119979
0.0105081
0.0116372
0.0194827
-0.00885473
-0.208927
-0.30306
-0.0367995
-0.0692032
-0.041802
0.0157543
-0.0171909
-0.116281
-0.0181486
0.00869297
0.0554668
0.0394305
-0.0397153
-0.111216
-0.0289994
-0.00891707
0.0342024
0.0196322
-0.0206237
0.0684655
-0.0801401
-0.0135499
-0.0298961
0.0103938
-0.0106668
-0.122222
-0.181859
-0.2884
0.0209518
-0.307096
-0.0105696
-0.00120521
-0.0223146
-0.0417002
-0.122536
-0.0363483
-0.00712483
-0.307093
-0.0143539
-0.138288
-0.0125703
-0.0452858
0.0159715
-0.0700746
0.00859349
-0.00670666
-0.00899743
-0.0506937
-0.131531
-0.0155176
-0.0381995
-0.0555863
-0.0126255
0.253233
-0.145618
0.0580544
-0.222325
0.0132945
0.00867242
0.0254969
-0.0982965
-0.172438
-0.0384151
-0.024343
-0.0552331
0.0266657
-0.0184179
-0.106684
-0.0160679
-0.139929
-0.199379
0.0308607
-0.0204547
0.0105277
0.022296
-0.0126606
-0.110281
-0.0306373
-0.093588
-0.0137676
-0.253694
-0.212955
0.0361419
0.0118029
-0.0160075
-0.00731368
-0.251837
-0.036234
0.209443
-0.044641
-0.0604046
-0.0092203
-0.225467
0.0417579
0.13097
0.00553928
0.12534
0.0310613
-0.0258354
0.0326095
0.0427082
0.0256079
0.0335994
-0.0108576
-0.0200391
0.0568108
0.12141
0.1471
0.027732
-0.0085041
-0.012276
0.0272192
-0.292136
0.0318915
-0.0228702
-0.0079596
-0.293207
-0.157934
0.0356395
0.0252033
-0.0129296
-0.237883
-0.111336
-0.275248
0.0400934
-0.197434
-0.2605
-0.025552
0.0324202
-0.0237484
-0.0253304
-0.155423
0.0838565
-0.307609
0.0567736
-0.0137639
-0.018247
-0.30556
-0.0148558
0.0807598
-0.00897076
-0.0127604
0.00102425
-0.284866
-0.0273323
0.0415974
-0.0264052
-0.0648241
-0.18269
-0.0157698
-0.0333482
-0.22011
-0.0204973
-0.0226622
-0.0130024
-0.0192123
-0.306611
-0.0159603
-0.00986856
-0.0765338
-0.122331
0.0316558
-0.092978
-0.0356615
-0.0215134
0.0306217
0.0129571
0.00848515
-0.011644