/*--------------------------------*- C++ -*----------------------------------*\
| =========                 |                                                 |
| \\      /  F ield         | OpenFOAM: The Open Source CFD Toolbox           |
|  \\    /   O peration     | Version:  v2012                                 |
|   \\  /    A nd           | Website:  www.openfoam.com                      |
|    \\/     M anipulation  |                                                 |
\*---------------------------------------------------------------------------*/
FoamFile
{
    version     2.0;
    format      ascii;
    class       surfaceScalarField;
    location    "400";
    object      phi;
}
// * * * * * * * * * * * * * * * * * * * * * * * * * * * * * * * * * * * * * //

dimensions      [0 3 -1 0 0 0 0];
oriented        oriented;


internalField   nonuniform List<scalar> 
21991
(
0.0328676
-0.0445999
0.0117323
0.235203
-0.476231
0.241028
0.12457
-0.0671344
-0.0574358
0.144089
-0.15912
0.0150309
-0.0580999
0.1632
-0.1051
0.134596
-0.0606041
-0.0739923
0.215942
-0.0243868
-0.191555
-0.266054
0.020524
0.24553
-0.100301
0.0393862
0.0609152
0.356268
-0.664485
0.308217
-0.0448065
0.102112
-0.0573054
0.106072
-0.106574
0.000502089
0.354585
-0.207503
-0.147081
0.041068
-0.155453
0.114385
0.0518593
0.0531018
-0.104961
-0.00404044
0.000434259
0.00360618
0.0521935
-0.110293
-0.161091
0.175888
-0.0147973
0.0186969
-0.0186969
-0.133276
0.0876513
0.0456242
0.418805
0.17821
0.0214021
0.147476
-0.168879
-0.0583161
-0.0800795
0.138396
-0.314737
0.224354
0.0903828
0.00144238
-0.000894518
-0.000547858
-0.243924
-0.0708129
-0.0020428
-0.106752
0.108795
-0.166235
0.0878891
0.078346
0.0545661
-0.0440714
-0.0104947
0.293052
-0.132808
-0.160244
0.170927
0.20081
-0.371737
-0.146393
0.155238
-0.00884474
-0.0981599
-0.0351156
-0.137147
0.144918
-0.00777084
0.0515827
-0.0915986
0.0400159
0.0277698
0.188172
-0.0144018
0.0726317
-0.0582299
-0.573525
0.363221
0.210304
-0.0458913
-0.0185099
0.0644012
-0.0940544
-0.0288731
0.122928
0.0484145
0.0761557
0.0920645
-0.0404818
-0.0555036
0.0301953
0.0253083
-0.154114
-0.181361
0.335475
0.0494819
0.113718
0.12242
0.108414
-0.230833
-0.0451584
0.0836032
-0.0384449
0.266582
-0.223624
-0.0429583
0.16678
-0.145377
0.099373
-0.0594611
-0.0399119
0.32623
-0.20482
-0.12141
0.516191
-0.636434
0.120244
-0.246877
-0.202365
0.449241
-0.205572
0.195591
0.00998072
-0.0460013
0.100333
-0.0543321
0.0128095
0.0473305
-0.06014
-0.086143
0.0529294
0.0332136
-0.0406771
0.0586832
-0.0180061
-0.520882
0.0629709
0.457911
-0.0661862
0.188606
0.0302888
-0.0257282
-0.0045606
0.118719
0.207512
-0.366143
0.0989382
0.267205
0.0588314
-0.0460219
-0.19367
-0.172474
0.171066
-0.405355
0.234289
-0.0231532
0.441958
0.231598
-0.0435274
-0.18807
-0.738754
0.449147
0.289607
-0.0358974
0.0339138
0.00198359
-0.195229
0.301433
-0.106204
-0.128075
0.126032
-0.0444967
0.0983359
-0.0538391
-0.0107054
-0.019261
0.0299664
-0.312135
0.0787133
0.233422
-0.00433477
-0.0315626
-0.00233686
0.000655426
0.00168143
-0.239243
0.474446
-0.124646
0.0950942
0.0295518
-0.176344
-0.262061
0.438405
-0.0026615
-0.00255144
0.00521293
0.427695
-0.256629
0.24869
0.170978
-0.419668
-0.225289
-0.0868468
-0.47261
-0.0830246
0.555634
0.00187183
-0.082599
0.0807271
0.545479
-0.0731548
-0.472324
-0.175848
0.235266
-0.0594179
0.213439
0.230779
-0.444218
-0.0729555
-0.0932796
0.0387917
-0.162649
0.123858
-0.175935
-0.00336781
0.179303
-0.121585
0.055033
0.0665516
-0.323445
0.141524
0.181922
0.0803145
0.0190584
-0.00218153
-0.000155325
0.013889
-0.146831
0.000437982
-0.293969
0.161563
0.132406
-0.0962469
0.0514405
0.013444
0.0452392
0.0126525
-0.0479855
0.035333
0.16321
-0.63582
0.0870286
-0.16488
0.0778514
0.0498029
-0.0767361
0.0269332
0.0395749
-0.0269224
0.00896575
0.0971063
-0.0991883
0.053187
-0.371866
0.0233986
0.348467
-0.160109
0.331036
0.122335
-0.395658
0.273323
-0.0255448
0.0417835
-0.0162387
-0.082978
-0.0386065
0.00932382
-0.00995076
-0.0377555
0.0122108
0.00481691
-0.0074784
-0.0668584
-0.00444008
0.0712984
-0.0828744
0.121666
-0.504235
0.564846
-0.0606104
0.00619726
-0.167288
0.00489924
-0.00391663
-0.000982604
0.442715
-0.229276
-0.126054
0.236387
-0.110334
0.129354
0.00963573
-0.13899
9.8988e-05
-0.520981
-0.35336
-0.220165
-0.034708
-0.0473352
0.0820432
0.128097
-0.069002
-0.0584257
0.127428
-0.166512
0.00519906
0.161313
-0.154345
-0.0121661
0.0646183
-0.121435
0.0568172
-0.0408713
0.0355887
0.00528258
-0.10168
0.0758703
0.0258099
-0.0334611
-0.0333978
0.0668588
0.144377
-0.0150229
0.153532
-0.307645
-0.0649707
0.0748155
-0.00984478
-0.145731
-0.108183
0.253914
-0.16708
0.0299328
0.267548
0.177166
-0.444714
0.00361461
0.000416133
-0.00403074
0.545416
-0.0292257
0.000111347
0.0119649
-0.00376297
-0.00820195
-0.330177
-0.408577
0.0852631
-0.0354602
-0.373592
0.00172626
0.0272185
-0.0777532
0.0505347
-0.0222689
0.0222689
-0.0393257
-0.0609757
-0.00570659
0.00570659
-0.12711
0.0330556
-0.0285425
-0.0831316
0.111674
0.444148
-0.195459
0.050584
-0.0371401
0.07155
-0.123924
0.0523742
0.113955
-0.0541944
-0.0597608
-0.0148869
0.014524
0.00036293
-0.0432274
0.070446
-0.0648556
-0.334332
0.399187
0.613736
-0.0965473
-0.517189
-0.0320661
-0.00880518
0.00144238
-0.198401
0.19064
0.00776031
0.0424952
0.00808884
0.26078
0.00580217
0.00785994
-0.0297365
0.0218766
-0.322
0.0857239
0.236276
-0.323709
0.0576551
-0.00873796
-0.0536319
0.0623698
-0.209836
0.203669
0.00616642
0.0991051
-0.0996623
0.000557138
0.10704
-0.0551811
-0.0686781
0.035217
-0.0602309
-0.0414493
-0.156182
0.0808822
0.0752998
0.140397
-0.152322
0.0119253
0.612954
-0.277801
-0.335153
-0.0456432
-0.0404998
0.112227
0.0223691
0.0116825
0.0125636
-0.0242462
-0.105739
-0.102907
0.208645
-0.12424
0.146435
0.00956104
-0.185496
-0.0581903
0.0452756
0.0129147
-0.0258629
-0.0836981
0.109561
-0.119347
0.0934845
0.202109
-0.182332
-0.019777
0.541732
-0.408183
-0.133549
-0.0600446
0.00454095
-0.0725436
0.0273852
-0.131816
-0.147942
0.279759
0.0824532
-0.0444574
-0.0379958
-0.0799737
0.065572
-0.392023
0.306597
0.0854268
-0.0297666
-0.0182189
0.310224
-0.278634
-0.0315899
0.137168
-0.114906
-0.0222621
-0.0232263
0.00149648
0.0217299
-0.00637126
6.66723e-05
0.00630459
0.340663
0.201069
-0.0680624
0.214773
-0.146711
0.121462
-0.0458603
-0.0756013
-0.117174
-0.0974172
0.214591
-0.0162154
0.0151899
0.0010255
-0.0341804
0.10573
0.0406974
0.038822
-0.0795194
0.0813524
-0.164227
-0.277616
0.193653
0.083963
-0.211276
-0.110724
-0.00277975
0.0270569
-0.0242772
0.232166
-0.000568529
-0.392106
0.32725
-0.127562
-0.103209
0.230772
0.095892
-0.241623
0.0995541
-0.165273
0.322709
-0.157436
0.3918
-0.189067
-0.202733
-0.192827
0.370309
-0.177482
0.0431296
-0.150534
0.107404
-0.108412
0.0488242
0.059588
0.048276
0.0888917
-0.0559081
-0.153928
-0.100995
0.29159
-0.190594
0.0513267
0.0314828
-0.0828095
0.123276
-0.00340744
-0.119869
0.0536815
0.0128631
-0.0665446
-0.020041
0.0384539
-0.0184129
0.0277047
0.158974
-0.186679
0.220134
-0.344784
0.12465
-0.224259
0.156196
0.259851
0.131949
0.0240026
0.00296794
-0.0269706
0.0275737
-0.019359
-0.0082147
0.384711
0.195292
-0.580003
0.0645354
-0.209735
0.1452
0.0870838
-0.0255052
-0.0615786
0.0484223
-0.105491
0.057069
-0.191339
0.00803476
0.183305
0.00229609
-0.00144009
-0.000855995
0.0749267
0.00721976
-0.0821465
-0.130155
-0.163814
-0.374188
-0.210279
0.374646
-0.164366
0.0695325
-0.0676607
-0.131765
0.16935
-0.037585
-0.0370749
-0.161326
-0.127318
-0.358473
0.198364
-0.0173248
0.0305708
-0.013246
-0.250644
-0.141379
0.28892
-0.571844
0.282924
0.310032
-0.549276
-0.0176578
-0.0207141
0.0383719
-0.214635
0.0974612
0.142624
0.307541
-0.450166
-0.241478
0.14777
0.0937075
0.155975
-0.351204
-0.0372149
-0.328804
0.366019
0.0646624
-0.0542865
-0.0103759
0.0199822
0.182127
0.0521836
-0.110609
0.0471509
-0.248944
0.201793
0.0387378
-0.0860946
0.0473568
-0.287448
0.120397
0.167052
-0.150198
0.116018
-0.236401
-0.112882
0.349283
-0.0119567
0.0204788
-0.00852201
-0.0263509
0.0262102
0.000140639
0.0196069
-0.00792438
0.0034735
-0.00886883
0.00539534
-0.58726
-0.508295
0.0593319
0.448963
-0.00611132
0.00972592
-0.0508497
0.103952
0.00976859
0.154976
-0.164745
0.000698985
0.0112659
0.0939073
-0.0414196
-0.0524876
0.0336686
0.00590634
0.00903642
0.0780474
0.54641
0.0106691
-0.557079
0.0246138
-0.0167538
0.0226879
0.00760093
0.00476324
-0.00863493
0.0038717
-0.0251843
0.0765111
0.03289
0.0610173
-0.0117415
-0.164107
-0.143538
0.00677366
0.136764
0.056841
-0.0655789
-0.36209
0.196817
0.13294
-0.301181
0.168242
0.175181
0.288109
-0.18737
-0.100739
0.0408714
-0.101476
0.0289301
0.0757292
-0.104659
-0.0340864
0.0987047
-0.124667
0.100561
0.0241065
0.21127
0.111439
-0.078692
0.121822
-0.241635
0.452989
-0.211354
-0.602071
0.201407
0.400664
-0.121187
0.142411
-0.0212233
0.10977
0.0135057
-0.0946217
-0.0300243
0.100097
-0.205836
0.0308187
-0.07671
-0.042902
0.0131354
0.0599541
0.0470864
0.0116177
-0.0110679
-0.00499488
-0.0182315
0.0628208
-0.186255
0.17696
0.00929541
-0.186858
-0.00448129
0.0303006
-0.0479584
-0.207769
0.0802069
0.0158154
0.048847
-0.114727
0.0661027
0.0486245
0.169507
-0.481472
0.311964
0.0294265
-0.0479364
-0.0593035
0.0848439
-0.0255405
0.0102307
-0.0770891
-0.0119389
0.0656204
-0.0160197
0.00406295
-0.162342
0.251314
-0.0889721
0.123753
-0.0361014
0.0386952
0.0554342
-0.0941295
-0.508196
0.0575689
0.0426696
-0.100238
-0.0126208
-0.00226617
-0.0943938
-0.0704861
0.0843256
-0.124225
0.0398993
-0.0846577
-0.0715242
-0.171792
-0.0144625
-0.324007
0.286792
-0.138375
0.339185
-0.409695
-0.192375
0.00206143
-0.217474
0.0323768
0.185097
0.0850863
0.0140189
0.061614
-0.191697
0.130083
0.242223
0.025504
-0.267727
-0.17426
0.0424946
0.149764
-0.141429
-0.182017
-0.00625178
0.0345646
-0.0283128
0.0151979
-0.00715128
-0.00804661
-0.0239959
-0.0134124
0.0374083
0.106436
-0.0670495
-0.00590831
-0.000462946
-0.00919975
0.00846496
0.000734784
-0.129817
-0.111661
0.228055
-0.474932
0.148817
-0.385218
-0.221893
0.00441893
0.0242778
-0.0835813
-0.159254
0.276856
-0.117602
-0.0188809
0.0188809
0.118779
0.242368
-0.361147
0.518711
-0.22979
-0.254752
0.0707077
0.184044
0.0381153
0.0559342
-0.0940496
0.0239862
-0.0970868
0.0731006
0.112674
-0.0642518
0.0122118
0.0122917
-0.0245035
-0.0242992
0.0135938
-0.169202
0.17897
-0.0169086
-0.145741
-0.140314
0.098204
0.0421103
0.39297
-0.207155
-0.185815
0.184354
-0.195148
0.0107934
-0.405987
0.0183152
0.387672
-0.142323
0.0678407
0.0744819
0.0817768
0.608821
-0.363392
-0.245429
0.0158592
-0.0204154
0.00455617
-0.323161
0.262163
-0.135496
-0.126667
0.0155477
0.0484219
-0.0929186
-0.0901551
0.177963
-0.152688
-0.0252753
-0.139694
0.114561
0.0251324
-0.00523365
0.00999689
-0.149508
-0.0107464
0.160254
0.408684
-0.236743
-0.171941
0.00157454
-0.00254477
0.00097023
0.172949
-0.154354
0.498751
-0.344397
-0.000566945
-0.0300906
-0.113447
-0.386509
-0.222375
-0.163071
-0.0425008
0.001841
-0.00223913
0.000398125
0.0583009
-0.0251494
0.0675507
-0.0424013
-0.0356647
0.11999
-0.0110358
-0.0254675
0.0365033
0.137298
-0.543286
0.1097
-0.049746
-0.159499
-0.222786
0.382284
-0.0463704
-0.0528179
0.0365314
-0.0206722
0.0135425
0.125033
-0.138576
-0.0518333
-0.0914821
0.143315
-0.0805849
0.0554355
0.188814
0.0116105
0.4409
-0.574668
0.133768
-0.254708
0.153713
-0.00975218
-0.0890837
0.0988358
-0.0487883
0.0314635
0.533808
-0.17754
-0.0937424
0.18985
-0.0961074
0.0871597
0.226982
0.233277
-0.46026
0.164785
-0.153337
-0.011448
-0.213036
-0.0308884
-0.0119088
0.0447764
-0.0346658
-0.0800614
0.115544
-0.121329
0.00578532
-0.353322
-0.00710247
0.00721382
-0.180317
0.128483
-0.045334
0.127708
-0.0823743
0.0193226
-0.0071108
-0.116593
0.0219711
0.0305365
-0.155547
0.125011
-0.348219
0.129538
0.218681
-0.228651
0.209011
0.0196397
0.534504
-0.534504
0.0986393
-0.0697091
-0.233741
-0.27467
0.50841
-0.137137
-0.140479
-0.255829
-0.0423703
0.2982
-0.386915
0.145279
0.0341632
-0.0404149
-0.196279
-0.165811
-0.258649
0.110562
0.148087
0.10109
-0.129963
7.69969e-05
0.0151209
0.337663
-0.0643558
-0.273307
-0.154509
0.487926
-0.350811
-0.137115
-0.0399573
-0.135938
0.175895
0.00241953
-0.00986797
0.00744844
-0.0315202
-0.0271371
0.0586574
-0.0095499
0.0844766
0.0992255
0.137162
0.0209663
0.0108571
-0.0318234
-0.163763
-0.0313851
-0.282867
0.12512
0.157747
0.115086
0.490645
-0.60573
0.0459088
0.346939
-0.392847
-0.21448
0.343693
-0.129213
0.526428
-0.480519
-0.0197438
-0.0411246
0.0608684
-0.180928
0.187581
-0.00665287
0.555986
-0.0915062
0.0878621
0.00364409
0.14783
0.340096
0.0787556
0.0351996
0.0473282
-0.0880402
0.0407119
-0.0134631
-0.14199
-0.0371781
0.0947469
0.182138
-0.00417478
-0.0135033
-0.0293987
0.109136
0.00640771
-0.0832357
-0.147173
0.230409
0.547921
0.106631
-0.116383
-0.119536
0.284915
-0.165379
-0.130159
0.331623
-0.201464
0.00195443
0.00736939
0.0116735
0.132416
0.0500832
-0.257586
-0.154371
0.137462
-0.003394
-0.0128214
-0.0099155
0.0290241
-0.0191086
-0.131508
0.14555
-0.0140426
-0.13674
0.184998
-0.0482582
-0.0180819
0.194364
-0.176282
-0.0533792
0.0795876
-0.24193
0.0390947
0.118424
-0.157519
0.00723644
-0.258217
-0.000384602
0.258602
0.298924
0.0387383
0.0881226
0.0788717
-0.166994
-0.0676789
0.106774
0.0334824
-0.0648997
0.0314173
0.136439
-0.132522
-0.0039164
0.0394255
0.499559
-0.538984
0.0894471
-0.132642
0.0431945
0.0232651
0.46738
0.11545
-0.37128
-0.0211575
-0.00240708
0.0235645
0.0128694
-0.306659
0.0921789
-0.062493
-0.0493236
0.111817
-0.187941
-0.154213
0.421762
0.133597
-0.0890576
-0.0445393
0.0097742
-0.031356
0.0215818
-0.289046
-0.0260287
0.315075
0.0597517
-0.30326
0.243508
0.0421614
0.503317
-0.19414
-0.13582
0.32996
-0.0236842
-0.00266673
0.17307
-0.462116
0.175574
-0.258809
-0.0778136
0.0406355
0.185168
-0.342305
0.157137
-0.257816
0.224232
0.0335837
0.00225266
0.00500105
-0.00725372
0.454153
-0.2325
-0.221653
-0.0547794
0.097449
0.143201
-0.448286
0.305085
-0.022911
-0.0528915
0.0758025
-0.0221048
0.000947343
0.0731766
-0.0396942
0.22855
-0.1814
0.2327
0.239379
-0.472078
-0.151847
0.116183
0.130301
-0.142042
-0.469848
0.168712
0.301135
0.0151352
-0.169238
0.154103
0.305297
-0.538439
0.233142
-0.0297386
0.119186
-0.201116
-0.147103
-0.0327325
0.120855
0.12018
-0.032291
0.135328
-0.22907
-0.00243524
-0.000116198
0.0925424
-0.0685563
-0.0493322
0.0295884
-0.0807665
0.142381
-0.277237
0.420438
-0.0759112
-0.0284165
0.104328
0.22533
-0.110102
0.140639
-0.0549982
0.0936934
-0.131338
0.0101501
-0.086173
0.063262
0.0343545
-0.0133882
0.618897
-0.00516071
-0.0259953
0.0149595
-0.0757474
0.11837
-0.0426226
-0.166802
-0.0141256
0.093696
-0.185178
-0.00200035
-0.012134
0.0141344
-0.00597271
0.0295408
-0.0235681
-0.450198
0.273854
0.466896
0.0795133
-0.0750024
-0.334693
0.0466758
0.0480559
-0.0947317
0.0563981
0.0650635
0.00279452
-0.0037685
0.00097398
0.0027177
0.336163
-0.276411
-0.0714062
-0.0189942
0.0904003
-0.0347158
0.0649111
0.0854669
-0.0630284
-0.0224386
-0.112171
0.0668367
0.158584
-0.198542
0.0195476
0.14174
-0.161288
-0.347803
0.2953
0.0525035
-0.0606302
0.0873356
-0.0267055
-0.0237627
0.0180096
0.00575308
-0.161409
0.128676
0.0590704
-0.07606
0.0169896
-0.30034
0.306505
-0.381507
0.255839
0.0699419
-0.325781
-0.147456
0.160999
0.194085
0.24863
0.0498504
-0.0845584
-0.433739
0.279385
0.00145779
0.0172391
-0.030425
-0.162917
0.133178
0.0740979
-0.0437269
-0.24496
-0.102843
0.15804
0.0103586
-0.278252
0.10905
-0.000918431
-0.0177784
0.220313
0.388508
0.254238
0.00160076
0.226217
-0.377794
0.151578
0.0770961
-0.53148
0.454384
-0.0807736
0.123564
-0.04279
0.0120965
0.00102064
-0.000592497
-0.000428138
-0.00525195
0.00133532
0.459682
0.0153101
0.226913
0.0104922
-0.147232
0.0366631
0.0588321
-0.0954952
-0.029824
0.109439
-0.079615
0.032556
-0.166352
0.133796
-0.356683
0.205908
0.150775
-0.0977897
0.0650555
0.0327342
0.14542
-0.205504
0.0600833
-0.0641097
0.0325894
0.130216
0.245636
-0.375853
0.0548211
0.0435147
-0.0235863
0.00221347
0.0213728
-0.199778
0.393863
0.176639
0.149651
-0.0627866
-0.0868648
0.236429
-0.279573
-0.132867
0.141403
-0.00853613
-0.154201
-0.0997527
0.253954
0.0277821
-0.0305619
0.0406813
-0.107874
0.0671922
-0.0389712
0.0796686
-0.371395
0.175116
0.0573007
0.0448112
0.0413341
0.101374
0.0482774
0.348693
0.248322
0.00656436
0.0202842
-0.0268485
0.37109
-0.169615
-0.201474
0.0380672
-0.0682214
0.0301542
-0.457178
0.171035
0.286143
0.298997
-0.49745
0.198453
-0.00121344
0.0282704
-0.090662
0.0908997
-0.000237681
0.075394
-0.0373268
0.0485031
-0.119909
-0.0160258
-0.128598
0.144624
0.302583
-0.183804
-0.0389373
0.0196763
-0.140562
-0.235679
0.376241
0.0574788
-0.0796181
0.0221393
0.0460521
-0.100246
0.109924
0.0750746
-0.216354
0.488981
-0.272628
0.398011
-0.19182
-0.206192
-0.0119943
-0.116081
-0.139379
0.158927
0.586283
-0.223063
0.0760004
-0.121861
-0.0812063
0.0432909
0.0379154
-0.139018
0.125555
-0.366541
0.342232
-0.000644479
0.00107874
0.0245265
-0.0147523
0.0408722
-0.19247
-0.121384
0.313854
0.0616702
0.0719266
0.182087
0.100451
0.16323
-0.263681
-0.0356926
-0.0889747
-0.0174368
0.0174757
-3.89495e-05
0.143446
-0.143273
-0.000172776
-0.00712979
0.0311324
-0.12143
0.0323726
-0.0444836
0.0246329
-0.233844
0.114307
-0.0122145
-0.0115482
-0.0370686
0.0945474
-0.0629464
0.376923
-0.313977
-0.0128065
-0.146314
0.012186
-0.0880972
0.019842
-0.00338547
-0.188052
0.16997
-0.0845272
0.117083
0.0509068
0.0315464
-0.294812
0.500479
-0.205667
0.136556
-0.13705
0.000493774
-0.149961
-0.371331
0.521293
-0.191248
-0.0384901
0.229738
-0.0559802
0.0127874
-0.0270435
0.014256
-0.13562
0.0630709
0.0725493
0.317611
-0.359981
0.463978
0.148975
0.162239
0.289475
-0.451714
0.0363254
0.162491
-0.198817
-0.11652
0.0855069
0.0310129
-0.00784968
0.00584933
-0.07052
-0.0697943
-0.0425848
0.0892606
-0.00240374
-0.0164772
-0.114792
0.124392
-0.00960056
-0.113936
0.151313
-0.0373773
0.030655
-0.0241096
-0.00654541
0.121797
-0.253613
0.00327451
0.162669
0.0309837
-0.0176181
0.384233
-0.366615
0.257959
-0.291026
0.0330674
0.176295
-0.164621
0.0919164
-0.138189
0.0462722
-0.405794
0.332639
-0.064476
0.158172
0.0627468
0.067282
-0.130029
-0.0507873
0.111627
-0.0608398
-0.145783
0.0318473
0.055845
-0.0814546
0.0256096
-0.291537
0.143595
0.0865447
-0.0306997
-0.0690633
-0.0261876
0.0952509
-0.123965
0.129857
-0.00589148
-0.0104164
-0.101389
0.111805
0.68429
-0.411642
-0.272648
0.229476
-0.0146989
-0.214777
-0.00988692
-0.0187181
-0.0136526
0.0323708
0.291129
-0.167454
-0.123676
-0.0925175
0.00185551
0.022131
0.29548
-0.265558
0.0396173
-0.406158
-0.149627
0.185952
-0.0107951
0.0698655
-0.364459
0.2343
-0.120578
0.0404982
-0.199343
0.330286
-0.130942
0.00750587
0.140413
0.257598
-0.147951
0.147672
0.000279479
-0.174829
-0.103423
-0.430708
0.214354
-0.403023
0.243664
0.159359
0.101376
-0.0606945
0.0204224
0.124495
-0.0550045
-0.0355117
0.0905162
0.00773195
-0.381824
0.318878
0.176664
-0.472484
0.454866
-0.0332604
0.0439441
-0.0106837
-0.145813
0.115722
-0.138252
0.0612549
0.0769972
0.0232406
-0.0104531
-0.168781
0.0842542
-0.167746
0.178238
-0.0589451
0.0214733
0.0374718
0.299592
-0.073375
-0.406653
0.266091
0.428926
-0.525473
-0.216355
-0.140328
0.0885848
-0.0519217
0.481105
-0.175808
0.183816
0.299812
-0.483628
-0.100373
0.0401422
0.0340482
0.0621588
-0.096207
0.0167155
0.130163
-0.146879
0.297499
-0.0264514
-0.0181484
0.00471013
-0.00241405
0.105349
0.00749387
-0.112843
-0.184233
0.00631799
0.177915
-0.176169
0.0228323
-0.0471862
-0.0195445
0.0667307
-0.00477031
-0.110021
0.00701883
0.0434029
-0.0504217
-0.0430725
0.0686308
0.0378049
0.00637633
-0.00759577
0.201979
-0.0565584
0.116167
-0.145613
0.0294454
0.0483577
-0.0981269
0.0497692
0.60769
-0.0169035
-0.590786
-0.0414258
0.240496
-0.174039
-0.0664564
0.45343
-0.376334
-0.0012218
-0.0127616
0.0139834
-0.136294
0.124299
0.0377692
-0.00756586
0.035348
-0.11645
0.0621648
0.0542852
-0.195737
-0.175658
0.0085231
-0.127695
0.437727
0.198379
-0.183244
0.183917
-0.195729
0.0118114
-0.0574479
-0.171203
-0.271148
-0.224803
0.495951
-0.00293265
0.00149256
0.0120369
0.00908301
-0.112223
0.10314
-0.0626404
0.086457
-0.0238166
-0.0190639
0.166998
-0.147934
-0.00410012
-0.0194862
-0.0466584
-0.0448478
0.134211
-0.018044
-0.0216307
0.0117152
0.215967
0.0245285
0.457728
-0.290453
-0.155123
0.445576
0.435394
-0.202117
0.269506
-0.202037
-0.0674686
-0.00521286
-0.017056
0.159136
-0.175099
0.0159626
-0.000860703
0.0439064
-0.0912416
0.523121
0.0113825
-0.0232938
0.121498
0.0649388
-0.139861
0.0749222
-0.30986
0.602282
-0.292422
-0.284558
0.0933097
0.0124556
-0.0050076
0.140716
-0.273524
-0.0513678
-0.0868843
0.0911232
-0.250377
-0.289699
-0.111272
0.400971
0.126274
0.0102824
0.0540905
0.141501
-0.0176483
-0.010714
0.0283624
-0.0458864
0.102369
-0.0564827
-0.0605328
0.0133466
0.053098
-0.0460792
-0.100233
-0.0455497
-0.0811978
0.00446168
0.260573
0.26923
-0.529803
0.0130739
-0.0535264
0.0404525
-0.109253
0.0603573
0.0488958
-0.288531
0.171545
-0.0196968
-0.151848
0.00607196
-0.000365375
0.158814
-0.351284
0.121631
-0.0812636
-0.0403672
0.25224
-0.369359
0.117119
0.00905791
0.013211
0.0788965
0.0427343
0.11263
0.149532
0.146701
0.356704
-0.13657
-0.671591
0.226077
0.445514
-0.170033
-0.0142007
0.0370877
-0.0298935
-0.00719416
0.359279
-0.243665
-0.115613
0.0494478
0.206957
-0.256405
-0.134664
0.0175257
0.117139
-0.216148
0.0806523
0.00192612
-0.000915374
-0.00101075
-0.00842046
0.0915586
-0.0831382
0.29286
0.134103
-0.426963
0.503404
0.0419742
-0.300191
-0.105718
-0.0108022
-0.189814
0.323183
-0.133369
-0.610531
0.424813
0.185717
-0.0551724
0.0843461
-0.0291737
0.0797489
-0.0409269
-0.135881
0.42758
-0.291699
-0.159004
0.401373
0.0419096
0.0984871
-0.0272688
0.00154062
0.223823
0.248702
-0.472525
0.287372
-0.18875
-0.0986217
0.0974492
0.063652
-0.0942819
0.0306299
0.474839
-0.291023
8.3172e-05
0.00175783
0.00471065
-0.152662
-0.105119
0.0243454
-0.049432
-0.0540549
-0.026562
0.0806169
0.255356
-0.034232
-0.0630581
0.0972901
-0.203241
-0.337073
-0.0101957
-0.033483
0.0436788
-0.159135
0.00478981
0.00885147
0.144633
-0.153484
0.22168
-0.435035
0.213355
0.041445
0.216514
0.00275499
-0.00364951
-0.0365923
-0.021598
0.150496
-0.440195
0.11465
-0.0705338
-0.0441165
0.0236545
-0.0170902
0.00445748
-0.000851298
-0.0748475
-0.0465879
0.436295
0.0111833
0.0115046
0.37234
0.224675
0.294097
0.0651817
-0.0131463
-0.121518
-0.0377721
-0.0430077
0.0807798
-0.254418
0.0674886
0.18693
0.0606714
0.0396388
-0.10031
0.101594
-0.0756623
-0.0259315
-0.12644
0.23907
0.165333
0.2625
-0.61586
-0.0795601
-0.178256
0.0125114
0.256995
-0.551407
-0.427647
-0.182884
-0.0973719
0.0869822
0.0103897
-0.21139
0.450769
-0.1319
0.0662481
0.169018
0.0146031
0.0224845
0.313928
0.283087
0.0352915
-0.246888
-0.14081
0.387697
-0.0310859
-0.0144976
-0.135701
-0.0887628
-0.0167284
0.0215852
-0.0294572
-0.110236
0.156394
-0.161427
0.00503261
0.00546971
0.145323
-0.150793
0.585122
0.163082
0.0929131
0.13514
-0.319537
-0.352054
-0.175481
0.483022
0.00300244
0.00598581
-0.00898825
0.0282377
-0.100281
0.0720436
-0.000611455
0.338582
-0.120483
-0.218099
-0.486057
-0.10473
0.0472071
-0.0640538
-0.0310976
0.0951513
0.0362302
-0.0464259
-0.0178795
-0.00035419
0.0182337
-0.0575032
0.0915514
-0.135255
0.062005
0.0732498
0.00024975
0.239259
-0.398264
-0.479717
-0.184767
-0.00107151
0.0137243
-0.0126527
-0.147265
-0.0118701
-0.0637945
-0.0343324
0.0803634
0.0342868
0.238207
0.197187
0.404955
0.140461
-0.110712
0.0816174
0.0290943
0.0372841
-0.327737
0.0262397
-0.0338056
0.18785
-0.0368988
-0.150951
0.0271413
0.0744526
0.378449
-0.144676
-0.233773
0.0222035
-0.176996
0.514326
-0.337331
0.0623828
0.0254794
-0.0331748
-0.182583
-0.144673
0.327256
0.0223439
-0.0675979
0.045254
-0.108415
0.0625291
-0.0175412
-0.0636566
0.00381715
-0.00140845
-0.0024087
-0.0806606
0.0722402
0.00429175
0.0409838
0.0340403
-0.15828
0.0617347
0.0235005
-0.0226334
-0.000867063
0.122612
-0.113529
0.0955884
-0.0401942
-0.0553942
-0.267797
0.089355
0.178442
0.348464
-0.0962235
-0.0622972
-0.00302192
-0.00617783
-0.118611
0.0915253
0.0270857
0.171911
0.0159384
0.177738
-0.361318
0.183581
-0.0864797
-0.0291225
0.115602
0.259665
-0.159215
-0.0299727
0.0472407
-0.0172681
-0.0219804
-0.000259887
0.0222403
0.156227
-0.0788427
-0.175575
0.194416
-0.363519
0.169103
0.136875
-0.152901
0.0390971
-0.0941016
0.129678
-0.256118
-0.0192702
-0.00271019
0.0459809
-0.083753
-0.0283438
-0.0119795
0.0403233
0.0890549
0.0311252
-0.153711
-0.129156
-0.511237
0.27246
0.238777
-0.0780441
0.015322
0.0627221
-0.200057
0.047385
-0.0898873
0.0425023
0.163492
-0.0134205
-0.150072
-0.0366778
0.125733
-0.386026
0.250145
0.453528
-0.22761
-0.225918
-0.0815981
-0.0370128
0.10426
0.00108908
-0.0271373
-0.0309929
0.0828332
-0.0518403
0.0521155
0.0586099
-0.110725
-0.287958
-0.526123
0.349127
0.212731
0.0167455
-0.0115839
0.0227672
0.0590874
-0.123051
0.0639636
-0.0357784
0.0831634
0.482621
-0.234655
-0.247966
0.0143103
0.0193583
0.0421419
0.0507881
-0.09293
-0.050887
-0.0722255
0.123112
0.182752
-0.22628
0.193366
0.0478983
-0.241264
-0.106369
0.266277
-0.250967
0.0022237
-0.000297579
0.0148049
-0.198207
0.376626
-0.178419
-0.104164
-0.0382287
0.0957597
-0.057531
0.00505837
0.171236
0.00888071
0.141657
-0.141187
-0.000470294
0.170003
-0.377158
-0.0393591
0.0963518
-0.0569927
0.194353
-0.281631
0.0872776
0.0975192
-0.107936
0.286251
-0.159215
-0.127035
-0.104179
0.00888109
0.0996125
-0.108494
0.35323
-0.00177542
0.138282
0.00964738
-0.0113123
0.00166497
0.172096
0.211645
-0.383741
-0.301975
0.153702
0.148273
0.352303
-0.107672
-0.244631
-0.0164499
0.0202539
-0.0379022
-0.00725402
-0.159098
-0.0971667
0.046317
0.11289
-0.0564922
-0.25198
-0.0158177
0.082847
-0.226799
0.143952
0.101315
0.0141586
-0.0111562
0.0479499
0.0606278
-0.108578
-0.00535709
0.0729078
0.468193
-0.239661
-0.228532
0.232189
-0.0772131
0.00930878
-0.00344682
0.00457309
0.2102
-0.00786814
-0.155049
-0.0631684
0.0060067
0.0571617
0.150429
0.0130632
-0.167973
-0.0200787
-0.000918349
0.00193898
-0.0541609
-0.0334713
0.0876322
-0.00977151
0.0120242
-0.141412
-0.0483163
-0.173281
-0.0473171
0.0624275
0.0230394
-0.00538275
0.0341548
-0.028772
0.194373
0.128809
0.0984329
-0.220646
0.122213
-0.00992072
0.0345251
-0.0246043
0.119584
-0.0574365
-0.0621479
-0.0803247
-0.0549301
0.494636
-0.0896803
0.0474287
-0.0259555
0.00897745
-0.012342
0.00336451
-0.158221
-0.244803
-0.102659
-0.0122467
-0.15911
0.448585
0.341148
-0.218813
-0.0235498
-0.0382936
0.0618434
-0.285427
-0.11023
-0.0120314
-0.0998986
0.11193
-0.00731337
-0.140143
-0.0241371
-0.0558891
0.0800262
-0.261662
-0.195516
0.26501
0.154096
-0.0417619
0.139345
-0.195253
0.00339433
-0.00480629
0.00103779
0.0443686
-0.0857882
-0.0529327
-0.0102357
-0.240685
0.389502
0.127424
0.158025
-0.320864
0.16284
0.462279
-0.234224
-0.0822236
-0.0392067
0.170234
-0.028864
-0.14137
0.00306484
-0.0118925
-0.149516
0.240259
-0.0435431
-0.196716
0.143165
-0.0902375
-0.0529276
-0.0680514
0.284939
-0.216888
0.114349
-0.313692
-0.196288
-0.133216
0.329504
-0.0399595
-0.0586713
0.0986308
-0.0176738
-0.000205672
0.0433238
-0.0130232
0.193727
0.176009
-0.369736
-0.0992544
-0.0170843
0.116339
-0.0326016
0.0197873
0.0128142
0.30179
0.210366
-0.512156
0.181868
-0.377605
0.23864
-0.0783283
-0.160312
0.00222192
0.00372835
-0.00595027
-0.010112
-0.0399121
0.0948915
-0.249093
-0.113332
0.0738772
0.0394549
-0.0150389
0.116129
0.138879
0.00726331
-0.146143
0.0615626
-0.192779
0.131217
0.277293
-0.0829196
0.0266605
-0.1089
0.0822396
0.0650759
0.0532941
-0.120079
0.0208249
0.0469591
-0.102146
0.0551873
0.0892249
-0.0171614
-0.0720635
0.425213
-0.187006
-0.185287
0.506243
-0.320955
-0.0453335
0.110272
0.545043
-0.406763
-0.138279
-0.123555
0.0788332
0.0447221
0.145277
0.0869121
0.0280107
0.220285
-0.347441
0.127156
-0.00438393
0.0238686
-0.0194847
0.00302319
0.000793957
0.0104064
0.213948
0.190402
-0.454433
0.264031
0.197658
-0.153685
-0.153975
0.307659
-0.0103295
-0.0870424
0.183864
0.148655
-0.332519
-0.253358
-0.257879
0.11393
0.0648733
0.0547111
-0.229088
0.452911
0.0389669
0.0495926
-0.0885596
0.58155
-0.267622
0.361533
0.169678
-0.53121
0.0242946
0.0593086
0.154395
-0.013475
-0.14092
-0.162997
0.314086
-0.151089
0.0313724
-0.00843312
0.0103373
-0.00190422
0.0549665
-0.0891985
0.157455
0.387588
-0.00690292
0.00568112
-0.202478
-0.139826
0.194169
0.261113
-0.139903
-0.0144674
0.0228557
0.163387
-0.186243
0.129457
-0.0773419
0.0611394
0.0431203
0.0395534
-0.139787
0.0632327
0.295229
-0.358461
0.129738
0.0112482
-0.112439
0.0490199
0.063419
-0.0148131
0.0144589
0.057564
-0.0957927
0.377851
0.225428
-0.603279
-0.0146384
-0.0124051
0.0179303
0.0780818
-0.096012
-0.145396
0.17638
0.184776
0.062103
-0.0179313
0.0155585
0.00237275
0.042751
-0.0642974
0.0215464
-0.0330333
0.01441
0.0186233
-0.028012
-0.00502131
-0.120479
0.0382554
0.118797
-0.0127249
-0.126293
0.15688
-0.193955
-0.143157
-0.188514
0.333864
-0.14535
-0.068707
0.0969448
0.458776
-0.0972438
-0.196383
0.380247
0.334607
0.246943
0.00390381
0.000806324
-0.00297338
0.0414121
-0.0333233
0.00356021
-0.0143681
-0.137479
-0.309085
-0.218625
0.52771
0.0223492
-0.0360019
0.042858
-0.0818293
0.0307805
-0.0849414
0.24715
0.170328
-0.417478
0.100348
-0.289098
-0.00526801
0.298128
-0.0131729
-0.139174
0.152347
-0.0466584
0.171322
-0.124663
-0.0611433
0.0834872
0.158638
-0.347421
0.188782
-0.00395595
-0.00245871
-0.00860919
0.190414
-0.0981625
-0.0922517
0.113675
0.0767389
0.112894
-0.0480205
0.124637
-0.105594
-0.0190434
0.336089
0.251688
-0.587778
-0.004184
0.00081804
0.00336596
-0.203708
0.336185
-0.132476
-0.00212373
0.0111012
0.0329695
-0.513061
0.480091
0.0205701
-0.024954
-0.00291177
-0.007039
-0.0604655
0.0547213
0.0688424
0.396135
-0.196289
-0.199846
-0.215275
0.344813
-0.0940157
0.543163
0.210774
-0.332158
0.224878
0.15357
-0.0341946
-0.0623314
0.096526
0.00234016
-0.000118245
-0.101476
0.264707
0.0821378
-0.0788347
-0.0304184
0.0557702
0.128147
-0.28817
0.128955
-0.0948366
0.0488288
0.0460078
0.177049
-0.0184644
0.0267539
-0.01368
-0.0186543
0.000164811
0.0184895
0.0110036
0.012237
0.0733967
-0.124284
-0.523781
0.249111
0.48627
0.0132893
0.0166253
-0.0312636
-0.411082
0.260571
0.150511
0.27369
-0.0259628
-0.247727
0.0455854
0.125959
-0.0313033
-0.0548697
-0.158843
0.00563145
0.153212
0.309681
-0.588589
0.278909
0.0913544
-0.0492125
-0.0567609