/*--------------------------------*- C++ -*----------------------------------*\
| =========                 |                                                 |
| \\      /  F ield         | OpenFOAM: The Open Source CFD Toolbox           |
|  \\    /   O peration     | Version:  v2012                                 |
|   \\  /    A nd           | Website:  www.openfoam.com                      |
|    \\/     M anipulation  |                                                 |
\*---------------------------------------------------------------------------*/
FoamFile
{
    version     2.0;
    format      ascii;
    class       surfaceScalarField;
    location    "400";
    object      phi_0;
}
// * * * * * * * * * * * * * * * * * * * * * * * * * * * * * * * * * * * * * //

dimensions      [0 3 -1 0 0 0 0];
oriented        oriented;


internalField   nonuniform List<scalar> 
21991
(
0.0328674
-0.0445996
0.0117322
0.235203
-0.476231
0.241028
0.12457
-0.0671344
-0.0574357
0.144089
-0.15912
0.0150309
-0.0580999
0.1632
-0.1051
0.134596
-0.0606041
-0.0739924
0.215942
-0.0243868
-0.191555
-0.266054
0.020524
0.24553
-0.100301
0.0393861
0.0609152
0.356268
-0.664485
0.308217
-0.044806
0.102112
-0.057306
0.106072
-0.106574
0.000502139
0.354585
-0.207503
-0.147081
0.041068
-0.155453
0.114385
0.0518594
0.0531018
-0.104961
-0.00404013
0.000434178
0.00360595
0.0521935
-0.110293
-0.161091
0.175888
-0.0147973
0.0186967
-0.0186967
-0.133276
0.0876513
0.0456242
0.418805
0.17821
0.0214021
0.147476
-0.168878
-0.0583161
-0.0800795
0.138396
-0.314737
0.224354
0.0903828
0.00144263
-0.000894513
-0.000548114
-0.243924
-0.0708129
-0.0020428
-0.106752
0.108795
-0.166235
0.0878891
0.078346
0.0545658
-0.0440712
-0.0104947
0.293052
-0.132808
-0.160244
0.170927
0.20081
-0.371737
-0.146393
0.155238
-0.00884474
-0.0981599
-0.0351157
-0.137147
0.144918
-0.00777083
0.0515828
-0.0915987
0.0400159
0.0277698
0.188172
-0.014402
0.0726317
-0.0582297
-0.573525
0.363221
0.210304
-0.0458894
-0.0185121
0.0644015
-0.0940544
-0.0288732
0.122928
0.0484145
0.0761556
0.0920645
-0.0404818
-0.0555036
0.0301953
0.0253083
-0.154114
-0.181361
0.335475
0.049482
0.113718
0.12242
0.108414
-0.230833
-0.0451573
0.083603
-0.0384457
0.266582
-0.223624
-0.0429583
0.16678
-0.145377
0.099373
-0.0594612
-0.0399118
0.32623
-0.20482
-0.12141
0.516191
-0.636434
0.120244
-0.246877
-0.202365
0.449241
-0.205572
0.195591
0.00998073
-0.0460012
0.100333
-0.0543322
0.0128094
0.0473304
-0.0601398
-0.0861431
0.0529297
0.0332134
-0.0406768
0.058683
-0.0180061
-0.520882
0.062971
0.457911
-0.0661862
0.188606
0.0302887
-0.0257281
-0.00456061
0.118719
0.207512
-0.366143
0.0989382
0.267205
0.0588312
-0.0460218
-0.19367
-0.172474
0.171066
-0.405355
0.234289
-0.0231532
0.441958
0.231598
-0.0435274
-0.18807
-0.738754
0.449147
0.289607
-0.0358974
0.0339137
0.00198371
-0.195229
0.301433
-0.106204
-0.128075
0.126032
-0.0444964
0.0983359
-0.0538395
-0.0107052
-0.0192611
0.0299663
-0.312135
0.0787133
0.233422
-0.00433491
-0.0315625
-0.00233714
0.000655525
0.00168162
-0.239243
0.474446
-0.124646
0.0950942
0.0295518
-0.176344
-0.262061
0.438405
-0.00266158
-0.0025512
0.00521278
0.427695
-0.256629
0.24869
0.170978
-0.419668
-0.225289
-0.0868468
-0.47261
-0.0830246
0.555634
0.00187163
-0.0825988
0.0807272
0.545479
-0.0731548
-0.472324
-0.175848
0.235266
-0.0594179
0.213439
0.230779
-0.444218
-0.0729555
-0.0932796
0.0387917
-0.162649
0.123858
-0.175935
-0.00336781
0.179303
-0.121585
0.0550329
0.0665516
-0.323445
0.141524
0.181922
0.0803145
0.0190585
-0.00218147
-0.00015567
0.013889
-0.146831
0.00043798
-0.293969
0.161563
0.132406
-0.0962469
0.051441
0.013444
0.0452389
0.0126526
-0.0479856
0.035333
0.16321
-0.63582
0.0870286
-0.16488
0.0778514
0.0498031
-0.0767363
0.0269332
0.039575
-0.0269223
0.00896572
0.0971062
-0.0991883
0.0531872
-0.371866
0.0233986
0.348467
-0.160109
0.331036
0.122335
-0.395658
0.273323
-0.0255445
0.0417834
-0.0162388
-0.082978
-0.0386066
0.00932396
-0.00995086
-0.0377554
0.0122108
0.00481677
-0.00747835
-0.0668583
-0.00443994
0.0712983
-0.0828743
0.121666
-0.504235
0.564846
-0.0606104
0.00619726
-0.167288
0.00489935
-0.00391647
-0.000982878
0.442715
-0.229276
-0.126054
0.236387
-0.110334
0.129354
0.00963572
-0.13899
9.89877e-05
-0.520981
-0.35336
-0.220165
-0.0347081
-0.047335
0.0820431
0.128097
-0.069002
-0.0584257
0.127428
-0.166512
0.00519906
0.161313
-0.154345
-0.0121661
0.0646184
-0.121435
0.056817
-0.0408715
0.0355889
0.00528261
-0.10168
0.07587
0.0258097
-0.0334611
-0.0333976
0.0668588
0.144377
-0.0150229
0.153532
-0.307645
-0.0649719
0.0748149
-0.00984298
-0.145731
-0.108183
0.253914
-0.16708
0.0299328
0.267548
0.177166
-0.444714
0.00361435
0.000416427
-0.00403078
0.545416
-0.0292257
0.00011128
0.0119646
-0.00376286
-0.00820174
-0.330177
-0.408577
0.0852633
-0.0354602
-0.373592
0.00172626
0.0272186
-0.0777536
0.0505349
-0.0222688
0.0222688
-0.0393256
-0.0609757
-0.00570636
0.00570636
-0.12711
0.0330557
-0.0285425
-0.0831316
0.111674
0.444148
-0.195459
0.0505838
-0.0371398
0.07155
-0.123924
0.0523742
0.113956
-0.054195
-0.0597606
-0.0148867
0.0145238
0.000362949
-0.0432275
0.0704461
-0.0648556
-0.334332
0.399187
0.613736
-0.0965473
-0.517189
-0.0320662
-0.00880525
0.00144263
-0.198401
0.19064
0.00776031
0.0424949
0.00808892
0.26078
0.00580217
0.00785986
-0.0297363
0.0218764
-0.322
0.0857239
0.236276
-0.323709
0.0576551
-0.00873768
-0.0536317
0.0623693
-0.209836
0.203669
0.00616642
0.0991052
-0.0996624
0.000557191
0.107041
-0.0551811
-0.0686778
0.0352167
-0.0602301
-0.0414495
-0.156182
0.0808822
0.0752998
0.140397
-0.152322
0.0119253
0.612954
-0.277801
-0.335153
-0.0456431
-0.0405
0.112227
0.0223691
0.0116823
0.0125641
-0.0242464
-0.105739
-0.102907
0.208645
-0.12424
0.146435
0.00956104
-0.185496
-0.0581905
0.0452757
0.0129148
-0.0258629
-0.0836981
0.109561
-0.119347
0.0934845
0.202109
-0.182332
-0.019777
0.541732
-0.408183
-0.133549
-0.0600446
0.00454096
-0.0725434
0.0273861
-0.131816
-0.147942
0.279759
0.0824525
-0.0444581
-0.0379944
-0.0799738
0.0655718
-0.392023
0.306597
0.0854268
-0.0297666
-0.0182191
0.310224
-0.278634
-0.0315899
0.137168
-0.114906
-0.0222621
-0.0232266
0.0014965
0.0217301
-0.00637132
6.66011e-05
0.00630472
0.340663
0.201069
-0.0680624
0.214773
-0.146711
0.121462
-0.0458603
-0.0756014
-0.117174
-0.0974172
0.214591
-0.0162153
0.0151897
0.00102551
-0.0341804
0.10573
0.0406981
0.0388204
-0.0795185
0.0813524
-0.164227
-0.277616
0.193653
0.083963
-0.211276
-0.110724
-0.00277976
0.0270569
-0.0242771
0.232166
-0.000568529
-0.392106
0.32725
-0.127562
-0.103209
0.230772
0.095892
-0.241623
0.0995541
-0.165273
0.322709
-0.157436
0.3918
-0.189067
-0.202733
-0.192827
0.370309
-0.177482
0.0431296
-0.150534
0.107404
-0.108412
0.0488241
0.0595881
0.048276
0.0888917
-0.0559081
-0.153928
-0.100995
0.29159
-0.190594
0.051327
0.0314823
-0.0828093
0.123276
-0.00340743
-0.119869
0.0536818
0.0128629
-0.0665447
-0.0200411
0.038454
-0.0184129
0.0277047
0.158974
-0.186679
0.220134
-0.344784
0.12465
-0.224259
0.156196
0.259851
0.131949
0.0240025
0.00296802
-0.0269705
0.0275736
-0.0193588
-0.00821479
0.384711
0.195292
-0.580003
0.0645354
-0.209735
0.1452
0.087084
-0.0255054
-0.0615787
0.0484222
-0.105491
0.0570689
-0.191339
0.00803475
0.183305
0.00229593
-0.00143986
-0.000856076
0.0749265
0.00721998
-0.0821465
-0.130155
-0.163814
-0.374188
-0.210279
0.374646
-0.164366
0.0695324
-0.0676607
-0.131765
0.16935
-0.037585
-0.0370749
-0.161326
-0.127318
-0.358473
0.198364
-0.0173249
0.0305723
-0.0132474
-0.250644
-0.141379
0.28892
-0.571844
0.282924
0.310032
-0.549276
-0.0176577
-0.0207143
0.038372
-0.214635
0.0974612
0.142624
0.307541
-0.450166
-0.241478
0.14777
0.0937075
0.155975
-0.351204
-0.0372149
-0.328804
0.366019
0.0646625
-0.0542867
-0.0103759
0.0199821
0.182127
0.0521836
-0.110609
0.0471509
-0.248944
0.201793
0.0387377
-0.0860954
0.0473577
-0.287448
0.120397
0.167052
-0.150198
0.116018
-0.236401
-0.112882
0.349283
-0.0119567
0.0204788
-0.00852206
-0.0263508
0.0262102
0.000140624
0.0196071
-0.00792482
0.00347311
-0.00886859
0.00539548
-0.58726
-0.508295
0.0593319
0.448963
-0.00611163
0.00972599
-0.0508498
0.103952
0.00976859
0.154976
-0.164745
0.00069896
0.0112656
0.0939073
-0.0414196
-0.0524876
0.0336685
0.00590643
0.00903658
0.0780475
0.54641
0.0106691
-0.557079
0.0246136
-0.0167538
0.0226878
0.00760091
0.00476347
-0.0086354
0.00387193
-0.0251833
0.0765103
0.03289
0.0610173
-0.0117415
-0.164107
-0.143538
0.00677366
0.136764
0.0568409
-0.0655785
-0.36209
0.196817
0.13294
-0.301181
0.168242
0.175181
0.288109
-0.18737
-0.100739
0.0408715
-0.101476
0.0289303
0.0757272
-0.104657
-0.0340861
0.0987046
-0.124667
0.100561
0.0241065
0.21127
0.111439
-0.078692
0.121822
-0.241635
0.452989
-0.211354
-0.602071
0.201407
0.400664
-0.121187
0.142411
-0.0212233
0.10977
0.0135057
-0.0946217
-0.0300243
0.100097
-0.205836
0.0308195
-0.076709
-0.0429021
0.0131355
0.0599541
0.0470864
0.0116176
-0.0110677
-0.00499494
-0.0182316
0.0628208
-0.186255
0.17696
0.00929541
-0.186858
-0.00448129
0.0303007
-0.0479584
-0.207769
0.0802069
0.0158153
0.0488472
-0.114727
0.0661025
0.0486249
0.169507
-0.481472
0.311964
0.0294256
-0.0479377
-0.0593033
0.084844
-0.0255406
0.0102305
-0.0770889
-0.0119387
0.0656205
-0.0160197
0.00406298
-0.162342
0.251314
-0.0889721
0.123753
-0.0361014
0.0386954
0.0554344
-0.0941298
-0.508196
0.0575699
0.0426688
-0.100239
-0.0126205
-0.00226619
-0.0943938
-0.0704861
0.0843256
-0.124225
0.0398993
-0.0846577
-0.0715242
-0.171792
-0.0144625
-0.324007
0.286792
-0.138375
0.339185
-0.409695
-0.192375
0.00206136
-0.217474
0.0323768
0.185097
0.0850863
0.0140188
0.061614
-0.191697
0.130083
0.242223
0.025504
-0.267727
-0.17426
0.0424946
0.149764
-0.141429
-0.182017
-0.00625165
0.0345644
-0.0283128
0.0151979
-0.00715102
-0.0080469
-0.0239958
-0.0134126
0.0374084
0.106436
-0.0670496
-0.00590849
-0.000462828
-0.00919954
0.00846479
0.000734747
-0.129817
-0.111661
0.228055
-0.474932
0.148817
-0.385218
-0.221893
0.00441893
0.024278
-0.0835813
-0.159254
0.276856
-0.117602
-0.0188807
0.0188807
0.118779
0.242368
-0.361147
0.518711
-0.22979
-0.254752
0.0707077
0.184044
0.0381152
0.0559343
-0.0940494
0.0239862
-0.0970869
0.0731007
0.112674
-0.0642518
0.0122123
0.0122917
-0.024504
-0.024299
0.0135938
-0.169202
0.17897
-0.0169086
-0.145741
-0.140314
0.098204
0.0421103
0.39297
-0.207155
-0.185815
0.184354
-0.195148
0.0107934
-0.405987
0.0183152
0.387672
-0.142323
0.0678407
0.0744819
0.0817768
0.608821
-0.363392
-0.245429
0.0158612
-0.0204168
0.00455555
-0.323161
0.262163
-0.135496
-0.126667
0.0155478
0.0484225
-0.0929189
-0.0901552
0.177963
-0.152688
-0.0252753
-0.139694
0.114561
0.0251324
-0.00523389
0.00999736
-0.149508
-0.0107464
0.160254
0.408684
-0.236743
-0.171941
0.00157423
-0.00254454
0.000970312
0.172949
-0.154354
0.498751
-0.344397
-0.000567021
-0.0300906
-0.113447
-0.386509
-0.222375
-0.163071
-0.0425008
0.00184147
-0.00223957
0.000398103
0.0583009
-0.0251494
0.0675507
-0.0424013
-0.0356647
0.11999
-0.0110353
-0.0254681
0.0365034
0.137298
-0.543286
0.1097
-0.049746
-0.159499
-0.222786
0.382284
-0.0463702
-0.0528181
0.0365329
-0.0206717
0.0135425
0.125033
-0.138576
-0.0518333
-0.0914821
0.143315
-0.080585
0.0554356
0.188814
0.0116105
0.4409
-0.574668
0.133768
-0.254708
0.153713
-0.00975218
-0.0890837
0.0988359
-0.0487896
0.0314646
0.533808
-0.17754
-0.0937424
0.18985
-0.0961074
0.0871602
0.226982
0.233277
-0.46026
0.164785
-0.153337
-0.011448
-0.213036
-0.0308884
-0.0119088
0.0447761
-0.0346656
-0.0800617
0.115544
-0.121329
0.00578532
-0.353322
-0.00710252
0.0072138
-0.180317
0.128483
-0.045334
0.127708
-0.0823743
0.0193231
-0.00711078
-0.116593
0.0219711
0.0305365
-0.155547
0.125011
-0.348219
0.129538
0.218681
-0.228651
0.209011
0.0196397
0.534504
-0.534504
0.0986384
-0.0697081
-0.233741
-0.27467
0.50841
-0.137137
-0.140479
-0.255829
-0.0423703
0.2982
-0.386915
0.145279
0.0341631
-0.0404148
-0.196279
-0.165811
-0.258649
0.110562
0.148087
0.10109
-0.129963
7.68003e-05
0.0151211
0.337663
-0.0643558
-0.273307
-0.154509
0.487926
-0.350811
-0.137115
-0.0399574
-0.135938
0.175895
0.0024196
-0.00986799
0.00744839
-0.0315211
-0.0271375
0.0586587
-0.00954996
0.0844764
0.0992255
0.137162
0.0209662
0.0108572
-0.0318234
-0.163763
-0.0313851
-0.282867
0.12512
0.157747
0.115086
0.490645
-0.60573
0.0459088
0.346939
-0.392847
-0.21448
0.343693
-0.129213
0.526428
-0.480519
-0.0197434
-0.0411239
0.0608674
-0.180928
0.187581
-0.00665287
0.555986
-0.091507
0.0878603
0.00364678
0.14783
0.340096
0.0787555
0.0352001
0.0473281
-0.0880403
0.0407122
-0.0134631
-0.14199
-0.0371768
0.0947467
0.182138
-0.00417478
-0.0135035
-0.0293986
0.109136
0.00640772
-0.0832357
-0.147173
0.230409
0.547921
0.106631
-0.116383
-0.119536
0.284915
-0.165379
-0.130159
0.331623
-0.201464
0.00195455
0.00736941
0.0116735
0.132416
0.0500832
-0.257586
-0.154371
0.137462
-0.00339403
-0.0128212
-0.00991567
0.0290239
-0.0191082
-0.131508
0.14555
-0.0140426
-0.13674
0.184998
-0.0482582
-0.0180819
0.194364
-0.176282
-0.0533792
0.0795876
-0.24193
0.0390947
0.118424
-0.157519
0.00723636
-0.258217
-0.000384603
0.258602
0.298924
0.0387383
0.0881226
0.0788717
-0.166994
-0.0676789
0.106774
0.0334821
-0.0648996
0.0314175
0.136439
-0.132522
-0.0039164
0.0394255
0.499559
-0.538984
0.0894471
-0.132642
0.0431945
0.0232651
0.46738
0.11545
-0.37128
-0.0211573
-0.00240704
0.0235643
0.0128693
-0.306659
0.0921789
-0.062493
-0.0493237
0.111817
-0.187941
-0.154213
0.421762
0.133597
-0.0890576
-0.0445393
0.00977413
-0.0313557
0.0215816
-0.289046
-0.0260287
0.315075
0.0597517
-0.30326
0.243508
0.0421614
0.503317
-0.19414
-0.13582
0.32996
-0.0236841
-0.00266667
0.17307
-0.462116
0.175574
-0.258809
-0.0778131
0.0406363
0.185168
-0.342305
0.157137
-0.257816
0.224232
0.0335837
0.00225308
0.00500095
-0.00725403
0.454153
-0.2325
-0.221653
-0.0547801
0.0974489
0.143201
-0.448286
0.305085
-0.0229109
-0.0528914
0.0758023
-0.0221046
0.000947329
0.0731764
-0.0396943
0.22855
-0.1814
0.2327
0.239379
-0.472078
-0.151847
0.116183
0.130301
-0.142042
-0.469848
0.168712
0.301135
0.0151352
-0.169238
0.154103
0.305297
-0.538439
0.233142
-0.0297386
0.119186
-0.201116
-0.147103
-0.0327325
0.120855
0.12018
-0.032291
0.135328
-0.22907
-0.0024351
-0.000116096
0.0925425
-0.0685563
-0.0493319
0.0295884
-0.0807665
0.142381
-0.277237
0.420438
-0.0759113
-0.0284164
0.104328
0.22533
-0.110102
0.140639
-0.0549982
0.0936936
-0.131338
0.0101501
-0.0861728
0.0632619
0.0343545
-0.0133883
0.618897
-0.00516071
-0.0259953
0.01496
-0.0757475
0.11837
-0.0426225
-0.166802
-0.0141256
0.093696
-0.185178
-0.00200024
-0.0121337
0.014134
-0.00597281
0.0295413
-0.0235685
-0.450198
0.273854
0.466896
0.0795133
-0.0750024
-0.334693
0.0466757
0.048056
-0.0947317
0.0563981
0.0650636
0.00279466
-0.00376831
0.000973648
0.00271788
0.336163
-0.276411
-0.0714062
-0.0189942
0.0904003
-0.0347158
0.0649111
0.0854667
-0.0630283
-0.0224384
-0.112171
0.0668367
0.158584
-0.198542
0.0195476
0.14174
-0.161288
-0.347803
0.2953
0.0525035
-0.0606303
0.0873358
-0.0267055
-0.0237633
0.01801
0.0057533
-0.161409
0.128676
0.0590707
-0.0760601
0.0169894
-0.30034
0.306505
-0.381507
0.255839
0.0699419
-0.325781
-0.147456
0.160999
0.194085
0.24863
0.0498502
-0.0845584
-0.433739
0.279385
0.00145777
0.017239
-0.0304255
-0.162917
0.133178
0.0740979
-0.0437269
-0.24496
-0.102843
0.15804
0.0103587
-0.278252
0.10905
-0.000918433
-0.0177783
0.220313
0.388508
0.254238
0.00160076
0.226217
-0.377794
0.151578
0.0770961
-0.53148
0.454384
-0.0807736
0.123564
-0.04279
0.0120965
0.00102079
-0.000592457
-0.000428336
-0.00525195
0.00133548
0.459682
0.0153101
0.226913
0.0104922
-0.147232
0.036663
0.0588322
-0.0954952
-0.029824
0.109439
-0.079615
0.032556
-0.166352
0.133796
-0.356683
0.205908
0.150775
-0.0977886
0.0650551
0.0327335
0.14542
-0.205504
0.0600833
-0.0641101
0.0325889
0.130216
0.245636
-0.375853
0.0548214
0.0435145
-0.0235865
0.00221347
0.021373
-0.199778
0.393863
0.176639
0.149651
-0.0627865
-0.0868648
0.236429
-0.279573
-0.132867
0.141403
-0.00853614
-0.154201
-0.0997527
0.253954
0.0277821
-0.0305618
0.0406813
-0.107874
0.0671922
-0.0389707
0.0796688
-0.371395
0.175116
0.0573013
0.0448106
0.0413345
0.101374
0.0482774
0.348693
0.248322
0.00656431
0.020284
-0.0268483
0.37109
-0.169615
-0.201474
0.0380671
-0.0682211
0.030154
-0.457178
0.171035
0.286143
0.298997
-0.49745
0.198453
-0.00121343
0.0282703
-0.090662
0.0908997
-0.000237699
0.0753936
-0.0373265
0.0485031
-0.119909
-0.0160258
-0.128598
0.144624
0.302583
-0.183804
-0.0389372
0.0196761
-0.140562
-0.235679
0.376241
0.0574771
-0.079618
0.0221409
0.0460519
-0.100247
0.109924
0.0750746
-0.216354
0.488981
-0.272628
0.398011
-0.19182
-0.206192
-0.0119943
-0.116081
-0.139379
0.158927
0.586283
-0.223063
0.0760004
-0.121861
-0.0812063
0.0432909
0.0379154
-0.139018
0.125555
-0.366541
0.342232
-0.000644644
0.00107882
0.0245263
-0.0147522
0.0408722
-0.19247
-0.121384
0.313854
0.0616702
0.0719266
0.182087
0.100451
0.16323
-0.263681
-0.0356926
-0.0889747
-0.0174367
0.0174756
-3.89281e-05
0.143446
-0.143273
-0.000172778
-0.00712989
0.0311323
-0.12143
0.0323726
-0.0444837
0.024633
-0.233844
0.114307
-0.0122149
-0.0115484
-0.0370708
0.094548
-0.0629464
0.376923
-0.313977
-0.0128065
-0.146314
0.0121859
-0.0880972
0.0198419
-0.00338547
-0.188052
0.16997
-0.0845272
0.117083
0.0509079
0.0315446
-0.294812
0.500479
-0.205667
0.136556
-0.13705
0.000493773
-0.149961
-0.371331
0.521293
-0.191248
-0.0384901
0.229738
-0.0559799
0.0127871
-0.0270433
0.0142562
-0.13562
0.0630709
0.0725493
0.317611
-0.359981
0.463978
0.148975
0.162239
0.289475
-0.451714
0.0363254
0.162491
-0.198817
-0.11652
0.0855069
0.0310129
-0.00784933
0.00584909
-0.0705199
-0.0697943
-0.0425849
0.0892607
-0.00240372
-0.016477
-0.114792
0.124392
-0.00960057
-0.113936
0.151313
-0.0373773
0.0306547
-0.0241094
-0.00654538
0.121797
-0.253613
0.00327457
0.162669
0.0309837
-0.0176181
0.384233
-0.366615
0.257959
-0.291026
0.0330674
0.176295
-0.164621
0.0919164
-0.138189
0.0462722
-0.405794
0.332639
-0.064476
0.158172
0.0627468
0.067282
-0.130029
-0.0507873
0.111627
-0.0608398
-0.145783
0.0318473
0.0558452
-0.0814547
0.0256095
-0.291537
0.143595
0.0865447
-0.0306996
-0.0690634
-0.0261876
0.0952509
-0.123965
0.129857
-0.00589148
-0.0104164
-0.101389
0.111805
0.68429
-0.411642
-0.272648
0.229476
-0.0146989
-0.214777
-0.00988689
-0.018718
-0.0136528
0.0323707
0.291129
-0.167454
-0.123676
-0.0925175
0.00185553
0.022131
0.29548
-0.265558
0.0396173
-0.406158
-0.149627
0.185952
-0.010795
0.0698657
-0.364459
0.2343
-0.120578
0.0404982
-0.199343
0.330286
-0.130942
0.00750587
0.140413
0.257598
-0.147951
0.147672
0.000279478
-0.174829
-0.103423
-0.430708
0.214354
-0.403023
0.243664
0.159359
0.101376
-0.0606944
0.0204224
0.124495
-0.0550028
-0.0355144
0.0905172
0.00773216
-0.381824
0.318878
0.176664
-0.472484
0.454866
-0.0332602
0.043944
-0.0106838
-0.145813
0.115722
-0.138252
0.0612549
0.0769972
0.0232404
-0.0104533
-0.168781
0.0842542
-0.167746
0.178238
-0.0589449
0.0214733
0.0374716
0.299592
-0.073375
-0.406653
0.266091
0.428926
-0.525473
-0.216355
-0.140328
0.0885848
-0.0519218
0.481105
-0.175808
0.183816
0.299812
-0.483628
-0.100372
0.0401421
0.0340483
0.0621588
-0.0962071
0.0167155
0.130163
-0.146879
0.297499
-0.0264513
-0.0181483
0.00471038
-0.00241445
0.105349
0.00749386
-0.112843
-0.184233
0.00631799
0.177915
-0.176169
0.0228323
-0.0471861
-0.0195447
0.0667307
-0.00477031
-0.110021
0.00701869
0.0434031
-0.0504218
-0.0430709
0.0686309
0.0378049
0.00637638
-0.00759598
0.201979
-0.0565584
0.116167
-0.145613
0.0294454
0.0483574
-0.0981264
0.0497691
0.60769
-0.0169035
-0.590786
-0.0414256
0.240496
-0.174039
-0.0664564
0.45343
-0.376334
-0.00122137
-0.0127619
0.0139833
-0.136294
0.124299
0.0377692
-0.00756588
0.0353479
-0.11645
0.0621648
0.0542853
-0.195737
-0.175658
0.00852318
-0.127695
0.437727
0.198379
-0.183244
0.183917
-0.195729
0.0118114
-0.0574479
-0.171203
-0.271148
-0.224803
0.495951
-0.00293247
0.00149261
0.0120372
0.00908299
-0.112223
0.10314
-0.0626403
0.0864571
-0.0238167
-0.0190639
0.166998
-0.147934
-0.00410012
-0.0194864
-0.0466541
-0.0448529
0.134211
-0.018044
-0.0216307
0.011715
0.215967
0.0245285
0.457728
-0.290453
-0.155123
0.445576
0.435394
-0.202117
0.269506
-0.202037
-0.0674686
-0.00521281
-0.0170559
0.159136
-0.175099
0.0159626
-0.000860874
0.0439066
-0.0912416
0.523121
0.0113825
-0.0232937
0.121498
0.0649388
-0.139861
0.0749222
-0.30986
0.602282
-0.292422
-0.284558
0.0933097
0.0124561
-0.0050074
0.140716
-0.273524
-0.0513678
-0.0868843
0.0911232
-0.250377
-0.289699
-0.111272
0.400971
0.126274
0.0102824
0.0540905
0.141501
-0.0176482
-0.0107139
0.0283621
-0.0458865
0.102369
-0.0564826
-0.0605327
0.0133467
0.0530979
-0.0460792
-0.100233
-0.0455497
-0.0811979
0.00446159
0.260573
0.26923
-0.529803
0.0130754
-0.0535275
0.0404521
-0.109253
0.0603574
0.0488958
-0.288531
0.171545
-0.0196968
-0.151848
0.00607173
-0.000365364
0.158814
-0.351284
0.121631
-0.0812636
-0.0403672
0.25224
-0.369359
0.117119
0.00905786
0.0132109
0.0788965
0.0427343
0.11263
0.149532
0.146701
0.356704
-0.13657
-0.671591
0.226077
0.445514
-0.170033
-0.0142007
0.0370894
-0.0298941
-0.00719536
0.359279
-0.243665
-0.115613
0.0494478
0.206957
-0.256405
-0.134664
0.0175257
0.117139
-0.216148
0.0806523
0.00192633
-0.000915563
-0.00101077
-0.00842045
0.0915586
-0.0831382
0.29286
0.134103
-0.426963
0.503404
0.0419742
-0.300191
-0.105718
-0.0108022
-0.189814
0.323183
-0.133369
-0.610531
0.424813
0.185717
-0.0551725
0.0843461
-0.0291736
0.0797493
-0.0409289
-0.135881
0.42758
-0.291699
-0.159004
0.401373
0.0419096
0.098487
-0.0272687
0.00154063
0.223823
0.248702
-0.472525
0.287372
-0.18875
-0.0986217
0.0974492
0.0636521
-0.094282
0.0306298
0.474839
-0.291023
8.33307e-05
0.00175813
0.00471065
-0.152662
-0.105119
0.0243454
-0.0494312
-0.0540542
-0.0265634
0.0806176
0.255356
-0.0342321
-0.063058
0.0972901
-0.203241
-0.337073
-0.0101959
-0.0334829
0.0436787
-0.159135
0.00478981
0.00885147
0.144633
-0.153484
0.22168
-0.435035
0.213355
0.041445
0.216514
0.00275527
-0.00364978
-0.0365923
-0.0215982
0.150496
-0.440195
0.11465
-0.0705337
-0.0441165
0.0236543
-0.01709
0.00445723
-0.000851279
-0.0748474
-0.0465881
0.436295
0.0111832
0.0115045
0.37234
0.224675
0.294097
0.0651817
-0.0131463
-0.121518
-0.0377729
-0.0430068
0.0807797
-0.254418
0.0674886
0.18693
0.0606713
0.0396389
-0.10031
0.101594
-0.0756623
-0.0259315
-0.12644
0.23907
0.165333
0.2625
-0.61586
-0.0795601
-0.178256
0.0125114
0.256995
-0.551407
-0.427647
-0.182884
-0.0973719
0.0869823
0.0103897
-0.21139
0.450769
-0.1319
0.0662481
0.169018
0.0146042
0.0224853
0.313928
0.283087
0.0352912
-0.246888
-0.14081
0.387697
-0.0310859
-0.0144976
-0.135701
-0.0887628
-0.0167283
0.0215852
-0.0294572
-0.110236
0.156394
-0.161427
0.00503261
0.00546971
0.145323
-0.150793
0.585122
0.163082
0.0929131
0.13514
-0.319537
-0.352054
-0.175481
0.483022
0.00300291
0.00598554
-0.00898846
0.0282377
-0.100281
0.0720437
-0.000611452
0.338582
-0.120483
-0.218099
-0.486057
-0.10473
0.0472071
-0.0640538
-0.0310975
0.0951514
0.03623
-0.0464259
-0.0178793
-0.000354141
0.0182334
-0.0575032
0.0915515
-0.135255
0.062005
0.0732498
0.000250125
0.239259
-0.398264
-0.479717
-0.184767
-0.0010715
0.0137242
-0.0126527
-0.147265
-0.0118701
-0.0637945
-0.034332
0.0803634
0.0342868
0.238207
0.197187
0.404955
0.140461
-0.110712
0.0816173
0.0290943
0.0372841
-0.327737
0.0262396
-0.0338055
0.18785
-0.0368988
-0.150951
0.0271413
0.0744526
0.378449
-0.144676
-0.233773
0.0222036
-0.176996
0.514326
-0.337331
0.0623803
0.02548
-0.0331748
-0.182583
-0.144673
0.327256
0.0223439
-0.0675979
0.045254
-0.108416
0.062529
-0.0175411
-0.0636568
0.00381755
-0.00140849
-0.00240906
-0.0806606
0.0722402
0.00429168
0.040984
0.0340403
-0.15828
0.0617347
0.0235007
-0.0226336
-0.000867078
0.122612
-0.113529
0.0955883
-0.0401941
-0.0553942
-0.267797
0.089355
0.178442
0.348464
-0.0962235
-0.0622971
-0.00302181
-0.00617773
-0.118611
0.0915252
0.0270857
0.171911
0.0159384
0.177738
-0.361318
0.183581
-0.0864797
-0.0291225
0.115602
0.259665
-0.159215
-0.0299727
0.0472408
-0.0172682
-0.0219805
-0.000259906
0.0222404
0.156227
-0.0788427
-0.175575
0.194416
-0.363519
0.169103
0.136875
-0.152901
0.0390985
-0.0941012
0.129678
-0.256118
-0.0192703
-0.00271015
0.0459809
-0.0837538
-0.028344
-0.0119795
0.0403234
0.0890549
0.0311252
-0.153711
-0.129156
-0.511237
0.27246
0.238777
-0.0780439
0.0153215
0.0627223
-0.200057
0.0473883
-0.0898882
0.0424999
0.163492
-0.0134205
-0.150072
-0.0366778
0.125733
-0.386026
0.250145
0.453528
-0.22761
-0.225918
-0.0815981
-0.0370128
0.10426
0.00108909
-0.027136
-0.0309929
0.0828335
-0.0518406
0.0521155
0.0586099
-0.110725
-0.287958
-0.526123
0.349127
0.212731
0.0167455
-0.0115839
0.0227671
0.0590873
-0.123051
0.0639635
-0.0357749
0.0831632
0.482621
-0.234655
-0.247966
0.0143102
0.0193583
0.0421419
0.0507882
-0.0929301
-0.050887
-0.0722255
0.123112
0.182752
-0.22628
0.193366
0.0478983
-0.241264
-0.106369
0.266277
-0.250967
0.00222384
-0.000297509
0.0148049
-0.198207
0.376626
-0.178419
-0.104164
-0.0382282
0.0957591
-0.0575309
0.00505837
0.171236
0.00888071
0.141657
-0.141187
-0.000470294
0.170003
-0.377158
-0.039359
0.0963519
-0.056993
0.194353
-0.281631
0.0872776
0.0975192
-0.107936
0.286251
-0.159215
-0.127035
-0.104179
0.00888111
0.0996125
-0.108494
0.35323
-0.00177547
0.138282
0.00964717
-0.0113121
0.00166495
0.172096
0.211645
-0.383741
-0.301975
0.153702
0.148273
0.352303
-0.107672
-0.244631
-0.01645
0.0202537
-0.0379019
-0.00725402
-0.159098
-0.0971667
0.0463169
0.11289
-0.0564922
-0.25198
-0.0158177
0.082847
-0.226799
0.143952
0.101315
0.0141588
-0.0111559
0.0479501
0.0606278
-0.108578
-0.005357
0.0729077
0.468193
-0.239661
-0.228532
0.232189
-0.0772131
0.00930905
-0.00344694
0.00457308
0.2102
-0.00786814
-0.155049
-0.0631685
0.006007
0.0571615
0.150429
0.0130632
-0.167973
-0.0200787
-0.000918318
0.00193911
-0.0541609
-0.0334712
0.0876322
-0.00977142
0.0120245
-0.141412
-0.0483163
-0.173281
-0.0473171
0.0624275
0.0230392
-0.0053826
0.0341548
-0.0287722
0.194373
0.128809
0.0984329
-0.220646
0.122213
-0.00992081
0.0345252
-0.0246044
0.119584
-0.0574365
-0.0621479
-0.0803247
-0.0549301
0.494636
-0.0896803
0.0474285
-0.0259552
0.00897751
-0.0123419
0.00336439
-0.158221
-0.244803
-0.102659
-0.0122467
-0.15911
0.448585
0.341148
-0.218813
-0.0235508
-0.0382918
0.0618426
-0.285427
-0.11023
-0.0120314
-0.0998986
0.11193
-0.00731337
-0.140143
-0.024137
-0.0558893
0.0800263
-0.261662
-0.195516
0.26501
0.154096
-0.0417619
0.139345
-0.195253
0.00339443
-0.00480647
0.00103816
0.0443686
-0.0857882
-0.0529324
-0.010236
-0.240685
0.389502
0.127424
0.158025
-0.320864
0.16284
0.462279
-0.234224
-0.0822236
-0.0392066
0.170234
-0.028864
-0.14137
0.00306481
-0.0118925
-0.149516
0.240259
-0.0435431
-0.196716
0.143165
-0.0902375
-0.0529276
-0.0680514
0.284939
-0.216888
0.114349
-0.313692
-0.196288
-0.133216
0.329504
-0.0399602
-0.0586705
0.0986307
-0.0176735
-0.000205712
0.0433238
-0.0130231
0.193727
0.176009
-0.369736
-0.0992545
-0.0170843
0.116339
-0.0326015
0.0197873
0.0128141
0.30179
0.210366
-0.512156
0.181868
-0.377605
0.23864
-0.0783283
-0.160312
0.00222167
0.0037288
-0.00595047
-0.010112
-0.039912
0.0948915
-0.249093
-0.113332
0.0738771
0.039455
-0.0150389
0.116129
0.138879
0.00726331
-0.146143
0.0615626
-0.192779
0.131217
0.277293
-0.0829196
0.0266605
-0.1089
0.0822395
0.065076
0.053294
-0.120079
0.0208249
0.0469595
-0.102147
0.0551873
0.0892255
-0.0171595
-0.072066
0.425213
-0.187006
-0.185287
0.506243
-0.320955
-0.0453335
0.110272
0.545043
-0.406763
-0.138279
-0.123555
0.0788332
0.0447221
0.145277
0.0869121
0.0280107
0.220285
-0.347441
0.127156
-0.00438388
0.0238685
-0.0194847
0.00302362
0.000793925
0.0104064
0.213948
0.190402
-0.454433
0.264031
0.197658
-0.153685
-0.153975
0.307659
-0.0103295
-0.0870424
0.183864
0.148655
-0.332519
-0.253358
-0.257879
0.11393
0.0648733
0.0547111
-0.229088
0.452911
0.0389667
0.0495927
-0.0885594
0.58155
-0.267622
0.361533
0.169678
-0.53121
0.0242944
0.0593085
0.154395
-0.013475
-0.14092
-0.162997
0.314086
-0.151089
0.0313722
-0.00843292
0.0103371
-0.00190415
0.0549661
-0.0891982
0.157455
0.387588
-0.00690268
0.00568132
-0.202478
-0.139826
0.194169
0.261113
-0.139903
-0.0144674
0.0228557
0.163387
-0.186243
0.129457
-0.0773419
0.0611394
0.0431203
0.0395534
-0.139787
0.0632327
0.295229
-0.358461
0.129738
0.0112483
-0.112439
0.0490198
0.063419
-0.0148128
0.0144587
0.0575636
-0.0957918
0.377851
0.225428
-0.603279
-0.014638
-0.0124054
0.0179303
0.0780817
-0.0960121
-0.145396
0.17638
0.184776
0.062103
-0.0179314
0.0155586
0.00237278
0.0427511
-0.0642967
0.0215456
-0.0330328
0.014409
0.0186238
-0.0280121
-0.00502068
-0.120479
0.0382554
0.118797
-0.0127249
-0.126293
0.15688
-0.193955
-0.143157
-0.188514
0.333864
-0.14535
-0.0687071
0.0969448
0.458776
-0.0972438
-0.196383
0.380247
0.334607
0.246943
0.00390377
0.00080661
-0.00297336
0.0414119
-0.033323
0.00356081
-0.0143681
-0.137479
-0.309085
-0.218625
0.52771
0.0223491
-0.0360019
0.0428582
-0.0818289
0.0307804
-0.0849413
0.24715
0.170328
-0.417478
0.100348
-0.289098
-0.00526801
0.298128
-0.0131729
-0.139174
0.152347
-0.0466584
0.171322
-0.124663
-0.0611433
0.0834872
0.158638
-0.347421
0.188782
-0.00395595
-0.00245862
-0.00860913
0.190414
-0.0981625
-0.0922517
0.113675
0.0767389
0.112894
-0.0480205
0.124637
-0.105594
-0.0190434
0.336089
0.251688
-0.587778
-0.00418432
0.000817875
0.00336644
-0.203708
0.336185
-0.132476
-0.00212357
0.0111011
0.0329695
-0.513061
0.480091
0.0205702
-0.024954
-0.0029117
-0.00703916
-0.0604655
0.0547213
0.0688423
0.396135
-0.196289
-0.199846
-0.215275
0.344813
-0.0940157
0.543163
0.210774
-0.332158
0.224878
0.15357
-0.0341961
-0.06233
0.0965261
0.0023402
-0.000118533
-0.101476
0.264707
0.0821378
-0.0788348
-0.0304184
0.0557702
0.128147
-0.28817
0.128955
-0.094837
0.0488301
0.0460069
0.177049
-0.0184644
0.026754
-0.0136786
-0.0186545
0.000164824
0.0184896
0.0110033
0.0122371
0.0733967
-0.124284
-0.523781
0.249111
0.48627
0.0132893
0.0166255
-0.0312635
-0.411082
0.260571
0.150511
0.27369
-0.0259628
-0.247727
0.0455854
0.125959
-0.0313033
-0.0548695
-0.158843
0.00563145
0.153212
0.309681
-0.588589
0.278909
0.0913546
-0.0492126