/*--------------------------------*- C++ -*----------------------------------*\
| =========                 |                                                 |
| \\      /  F ield         | OpenFOAM: The Open Source CFD Toolbox           |
|  \\    /   O peration     | Version:  v2012                                 |
|   \\  /    A nd           | Website:  www.openfoam.com                      |
|    \\/     M anipulation  |                                                 |
\*---------------------------------------------------------------------------*/
FoamFile
{
    version     2.0;
    format      ascii;
    class       volVectorField;
    location    "400";
    object      U;
}
// * * * * * * * * * * * * * * * * * * * * * * * * * * * * * * * * * * * * * //

dimensions      [0 1 -1 0 0 0 0];


internalField   nonuniform List<vector> 
14804
(
(0.721023 0.00720283 -3.37287e-22)
(1.00746 0.00990085 0)
(1.05131 0.00350444 2.15007e-22)
(1.05241 0.0123741 4.22266e-21)
(1.06047 0.0155557 4.37951e-23)
(1.06579 0.00679055 -2.38045e-22)
(1.02955 0.0448884 -3.18863e-23)
(0.978796 0.00689571 2.28416e-20)
(1.04794 0.00888868 0)
(1.0003 0.000208594 -6.5182e-24)
(1.12776 -0.0137382 0)
(1.0518 0.00230295 0)
(0.96875 0.00132076 1.0489e-21)
(1.0547 0.0110173 -3.17351e-21)
(1.14651 0.0407611 8.19836e-20)
(0.0594288 -0.00240122 2.77186e-20)
(1.0612 0.0151093 9.53342e-23)
(1.05231 0.0135159 9.46539e-21)
(0.30715 0.0084952 4.39886e-21)
(1.05102 0.00909529 0)
(0.999997 9.26051e-07 4.77514e-21)
(1.01073 0.0702148 3.65037e-21)
(0.973638 0.133639 7.63239e-21)
(1.03264 0.0357666 1.02929e-21)
(0.035401 -0.00468953 0)
(1.03141 0.0361343 -2.53864e-22)
(1.0513 0.00942398 0)
(1.05828 0.014098 8.77843e-21)
(0.813166 0.00717638 3.58839e-21)
(1.03903 0.0263057 4.84905e-21)
(1.03251 0.0103224 -4.31077e-22)
(0.955007 0.123472 0)
(1.051 0.00907543 8.93008e-21)
(1.07552 0.0297201 0)
(1.04859 0.00975266 -3.5157e-21)
(1.03058 0.044347 1.23184e-23)
(1.05811 0.0162157 0)
(1.00003 0.000944621 0)
(0.950357 0.0902282 3.44701e-20)
(1.05181 0.00884265 -8.5952e-21)
(1.05091 0.00382203 -4.9625e-21)
(1.04884 0.00975612 0)
(0.701479 0.291768 0)
(0.994796 0.0185001 7.91341e-21)
(1.05977 0.0152394 0)
(0.955757 0.0308398 0)
(1.03539 -0.0180954 -5.22119e-21)
(0.982668 0.0296615 -2.68525e-20)
(1.01072 0.0726254 7.33095e-21)
(1.12413 0.306123 -7.08682e-20)
(0.967286 0.00422225 -2.50721e-20)
(1.0185 0.000547507 -3.35669e-21)
(0.999145 0.00583186 1.03166e-20)
(1.0479 0.012887 0)
(1.11272 0.332386 0)
(1.01013 0.0118786 -5.02479e-21)
(1.04919 -0.00196925 -2.67351e-21)
(0.831946 0.00741003 2.44824e-21)
(0.996235 -0.00348523 -1.55148e-20)
(0.953286 0.0312238 0)
(0.558743 0.0152219 -5.57566e-21)
(0.96565 0.00483816 -2.5017e-22)
(0.996355 0.020611 -4.26731e-21)
(0.979232 0.0104992 -5.21832e-21)
(0.995972 0.0198121 -3.80505e-21)
(0.99884 0.00504392 -7.72435e-21)
(0.999971 -4.26298e-05 -1.16681e-20)
(1.02264 0.0465972 0)
(1.00153 0.000460941 0)
(0.596481 -0.0116498 8.5468e-22)
(1.03505 0.00804995 1.51411e-21)
(1.05123 0.00950441 0)
(1.13699 -0.00799133 1.24072e-20)
(0.502871 -0.0199015 6.74598e-21)
(1.04198 0.00918869 4.82354e-21)
(0.613608 -0.0114094 -8.83274e-22)
(-0.0376267 -0.00747545 1.56032e-22)
(1.00763 0.00956899 3.83459e-21)
(0.832573 0.139015 0)
(1.02237 0.00626865 -1.04736e-21)
(-0.0915131 -0.0204125 7.33014e-20)
(0.999024 0.00517492 7.00284e-21)
(1.02235 0.00716484 1.13848e-21)
(1.04188 0.00953396 -2.20667e-21)
(1.00006 0.000606201 2.1318e-21)
(1.08563 -0.00826581 1.97761e-20)
(1.01073 0.00162772 -4.39912e-21)
(1.04493 0.0114045 -1.98682e-21)
(1.00911 0.00721443 3.46854e-21)
(1.05882 0.0144064 9.71536e-21)
(1.07028 0.0354075 -2.76781e-22)
(0.984931 0.0657102 -4.97922e-21)
(1.04907 0.00826168 -4.87507e-21)
(1.03369 0.00796385 1.1416e-21)
(1.13261 0.301002 5.26791e-20)
(-0.0221871 -0.00888588 4.5691e-20)
(0.800488 0.00705047 -2.47437e-21)
(0.954052 0.117734 0)
(1.01772 0.0427588 -3.16868e-21)
(1.1358 -0.0157211 0)
(0.820762 0.00755528 -2.4842e-21)
(0.687305 -0.0152882 -1.49831e-21)
(1.00005 0.000491463 4.63311e-21)
(1.05517 0.0104307 9.98769e-22)
(1.04331 0.0120537 -2.0469e-21)
(0.629869 -0.0154188 3.23646e-21)
(1.05168 0.0026629 0)
(1.10521 0.330135 -2.64823e-20)
(0.993195 -0.00124045 1.33542e-20)
(1.03307 0.0102892 7.14365e-22)
(0.994288 0.00746084 0)
(0.731352 0.00855636 3.15463e-21)
(1.04906 0.00806096 -3.97289e-21)
(-0.19608 -0.0136013 5.23823e-20)
(0.708543 0.00976878 -4.28995e-21)
(-0.128297 -0.0187156 4.70798e-20)
(1.04342 -0.00320371 -1.6228e-21)
(1.07176 0.0345283 1.06254e-20)
(1.00005 0.000591718 -1.49093e-20)
(1.05271 0.013655 -9.48587e-21)
(-0.0598607 -0.0102565 -8.9714e-20)
(1.00917 0.00690041 -1.02205e-20)
(1.03865 0.045202 4.36108e-21)
(1.06602 0.0155259 -1.60878e-21)
(0.996612 -0.00355734 1.41328e-20)
(1.00002 0.000675444 0)
(1.0425 -0.00117215 3.49084e-21)
(1.05482 0.0106265 -3.94774e-21)
(0.969213 0.14457 -1.69761e-20)
(1.06427 0.0215611 0)
(1.06429 0.0226225 0)
(1.11677 0.00502355 0)
(0.607724 -0.00359417 0)
(1.11906 -0.0191114 0)
(1.03889 0.00197767 -3.23565e-21)
(1.06514 0.0155399 0)
(0.994043 0.0183557 1.0231e-20)
(1.1094 -0.0361802 0)
(1.03926 0.0216303 0)
(1.07718 0.0305222 0)
(1.0032 0.00977652 6.72686e-21)
(0.0737256 0.0233201 0)
(1.01795 0.000457615 3.369e-21)
(-0.237868 -0.0112552 0)
(0.205599 -0.00643005 0)
(1.00132 0.000407916 0)
(1.04418 0.0119553 0)
(0.993767 -0.00112511 -1.29964e-20)
(1.06571 -0.020669 0)
(0.311847 0.0108198 6.188e-21)
(1.04794 0.00864817 0)
(0.0977183 0.000568976 0)
(1.05174 0.00898606 9.58605e-21)
(1.05443 0.00998973 -9.36704e-21)
(1.02217 0.00682859 -2.5762e-22)
(0.780645 0.00767652 0)
(1.05097 0.00857218 -4.94908e-21)
(1.17144 0.0166146 -2.721e-20)
(0.270116 -0.000233597 -2.76324e-21)
(1.06951 -0.0217178 -9.80922e-21)
(1.00462 0.00593075 0)
(1.00308 0.000647583 -1.17372e-20)
(0.619508 -0.00464325 0)
(0.0129736 -0.00344131 1.48048e-20)
(1.05105 0.0198259 1.1465e-20)
(0.767678 0.00808311 0)
(0.982122 0.0310131 1.91347e-20)
(0.546988 0.0140416 0)
(1.0396 0.0242836 -1.96479e-21)
(0.978877 0.0056834 -2.9623e-20)
(1.0532 0.00528947 0)
(0.992701 0.07577 -8.47697e-21)
(1.05847 -0.00365469 4.76226e-21)
(1.1421 0.0402518 -3.96451e-20)
(1.05384 0.00322245 4.00886e-21)
(1.11998 -0.01793 -2.16282e-20)
(0.84397 0.0671267 0)
(1.07721 0.0250818 0)
(1.01433 0.00135999 -1.71936e-21)
(1.04986 -0.00241137 -9.91365e-22)
(1.06496 0.00645505 -9.52454e-21)
(0.393955 -0.0408205 3.27102e-23)
(1.03121 0.0406178 8.4273e-23)
(0.8816 0.0072864 6.66308e-20)
(0.984647 0.0632483 0)
(0.855129 -0.00577976 2.16544e-21)
(1.08913 0.0231849 2.03218e-20)
(1.0876 0.0242942 -1.85138e-20)
(1.05524 0.0259992 0)
(1.01913 0.00764493 1.81677e-21)
(0.690764 0.270702 3.48714e-20)
(1.00635 -0.0184047 2.98713e-21)
(1.01306 0.034666 3.36116e-21)
(1.08874 -0.0339097 0)
(1.0601 0.0161378 -2.48574e-21)
(1.00003 0.0186163 0)
(0.702661 -0.0165016 1.64318e-21)
(0.970507 0.00493428 -4.3457e-21)
(1.10648 0.089392 0)
(0.386397 0.00710853 -3.58289e-21)
(0.110137 -0.00965945 -5.29669e-21)
(1.01939 0.00747822 0)
(1.04632 0.0277324 -8.24848e-21)
(1.12722 0.0522561 0)
(0.949104 -0.00355042 0)
(0.291941 0.00263941 2.96085e-22)
(1.05092 0.00845854 -8.10977e-21)
(1.10706 -0.0308703 1.47466e-20)
(1.07319 0.0353653 0)
(1.02794 0.0472966 0)
(1.03916 0.0248186 -1.53298e-21)
(0.56934 0.0156962 -4.39521e-21)
(1.02406 0.0470938 0)
(1.00464 0.00575599 0)
(1.00188 0.0497966 0)
(1.03974 0.0222419 0)
(1.05445 0.0104078 0)
(1.00332 0.022284 3.49732e-21)
(0.988606 0.00362738 -8.94737e-21)
(0.99629 0.0180759 -5.57259e-21)
(0.889265 0.029431 4.57106e-22)
(1.04876 0.00856538 -6.96808e-23)
(1.10878 0.0872214 9.89783e-22)
(0.990944 0.0733346 1.11987e-20)
(1.02893 0.0189557 -2.95753e-22)
(1.11203 -0.0294211 3.56258e-20)
(1.05105 0.00901355 -3.86969e-21)
(1.03786 0.0126496 5.05773e-21)
(0.65343 -0.00485746 3.22402e-21)
(1.01314 0.0665122 -2.732e-21)
(1.03319 0.00912933 1.00819e-21)
(1.04529 0.0277345 3.6148e-21)
(0.988022 0.00421035 0)
(0.470562 -0.010986 0)
(0.456677 -0.0188318 9.79925e-22)
(1.00003 0.000513625 0)
(0.959745 0.0339057 0)
(1.04599 0.0136237 4.23437e-21)
(1.10049 0.000682699 -1.2439e-20)
(1.04547 0.0565725 -9.45719e-21)
(0.0116281 0.0185201 6.84366e-20)
(1.0105 0.404604 -5.06211e-21)
(1.01626 0.0427106 6.41415e-22)
(0.995453 0.0178217 -7.36714e-21)
(1.02221 0.0152106 -1.28441e-21)
(1.08605 -0.00986184 1.19054e-20)
(1.05973 0.0336363 -1.00503e-20)
(1.05089 0.0204888 -6.85636e-21)
(0.967888 0.136726 9.0793e-21)
(1.03349 0.0106808 0)
(0.504162 0.109831 -7.12817e-20)
(0.999845 0.018071 -6.3308e-21)
(1.00402 0.00435296 -7.54619e-21)
(1.0074 0.00905743 -3.98115e-21)
(0.66468 0.000208107 2.06359e-21)
(0.949513 -0.00558564 1.99392e-20)
(1.01821 0.00728875 0)
(1.04897 0.0244337 -7.86836e-22)
(1.03458 0.00820359 -9.10244e-23)
(0.998891 0.00381992 0)
(0.97721 -0.00141456 0)
(1.05554 0.0251257 1.32791e-21)
(0.964054 0.147287 1.13862e-20)
(0.973785 0.00452858 -1.75064e-20)
(1.17114 -0.0159332 -3.14386e-20)
(1.03673 0.0250169 2.84726e-22)
(1.05081 0.00850656 1.13058e-20)
(1.02162 0.0143368 -1.33471e-21)
(0.362514 0.00427742 -1.71631e-21)
(0.474984 0.0125476 1.38807e-22)
(0.340253 -0.0373099 1.07036e-20)
(0.142967 0.00494389 0)
(1.00004 0.000456824 1.32858e-20)
(0.996209 -0.004592 1.18481e-20)
(0.167395 0.035384 6.41955e-20)
(1.14892 0.0365915 -7.07731e-20)
(1.04539 0.0130087 0)
(0.195189 -0.00375523 0)
(0.762545 0.207152 -5.12536e-20)
(0.616081 -0.0146898 -2.22788e-21)
(1.04645 0.0138754 -5.23254e-21)
(1.00589 0.00117608 -2.9791e-21)
(0.569201 0.0121532 -2.12276e-21)
(0.5523 0.0130207 5.2618e-21)
(0.152165 -0.0325137 -1.25109e-21)
(1.1158 -0.0314078 -1.92327e-20)
(0.767801 0.225972 5.69745e-20)
(1.04524 0.0116724 5.4075e-21)
(0.890014 0.048352 0)
(1.04705 0.0050984 0)
(1.00353 0.0215028 -5.70793e-21)
(1.03519 0.0254642 8.50185e-22)
(1.01322 0.069032 -2.46173e-21)
(1.0421 0.010226 2.20698e-21)
(1.06599 0.00753308 -9.18816e-21)
(1.24705 0.194563 4.45308e-20)
(1.11722 0.00132869 0)
(0.953217 0.14916 -2.57461e-20)
(1.00382 0.0225936 6.19165e-21)
(0.88436 0.0278718 -6.8265e-20)
(1.01721 0.0124992 0)
(1.00613 0.00902589 -4.65582e-21)
(0.89948 0.0785567 5.59829e-20)
(1.051 0.00903242 2.44695e-21)
(0.829205 0.128457 0)
(1.03018 0.0400971 0)
(1.08087 0.117621 -3.35897e-20)
(0.653111 -0.0165789 -2.55123e-21)
(1.14025 0.0357511 3.67694e-20)
(-0.226789 -0.0137353 0)
(0.398656 0.00557091 3.18794e-21)
(1.04225 0.00988303 -2.43887e-21)
(0.953563 0.0782972 1.88541e-20)
(1.04353 0.0570945 4.7966e-21)
(0.699468 8.39799e-05 6.5829e-23)
(1.00034 0.0503559 0)
(0.986267 -0.000868336 -2.15737e-22)
(1.12388 -0.00356153 -1.72079e-20)
(1.02051 0.00446588 0)
(0.783536 0.0715827 -4.01003e-20)
(1.04809 0.0137424 -5.2654e-22)
(1.0436 -0.00350049 -1.24259e-21)
(1.04734 0.0131628 -7.25784e-21)
(0.334642 0.00795864 0)
(1.0412 0.00788883 0)
(1.05108 0.00907379 1.97205e-21)
(1.14385 0.0153813 2.41557e-20)
(0.996587 -0.00419863 -1.42671e-20)
(1.22006 0.0227852 1.95948e-20)
(0.280755 -0.00151967 4.11001e-21)
(1.05557 0.0105627 3.5297e-21)
(1.05264 0.0102659 7.05248e-21)
(0.847466 0.0608132 4.73855e-20)
(0.954226 0.0743387 -5.92854e-21)
(0.99901 0.00386813 0)
(1.03213 0.00991102 -6.11741e-22)
(1.00576 0.00892426 -4.80586e-21)
(-0.228442 -0.0103667 -3.78815e-20)
(0.971654 0.0369792 -1.26355e-20)
(1.05796 -0.00319138 -2.58708e-21)
(0.997943 0.0720097 5.00909e-21)
(1.0404 0.0159445 -1.98587e-21)
(1.06073 0.0344859 1.74187e-20)
(0.967164 0.00204757 1.65618e-20)
(1.03355 0.00835268 -9.69711e-23)
(0.739721 0.00562793 2.87352e-21)
(0.285946 -0.0326239 0)
(0.63015 -0.00987936 1.33022e-21)
(1.04777 0.00902134 0)
(0.124962 -0.0117857 -7.94321e-22)
(0.160961 -0.00527501 -7.76366e-21)
(1.04896 0.0250368 -8.78751e-21)
(0.999332 0.00556575 -7.17412e-21)
(1.0211 0.014068 1.37235e-21)
(0.970511 0.0354001 -1.28768e-20)
(1.0473 0.0139651 2.30622e-21)
(1.01411 0.040898 0)
(0.306594 0.00963067 -4.39292e-21)
(1.02617 0.00780853 0)
(1.00412 0.00469277 1.51709e-20)
(0.975198 0.0378692 1.50651e-20)
(1.088 -0.00555833 0)
(1.0503 0.0105594 -3.20068e-21)
(1.09852 0.00201839 0)
(0.382182 -0.0474223 0)
(0.459924 -0.0172151 -5.82971e-21)
(1.04493 0.013016 3.66781e-21)
(1.0698 0.0372176 1.60274e-20)
(1.07517 0.0124973 0)
(0.997919 0.0162464 5.01647e-21)
(1.03804 0.0476135 2.72257e-21)
(0.998997 0.000904682 3.11567e-21)
(0.961394 0.159762 8.98667e-21)
(1.03956 0.0257864 1.53394e-22)
(1.00769 0.00800211 0)
(0.259878 0.110065 -1.94427e-22)
(1.02168 0.0148884 1.31104e-21)
(0.990491 0.0407552 1.43379e-20)
(0.618718 -0.00287638 -3.62161e-21)
(1.14556 -0.0095047 -5.35312e-20)
(1.12095 -0.0337151 0)
(1.05498 0.0167699 0)
(1.10107 0.0955241 -2.43803e-20)
(0.191541 -0.0353411 4.80499e-21)
(1.0595 0.0313491 1.31322e-20)
(0.998884 0.0171547 -1.2808e-20)
(0.015761 -0.023253 -3.18269e-20)
(0.957386 0.0339263 0)
(1.0002 0.00382849 5.35392e-21)
(0.0683948 0.000184059 0)
(0.894894 0.0455844 0)
(1.03003 0.00641416 -3.9575e-22)
(0.974151 0.0365747 -9.94131e-21)
(1.04781 0.0132836 0)
(0.0310537 -0.0117851 -7.43356e-22)
(1.03885 0.0463193 -3.03178e-21)
(1.05116 -0.00816345 0)
(1.05246 0.0103372 0)
(0.563774 0.00282166 8.42942e-20)
(0.999084 0.000741501 0)
(1.13612 0.0353685 3.36805e-20)
(0.999094 0.00966656 0)
(1.09154 0.340627 2.38117e-20)
(0.55838 0.20209 0)
(1.06581 0.0742699 -1.13699e-20)
(0.93212 0.0444246 2.84788e-23)
(1.04718 -0.00818788 0)
(0.968812 0.00562364 0)
(1.05103 0.00905358 -1.16478e-20)
(0.999953 0.00051746 0)
(1.02925 0.0194521 2.46268e-22)
(0.899943 0.0904962 -1.83824e-20)
(0.704903 0.163354 -4.59821e-20)
(1.00036 0.000166888 -8.96094e-21)
(1.04234 0.0109801 -2.03085e-21)
(1.15687 -0.0135336 6.05842e-20)
(0.99716 0.00110661 0)
(1.05567 0.0176868 0)
(1.03107 0.0372425 0)
(0.746641 0.00647806 2.46863e-21)
(1.12669 -0.00177315 -5.75362e-20)
(1.06059 0.00656829 -1.47268e-20)
(1.03089 0.00662099 -4.1491e-24)
(-0.198676 -0.0111988 0)
(0.935565 0.0447679 4.271e-23)
(1.0512 0.00856972 -3.32263e-21)
(0.313345 -0.0459163 1.78442e-20)
(0.838638 0.119673 -6.47888e-20)
(1.04974 0.0104855 0)
(1.03207 0.00811076 -1.87814e-22)
(1.0408 0.0378741 3.53625e-21)
(1.00425 0.000153104 5.449e-21)
(1.2128 0.185312 0)
(1.00038 0.00425697 -1.58858e-20)
(1.02658 0.0477847 0)
(0.985801 0.00190967 0)
(1.01682 0.0121069 -1.81462e-21)
(0.770311 0.00582339 -7.80554e-21)
(1.00288 0.0207903 -6.03285e-21)
(0.97806 0.0388578 1.47881e-20)
(1.05174 0.00873877 4.18948e-21)
(0.270881 -0.0299349 -1.53191e-21)
(1.02137 0.0198315 0)
(1.0362 0.0256459 7.37944e-22)
(1.01376 0.00974086 2.8623e-23)
(1.05037 0.0128142 9.54718e-21)
(-0.1985 -0.014471 -4.12384e-23)
(0.884461 -0.0482398 2.4636e-22)
(1.01801 0.390394 0)
(1.03985 0.0445637 -1.86547e-21)
(0.570553 -0.00886514 8.41021e-22)
(1.03676 0.047783 -2.33462e-21)
(1.04103 0.0108822 0)
(0.999965 0.000476569 4.78174e-21)
(1.01712 0.000284169 2.77817e-21)
(1.003 0.0246934 -7.23126e-21)
(1.01485 0.000188423 -1.11507e-22)
(0.914035 -0.0330271 0)
(1.04964 0.0226067 7.27704e-21)
(0.999932 0.000627611 -5.03529e-21)
(1.1902 0.0287414 5.66654e-20)
(1.01415 0.00968194 -3.48917e-21)
(1.16669 0.0138949 -2.84459e-20)
(1.06699 -0.020117 0)
(1.05502 0.0113485 -1.61948e-21)
(1.20251 0.0166623 0)
(1.0549 0.0161327 0)
(0.668 -0.01747 4.90234e-21)
(1.06008 0.00626825 1.09418e-20)
(0.965888 0.0132481 0)
(1.00004 0.000645099 -4.42287e-21)
(0.906292 0.0898708 -4.38696e-20)
(1.0222 0.0323738 0)
(1.01912 0.0202562 -2.49862e-21)
(-0.181466 -0.0141838 -6.00095e-20)
(1.05208 0.0122341 -6.07876e-21)
(0.970456 0.00228345 0)
(1.06809 0.037565 0)
(0.302939 0.000490168 0)
(0.487291 -0.0363746 3.5746e-22)
(1.06383 0.0144518 1.09564e-20)
(1.05391 0.0162277 0)
(1.04062 0.0595358 -5.05233e-21)
(1.04877 0.00835955 0)
(1.04157 0.00806703 0)
(0.921619 0.0601048 -2.12314e-20)
(-0.161945 -0.0164697 -9.45316e-20)
(0.984752 0.0148836 -8.02002e-23)
(1.02201 0.019883 0)
(1.07429 0.0556337 2.29458e-20)
(0.917495 0.0610471 0)
(1.05894 0.0163952 3.53699e-21)
(1.0798 0.041618 -2.67338e-20)
(1.01498 0.000753321 -3.16046e-21)
(1.04928 0.0938519 -1.33495e-20)
(0.999919 0.000591956 2.99478e-21)
(0.985836 0.00109158 0)
(0.511632 0.0139222 -1.37262e-21)
(1.06475 0.0144768 -1.33591e-20)
(1.00306 0.0238637 0)
(1.13071 0.0310601 3.23137e-20)
(0.977374 0.0377223 -6.8286e-21)
(1.00351 0.00974657 -6.79012e-21)
(0.898018 0.168792 4.97108e-20)
(0.499194 -0.0269608 -1.86392e-21)
(0.994671 -1.85989e-05 1.80566e-21)
(0.998355 0.00898163 -9.19712e-21)
(1.01106 0.00154339 5.21669e-21)
(1.02928 0.017932 -1.77597e-22)
(0.491044 0.0115312 0)
(0.995105 0.000146555 -1.30564e-21)
(0.967573 0.0141421 0)
(1.17737 0.0151999 0)
(1.01099 0.0321222 0)
(1.00901 0.0452112 -2.29214e-21)
(0.138792 -0.0233264 4.30613e-20)
(0.996446 0.00281626 9.79764e-21)
(1.20862 0.0250361 -1.82574e-20)
(1.02188 0.00454701 -1.70272e-21)
(1.0411 0.00384616 3.41101e-21)
(0.488783 0.0137699 0)
(1.0605 0.0164448 0)
(0.972818 0.0037095 9.4152e-21)
(0.996873 0.000439513 8.96763e-21)
(1.05245 0.010613 0)
(1.04567 0.0115982 0)
(1.02119 0.00453953 2.01072e-21)
(0.982429 0.05567 -2.19044e-22)
(1.01146 0.000792955 2.44098e-21)
(1.04981 0.0906841 3.83936e-21)
(1.03188 0.00846378 -4.87916e-22)
(1.0729 0.0536757 -2.29743e-20)
(1.05835 0.0133423 -9.70519e-21)
(1.04193 0.0110727 0)
(-0.0455268 -0.0214727 -4.55007e-20)
(1.05015 0.0107187 0)
(0.810681 -0.0349183 -2.38053e-20)
(0.997909 0.0743469 -8.17031e-21)
(1.02226 0.00469568 8.23866e-22)
(1.08305 -0.00477502 -8.93956e-21)
(0.99897 0.00569265 0)
(1.04993 0.0103586 5.08328e-21)
(1.14148 0.0166109 0)
(0.896411 0.0742638 -6.01336e-20)
(1.04234 0.0038133 0)
(0.602912 -0.00991449 0)
(1.0033 0.000519438 5.41676e-21)
(0.417428 -0.00277128 -4.44503e-20)
(1.08218 -0.00157104 -9.45287e-21)
(1.04928 0.0230556 -6.30871e-21)
(0.930309 0.0398655 -1.58107e-20)
(0.235476 -0.040636 5.64395e-20)
(0.462703 -0.0508242 -1.23557e-20)
(1.02191 0.00611284 0)
(1.00615 0.0013363 1.81254e-21)
(1.00539 0.0083933 4.91941e-21)
(1.15279 0.0292563 -2.7033e-20)
(1.1263 0.0479497 0)
(0.0489561 -0.0237914 -5.52558e-21)
(-0.0764636 -0.00982062 0)
(0.998667 0.00898688 -7.79082e-21)
(1.05387 0.00673754 0)
(0.724511 0.292936 4.47954e-20)
(1.06122 -0.00862238 0)
(1.05111 0.00856804 3.81223e-21)
(1.05007 0.0131108 0)
(1.05704 0.0458282 -3.42399e-21)
(1.0306 0.0149009 -5.34781e-22)
(1.04513 0.0121804 -3.81099e-21)
(0.351585 -0.0451998 -1.67449e-20)
(1.07053 0.054056 2.79826e-22)
(1.05352 0.012609 -2.24332e-21)
(1.02087 0.00467197 -2.33438e-21)
(1.00538 0.00818666 5.25224e-21)
(1.03409 0.0114946 0)
(1.0632 0.0724363 0)
(1.00966 0.00694788 7.41933e-21)
(1.04354 -0.0010735 -3.58789e-21)
(1.00012 0.00381234 -6.85541e-21)
(0.465856 0.0136397 -4.8721e-21)
(1.06785 -0.0211921 -1.0366e-20)
(1.04719 0.0889518 2.62307e-21)
(0.705976 0.176175 0)
(1.03015 0.0151118 2.41871e-22)
(0.999103 0.0178186 0)
(0.596469 -0.00939824 -3.12854e-21)
(1.04454 0.0136109 6.71656e-21)
(0.468844 0.0141264 5.32717e-22)
(1.00811 0.00817088 -7.50348e-21)
(1.03449 0.0113254 -6.22101e-23)
(1.00936 0.0221391 8.76552e-21)
(1.00004 0.000170961 9.68917e-21)
(1.0546 0.00756416 -1.45066e-21)
(1.05563 0.0169892 0)
(0.000820898 -0.0246888 3.29137e-23)
(-0.0975825 -0.0111328 9.54806e-20)
(0.996807 0.000864139 0)
(1.04013 0.0155255 5.8546e-21)
(1.05384 0.0166853 6.6401e-22)
(1.07132 -0.00448413 -1.54648e-20)
(0.999254 0.209198 7.48157e-23)
(1.02206 0.0985209 0)
(1.03251 0.0120564 -1.79263e-21)
(1.1026 0.412791 0)
(0.991942 0.0662091 6.33643e-21)
(0.960032 -0.0460544 3.17988e-20)
(1.02463 0.0106128 1.16783e-21)
(1.13246 -0.00997441 1.1853e-20)
(0.428309 0.0106424 -1.0325e-21)
(1.00976 0.00670801 -4.04532e-21)
(0.996544 0.0188976 6.01765e-21)
(1.06027 0.132387 -8.44207e-21)
(1.00001 -0.000263248 8.5078e-21)
(1.02154 0.00472649 -6.29162e-23)
(1.08023 0.0455245 0)
(1.04039 0.019609 1.19596e-22)
(0.592702 0.0143902 4.06761e-21)
(1.07888 0.015395 0)
(1.09833 -0.0287073 0)
(1.00307 0.0200066 0)
(1.12345 -0.0151218 2.26444e-20)
(0.755548 0.552789 0)
(1.06426 0.130895 4.78015e-22)
(1.00001 -0.000226987 0)
(0.544272 0.0134195 -5.05881e-21)
(1.01344 0.0219386 1.86938e-21)
(1.05041 0.0039496 0)
(0.995351 0.00337885 -1.21735e-20)
(0.998992 0.00036313 0)
(0.551318 0.0155371 5.22921e-21)
(1.04842 0.00503429 3.86403e-21)
(1.05441 0.00451029 3.43806e-21)
(1.05416 0.00687997 0)
(0.994305 0.10644 -1.47554e-20)
(1.02663 0.00787099 0)
(0.545296 -0.0213051 -2.93921e-21)
(1.00378 0.0121506 8.10377e-21)
(1.11324 0.0812631 -4.60078e-20)
(1.18645 0.0156145 -2.39694e-20)
(1.05362 0.0158687 1.22718e-20)
(1.01044 0.00575321 -3.23443e-21)
(0.992286 0.0139854 -8.48347e-21)
(1.0513 0.00965178 -6.43987e-21)
(1.05873 0.0461823 -3.70979e-21)
(1.00004 0.00106285 0)
(1.1239 0.05454 0)
(0.798424 0.244753 0)
(1.05484 0.011835 1.81211e-21)
(0.99202 -0.00817534 -8.22166e-21)
(-0.00599811 -0.00385354 3.83266e-20)
(0.448251 -0.0254669 7.81688e-21)
(1.12161 0.323076 0)
(0.994459 0.0155297 0)
(0.904086 0.173132 1.44648e-20)
(1.02251 0.00662794 1.47876e-21)
(1.03845 0.0203485 -3.07922e-21)
(0.946517 0.147235 1.84178e-20)
(0.317422 0.00365765 2.2397e-21)
(0.947337 0.109941 -1.91119e-20)
(0.498204 -0.0124047 1.94085e-21)
(0.901431 0.158521 -3.99964e-20)
(1.08785 -0.00701221 0)
(1.04417 0.0122659 2.04974e-21)
(1.02194 0.0331748 0)
(0.368189 -0.0460084 2.88989e-20)
(1.18103 0.0857187 5.4545e-20)
(1.00496 0.00710603 -2.89051e-21)
(1.05252 0.0127329 -4.26761e-21)
(1.08425 -0.00571271 -2.78801e-21)
(1.06028 0.0322404 -1.44428e-20)
(0.947531 0.115554 5.0536e-21)
(1.03932 0.057613 9.06741e-22)
(1.0234 0.101215 8.16354e-23)
(1.08763 -0.0341332 0)
(1.01099 0.00546301 -6.45011e-21)
(1.0792 0.0380738 -1.72119e-20)
(1.00741 0.00124637 7.90219e-21)
(1.03197 0.0303317 -6.89558e-23)
(0.784715 0.00647588 -2.14771e-21)
(0.440676 -0.0368872 7.01631e-21)
(1.088 0.114803 2.26614e-20)
(0.986807 0.00262206 0)
(1.01477 0.00142925 -4.60127e-21)
(1.0211 0.00607423 3.22314e-21)
(0.999681 0.0641397 8.93297e-21)
(0.846993 0.102657 2.79069e-20)
(0.159305 -0.0366519 3.24421e-20)
(1.0763 0.0135279 0)
(1.15304 0.0256844 3.00432e-20)
(0.45387 0.0151298 0)
(1.10352 0.0805853 0)
(0.985344 0.104216 -2.23619e-20)
(0.543916 0.0147414 6.1913e-21)
(1.01233 0.0355462 9.66243e-22)
(0.444279 -0.0173432 -2.86471e-21)
(1.02905 0.0478146 1.83668e-22)
(1.0042 0.000851785 0)
(0.987146 0.0102086 -3.46786e-21)
(1.05181 0.0125322 -1.44235e-20)
(1.1064 0.041955 4.5567e-21)
(1.01076 0.00189239 2.99603e-21)
(0.926535 0.0401727 -9.45202e-21)
(1.07605 0.0330995 -8.7386e-21)
(1.13022 0.038424 3.15856e-20)
(0.983796 0.101884 1.8825e-20)
(1.04244 0.0080037 -5.27091e-21)
(1.0126 0.0335785 -1.24405e-20)
(1.04353 0.00813848 2.91286e-21)
(1.05089 0.00909291 0)
(1.06256 0.013661 0)
(1.05185 0.00956057 1.29554e-20)
(1.00051 0.000247555 0)
(0.9796 0.0257569 -2.24327e-20)
(-0.211774 -0.013767 7.37986e-21)
(0.542893 -0.0196139 4.93232e-21)
(1.00335 0.0350759 -1.00466e-20)
(1.04871 0.00492946 0)
(0.986614 0.00318946 4.17929e-21)
(1.01861 0.0075168 -2.03482e-21)
(0.992503 -0.00768897 1.48297e-20)
(0.999044 0.0667687 -1.52661e-20)
(1.05087 0.0125865 0)
(1.01862 0.0196502 2.05347e-21)
(0.972476 0.128424 4.50569e-21)
(1.03226 0.0132748 0)
(1.04275 0.059386 5.06448e-21)
(0.992174 0.0147674 0)
(1.08048 0.0497299 6.85778e-21)
(1.04464 0.0139409 9.27813e-23)
(1.01037 0.00607618 -7.21331e-23)
(0.992047 -0.00327262 -1.3543e-20)
(1.07764 0.0157947 0)
(1.07554 0.0276404 0)
(1.24812 0.129521 -7.9282e-22)
(1.0549 0.0158784 -3.51087e-21)
(1.00502 0.00693626 2.77343e-21)
(0.998775 0.00957365 6.57371e-21)
(1.00418 0.000628595 6.70494e-21)
(0.745615 0.00883808 0)
(0.900242 0.0481613 -2.6894e-20)
(1.09569 0.0382379 -3.425e-20)
(0.38782 -0.0337636 3.44561e-21)
(1.02164 0.104957 1.3892e-21)
(1.05324 0.0169962 -5.49665e-22)
(0.787911 0.00807003 -2.61264e-21)
(1.0096 0.0228919 -1.07125e-20)
(1.00384 0.0117192 8.34831e-21)
(1.00305 0.000908845 0)
(1.03227 0.0123883 1.46148e-21)
(1.07085 -0.00568494 4.33941e-21)
(1.01122 0.000691805 0)
(1.017 0.00631568 0)
(1.12823 -0.0196447 1.35014e-20)
(1.0601 -0.00462905 0)
(0.929004 0.0640671 -3.213e-20)
(1.03416 0.00785623 -1.41442e-21)
(0.723854 0.00656711 4.14063e-22)
(0.0707734 0.0236143 -1.473e-19)
(1.05647 0.00754107 5.41453e-21)
(1.02087 0.0775776 -2.32034e-22)
(1.05635 0.0179894 0)
(1.04997 0.0142497 0)
(1.10072 0.0831117 0)
(0.991647 -0.00288742 1.01116e-21)
(1.13111 -0.0183441 -2.50239e-20)
(1.0478 0.00927259 -6.38964e-21)
(-0.148728 0.00841918 1.36739e-19)
(0.994436 0.0654932 -1.03618e-20)
(1.01705 0.110656 -1.47315e-21)
(1.06075 0.411802 3.24195e-20)
(1.00687 0.000708276 0)
(1.1404 -0.0139426 2.45427e-20)
(1.04273 0.0195328 0)
(1.00003 0.000188396 -6.97899e-21)
(0.227651 -0.0445341 -3.92866e-20)
(1.05123 0.00977252 0)
(0.702509 0.197739 0)
(0.608262 0.01348 -3.83437e-21)
(1.13839 0.0519621 3.67015e-20)
(1.00249 0.0193775 5.89993e-21)
(0.724434 0.00887909 4.33614e-22)
(1.00761 0.00882533 0)
(0.984528 0.0544317 1.87528e-22)
(1.04918 0.016663 1.27647e-20)
(1.03963 0.0384645 -3.36883e-21)
(0.999649 -0.000563288 0)
(-0.0455066 0.0128174 0)
(0.379728 -0.0465794 1.66898e-20)
(1.05128 0.00829835 -8.31797e-22)
(1.049 0.0137891 0)
(1.01314 0.0766339 -1.51329e-21)
(0.440618 0.00914607 0)
(1.20979 0.0315996 -5.47392e-20)
(1.02069 0.113101 1.98977e-21)
(0.430819 -0.0337995 8.10429e-21)
(1.04304 0.0191736 0)
(1.00737 0.000877896 -2.30707e-21)
(1.02042 0.0125008 0)
(0.997136 0.00148813 0)
(0.985921 0.0164529 -2.5804e-20)
(0.453042 0.0166647 8.23516e-22)
(1.05343 0.013392 -1.05791e-20)
(-0.0362194 -0.0210462 4.39497e-20)
(1.04251 -0.00161608 -8.54735e-22)
(1.00688 0.000293878 -1.68827e-22)
(1.07382 0.0125997 0)
(0.909498 0.107523 6.83281e-20)
(1.01936 0.000300701 1.78669e-21)
(1.03112 0.0301666 -1.59062e-24)
(0.335094 -0.0361115 -1.96269e-20)
(0.148963 0.000837586 0)
(1.03805 0.0260446 -4.62241e-21)
(1.09659 0.0399806 9.51597e-21)
(1.01312 0.0418312 1.21255e-22)
(1.00256 0.00866243 1.47294e-20)
(1.07978 0.0360131 9.34944e-21)
(1.04767 0.0126348 -3.58967e-21)
(0.495738 -0.0266669 0)
(1.12473 0.00930455 3.52694e-20)
(1.04118 0.0139006 -1.69236e-21)
(1.02098 -0.00201279 -1.02101e-21)
(0.979723 0.0999244 2.20147e-20)
(1.04334 0.0117762 -2.13486e-21)
(1.00036 0.0034734 1.0508e-20)
(0.773547 0.377693 0)
(1.06639 -0.00526894 -6.32997e-21)
(1.0335 0.0111172 1.01265e-21)
(1.05095 0.0126409 0)
(0.157973 0.00105863 0)
(0.995046 0.0151239 -7.76504e-21)
(0.985657 0.187434 0)
(1.02632 0.0112568 -1.02753e-21)
(0.44001 0.0152548 -4.10303e-21)
(0.994832 0.186793 -1.81322e-21)
(0.991534 0.0422464 -1.56676e-20)
(1.01557 0.0410389 0)
(1.03281 0.00878707 -1.77928e-21)
(1.01296 0.000834837 2.61919e-21)
(1.01851 0.0764136 0)
(0.506697 0.206183 0)
(1.01459 0.0215541 3.68732e-21)
(1.0335 0.0120554 0)
(1.0498 0.00859202 0)
(0.988715 0.0407855 -1.87704e-20)
(-0.0129695 -0.0258424 0)
(0.984144 0.220205 -2.79441e-21)
(0.996453 0.00625461 0)
(1.01508 0.00120022 3.33219e-21)
(0.984403 0.0138107 -3.44021e-21)
(0.845169 0.0938752 -1.63213e-20)
(1.00556 0.0353288 -8.34991e-21)
(1.00447 0.00305901 -7.78299e-21)
(1.04444 0.00868363 -9.09808e-22)
(1.10416 -0.0325759 -8.02877e-21)
(1.00156 0.00664836 0)
(1.02599 0.00747215 2.39596e-22)
(1.07584 0.024341 0)
(0.537377 0.0160042 4.07309e-21)
(0.999886 0.00616679 1.80527e-21)
(1.03646 0.00768582 1.20572e-21)
(1.02948 0.0184934 0)
(1.04775 0.00969236 1.84373e-21)
(1.01739 0.00665524 0)
(0.0481893 -0.0140817 -1.02594e-20)
(1.08192 0.0515755 0)
(1.05486 0.0078065 -3.06893e-21)
(1.08756 0.424607 -1.53428e-20)
(0.95692 0.728303 -3.06263e-20)
(1.03305 0.0118737 4.79074e-22)
(1.19205 0.247251 0)
(1.02039 0.0016922 8.15848e-22)
(0.758705 0.00933158 0)
(1.06546 0.0233229 -1.00238e-20)
(1.05087 0.0135688 0)
(0.995552 0.00101246 -9.78467e-21)
(0.987237 0.0108031 0)
(0.0720727 -0.00899043 0)
(0.971154 0.00350793 1.04167e-20)
(0.86798 -0.0064489 2.15912e-23)
(1.00252 0.00825111 -1.22676e-20)
(1.05523 0.00452931 2.43577e-20)
(0.519364 0.0148157 -1.65374e-21)
(0.112283 -0.00628093 0)
(1.11899 0.00698783 0)
(0.998924 0.000569219 0)
(0.562588 0.0127613 0)
(0.999999 1.9112e-05 1.12165e-20)
(1.01521 0.0217627 0)
(1.04974 0.00879761 5.7615e-21)
(1.22593 0.303144 3.56348e-20)
(0.969761 0.0169134 0)
(1.15979 0.0418825 -2.46132e-20)
(1.05042 0.00905362 9.29838e-21)
(0.993275 0.0418928 -1.38271e-20)
(1.05301 0.0132773 5.28278e-21)
(1.00002 0.000535342 8.83953e-21)
(1.0078 0.0442871 -5.08098e-21)
(0.985345 0.0171864 2.53959e-20)
(1.00633 0.000295711 1.08805e-22)
(1.00419 0.00304631 1.16026e-20)
(1.1466 0.0933957 3.39386e-20)
(0.996519 0.000111793 -9.16526e-21)
(1.07729 0.0267555 0)
(1.04507 0.0109419 3.33259e-21)
(0.509568 0.202666 -2.98987e-20)
(0.999996 -0.000136917 0)
(1.10461 -0.032074 -7.54796e-21)
(1.02307 0.00908279 6.49143e-22)
(0.836868 0.110999 1.60829e-20)
(1.05074 0.00866388 -2.80611e-21)
(1.10288 0.00165674 1.48607e-20)
(1.06337 0.0136316 -3.02618e-21)
(1.09811 0.098063 1.97994e-20)
(1.05994 0.0370718 6.48901e-21)
(1.0486 0.00815941 1.12561e-20)
(0.999977 -0.000506495 0)
(1.05223 0.0130901 3.67719e-21)
(1.08377 -0.00772679 -1.38822e-20)
(0.924353 0.0643473 1.17583e-20)
(1.01231 0.000759514 -8.18755e-22)
(1.01828 0.00691124 2.21059e-21)
(0.175751 -0.0262557 -4.5128e-20)
(1.04996 0.0101187 6.71875e-21)
(1.08061 0.0395809 9.2676e-21)
(1.02985 0.0160235 -1.62481e-22)
(1.00658 0.000875896 2.73889e-21)
(1.13442 0.0313115 -3.52204e-20)
(1.04915 0.00995824 5.93096e-21)
(0.789598 0.00909442 0)
(0.328634 -0.0141488 8.18648e-21)
(1.05961 -0.00540959 -5.35925e-21)
(1.06149 0.00736762 -1.19428e-20)
(0.0600896 -0.0245004 -3.98563e-20)
(1.02548 0.00737744 -2.73522e-22)
(1.00022 0.000180316 -6.87047e-21)
(0.401685 0.0129367 1.39431e-21)
(1.06534 0.024449 1.21899e-20)
(1.04639 0.422944 0)
(1.05469 0.00459382 -3.51276e-21)
(0.996748 0.00176178 -9.17985e-21)
(1.01875 0.000468725 0)
(1.05 0.00382819 -3.65718e-21)
(1.01987 0.0122322 0)
(0.631183 0.0124878 4.11632e-21)
(1.04653 0.00781641 0)
(1.05041 0.00916345 -3.2435e-21)
(1.02343 0.0128835 1.09211e-21)
(1.04805 0.0139376 5.96776e-22)
(1.00026 0.00160502 0)
(1.2107 0.0267417 4.62096e-20)
(1.03303 0.0112799 -8.38945e-22)
(1.0249 0.0191712 1.16309e-21)
(0.870761 0.271246 1.05761e-20)
(1.12318 0.0124977 -7.97073e-21)
(1.04304 0.0115382 4.15751e-21)
(0.0712969 -0.0223503 9.43417e-21)
(0.982306 0.227468 -4.32618e-21)
(0.879074 -0.00559255 -5.3017e-21)
(0.886932 0.00944801 -4.89914e-20)