/*--------------------------------*- C++ -*----------------------------------*\
| =========                 |                                                 |
| \\      /  F ield         | OpenFOAM: The Open Source CFD Toolbox           |
|  \\    /   O peration     | Version:  v2012                                 |
|   \\  /    A nd           | Website:  www.openfoam.com                      |
|    \\/     M anipulation  |                                                 |
\*---------------------------------------------------------------------------*/
FoamFile
{
    version     2.0;
    format      ascii;
    class       volVectorField;
    location    "400";
    object      U_0;
}
// * * * * * * * * * * * * * * * * * * * * * * * * * * * * * * * * * * * * * //

dimensions      [0 1 -1 0 0 0 0];


internalField   nonuniform List<vector> 
14804
(
(0.721019 0.00720278 -3.37419e-22)
(1.00746 0.00990085 0)
(1.05131 0.00350417 2.15059e-22)
(1.05241 0.0123741 4.22362e-21)
(1.06047 0.0155557 4.37965e-23)
(1.06579 0.00679067 -2.38058e-22)
(1.02955 0.0448884 -3.16673e-23)
(0.978796 0.00689571 2.28397e-20)
(1.04794 0.00888946 0)
(1.0003 0.000208594 -6.51826e-24)
(1.12776 -0.0137483 0)
(1.0518 0.00230249 0)
(0.96875 0.00132076 1.04882e-21)
(1.05471 0.0110174 -3.1742e-21)
(1.14651 0.040762 8.19898e-20)
(0.0594239 -0.00240072 2.77201e-20)
(1.0612 0.0151093 9.53396e-23)
(1.05231 0.0135159 9.46757e-21)
(0.307148 0.00849507 4.40031e-21)
(1.05102 0.0090953 0)
(0.999997 9.25024e-07 4.77467e-21)
(1.01073 0.0702148 3.64909e-21)
(0.973638 0.133639 7.63101e-21)
(1.03264 0.0357666 1.03259e-21)
(0.0354063 -0.00468885 0)
(1.03141 0.0361343 -2.54864e-22)
(1.0513 0.00942398 0)
(1.05828 0.014098 8.7802e-21)
(0.813163 0.00717615 3.58974e-21)
(1.03903 0.0263057 4.8522e-21)
(1.03251 0.0103224 -4.31513e-22)
(0.955007 0.123472 0)
(1.051 0.00907545 8.93195e-21)
(1.07552 0.0297201 0)
(1.0486 0.00975313 -3.51653e-21)
(1.03058 0.044347 1.21027e-23)
(1.05811 0.0162122 0)
(1.00003 0.00094462 0)
(0.950352 0.090257 3.44711e-20)
(1.05181 0.00884246 -8.59673e-21)
(1.05091 0.00382184 -4.96369e-21)
(1.04885 0.00975651 0)
(0.701479 0.291767 0)
(0.994796 0.0185001 7.91237e-21)
(1.05977 0.0152394 0)
(0.955757 0.0308398 0)
(1.03539 -0.0181091 -5.22334e-21)
(0.982668 0.0296615 -2.68494e-20)
(1.01072 0.0726254 7.32825e-21)
(1.12413 0.306124 -7.08732e-20)
(0.967286 0.00422225 -2.50703e-20)
(1.0185 0.000547507 -3.35478e-21)
(0.999145 0.00583186 1.03153e-20)
(1.0479 0.012887 0)
(1.11272 0.332387 0)
(1.01013 0.0118801 -5.02658e-21)
(1.04919 -0.00197212 -2.67458e-21)
(0.831943 0.00740884 2.44909e-21)
(0.996235 -0.00348523 -1.55135e-20)
(0.953286 0.0312238 0)
(0.55874 0.0152213 -5.57716e-21)
(0.96565 0.00483815 -2.50167e-22)
(0.996355 0.020611 -4.26672e-21)
(0.979229 0.0105003 -5.2202e-21)
(0.995972 0.0198121 -3.80453e-21)
(0.99884 0.00504392 -7.72339e-21)
(0.999971 -4.26315e-05 -1.1667e-20)
(1.02264 0.0465972 0)
(1.00153 0.000460941 0)
(0.59648 -0.0116524 8.55171e-22)
(1.03505 0.00804995 1.51514e-21)
(1.05123 0.00950441 0)
(1.13699 -0.00799689 1.24079e-20)
(0.502869 -0.0199037 6.74974e-21)
(1.04198 0.00918869 4.82517e-21)
(0.613608 -0.011412 -8.83784e-22)
(-0.03763 -0.00747873 1.56222e-22)
(1.00763 0.00956899 3.83375e-21)
(0.832573 0.139015 0)
(1.02237 0.00626865 -1.04641e-21)
(-0.0915111 -0.0204094 7.33041e-20)
(0.999024 0.00517492 7.00197e-21)
(1.02235 0.00716484 1.13743e-21)
(1.04188 0.00953396 -2.20741e-21)
(1.00006 0.000606199 2.13149e-21)
(1.08562 -0.00826409 1.97786e-20)
(1.01073 0.00162772 -4.39786e-21)
(1.04493 0.0114044 -1.98739e-21)
(1.00911 0.00721443 3.46767e-21)
(1.05882 0.0144065 9.71731e-21)
(1.07028 0.0354075 -2.76797e-22)
(0.984931 0.0657102 -4.97838e-21)
(1.04907 0.00826217 -4.87622e-21)
(1.03369 0.00796385 1.14255e-21)
(1.13261 0.301002 5.26825e-20)
(-0.0221892 -0.00888953 4.56931e-20)
(0.800484 0.00704969 -2.4753e-21)
(0.954052 0.117734 0)
(1.01772 0.0427588 -3.16722e-21)
(1.1358 -0.015726 0)
(0.820759 0.00755366 -2.48505e-21)
(0.687306 -0.0152901 -1.49914e-21)
(1.00005 0.000491462 4.63244e-21)
(1.05517 0.0104307 9.98981e-22)
(1.04331 0.0120548 -2.04747e-21)
(0.629868 -0.0154209 3.23833e-21)
(1.05168 0.0026625 0)
(1.10521 0.330138 -2.64843e-20)
(0.993195 -0.00124045 1.3353e-20)
(1.03307 0.0102892 7.15157e-22)
(0.994288 0.00746084 0)
(0.73135 0.00855398 3.15534e-21)
(1.04906 0.00806146 -3.97383e-21)
(-0.196082 -0.0136001 5.2385e-20)
(0.70854 0.0097666 -4.29095e-21)
(-0.128296 -0.0187131 4.70817e-20)
(1.04342 -0.00320528 -1.6233e-21)
(1.07176 0.0345283 1.06271e-20)
(1.00005 0.000591717 -1.49071e-20)
(1.05271 0.013655 -9.48805e-21)
(-0.059861 -0.0102603 -8.97175e-20)
(1.00917 0.00690041 -1.0218e-20)
(1.03865 0.045202 4.36459e-21)
(1.06602 0.015526 -1.60906e-21)
(0.996612 -0.00355734 1.41317e-20)
(1.00002 0.000675442 0)
(1.0425 -0.00117454 3.49195e-21)
(1.05482 0.0106265 -3.94859e-21)
(0.969213 0.14457 -1.69731e-20)
(1.06427 0.0215611 0)
(1.06429 0.0226226 0)
(1.11677 0.00502184 0)
(0.607727 -0.00359439 0)
(1.11906 -0.0191141 0)
(1.03888 0.00197526 -3.2366e-21)
(1.06514 0.01554 0)
(0.994043 0.0183557 1.02297e-20)
(1.1094 -0.0361886 0)
(1.03926 0.0216303 0)
(1.07718 0.0305222 0)
(1.0032 0.00977652 6.72571e-21)
(0.073728 0.0233155 0)
(1.01795 0.000457615 3.36709e-21)
(-0.237868 -0.011256 0)
(0.205594 -0.00642955 0)
(1.00132 0.000407916 0)
(1.04418 0.0119561 0)
(0.993767 -0.00112512 -1.29953e-20)
(1.06571 -0.0206683 0)
(0.311844 0.0108198 6.19063e-21)
(1.04794 0.00864897 0)
(0.0977143 0.000568896 0)
(1.05174 0.00898588 9.58777e-21)
(1.05443 0.00998973 -9.36905e-21)
(1.02217 0.00682859 -2.57391e-22)
(0.780641 0.00767487 0)
(1.05097 0.00857212 -4.95005e-21)
(1.17144 0.0166173 -2.72122e-20)
(0.270111 -0.000234286 -2.76525e-21)
(1.06952 -0.0217196 -9.81152e-21)
(1.00462 0.00593075 0)
(1.00308 0.000647583 -1.1735e-20)
(0.61951 -0.00464376 0)
(0.0129785 -0.00344094 1.48058e-20)
(1.05105 0.0198259 1.1468e-20)
(0.767674 0.00808116 0)
(0.982122 0.0310131 1.91325e-20)
(0.546984 0.0140412 0)
(1.0396 0.0242836 -1.96587e-21)
(0.978877 0.0056834 -2.96206e-20)
(1.05319 0.00529227 0)
(0.992701 0.07577 -8.4753e-21)
(1.05848 -0.00365521 4.76328e-21)
(1.1421 0.0402524 -3.96481e-20)
(1.05383 0.00321957 4.01009e-21)
(1.11997 -0.0179366 -2.16322e-20)
(0.84397 0.0671267 0)
(1.07721 0.0250818 0)
(1.01433 0.00135999 -1.71876e-21)
(1.04986 -0.00241051 -9.91778e-22)
(1.06496 0.00645515 -9.52622e-21)
(0.39396 -0.0408138 3.26922e-23)
(1.03121 0.0406178 8.57884e-23)
(0.8816 0.00728639 6.66273e-20)
(0.984647 0.0632483 0)
(0.855131 -0.00578131 2.166e-21)
(1.08913 0.0231848 2.03243e-20)
(1.0876 0.0242941 -1.85161e-20)
(1.05524 0.0259992 0)
(1.01913 0.00764493 1.81582e-21)
(0.690764 0.270702 3.48693e-20)
(1.00635 -0.0184229 2.98836e-21)
(1.01306 0.034666 3.36012e-21)
(1.08874 -0.0339187 0)
(1.0601 0.0161346 -2.48622e-21)
(1.00003 0.0186163 0)
(0.702662 -0.0165036 1.64409e-21)
(0.970507 0.00493428 -4.34536e-21)
(1.10648 0.0893921 0)
(0.386401 0.00710843 -3.58523e-21)
(0.110139 -0.00965798 -5.29734e-21)
(1.01939 0.00747822 0)
(1.04632 0.0277324 -8.25145e-21)
(1.12722 0.0522563 0)
(0.949104 -0.00355043 0)
(0.291938 0.00263878 2.96306e-22)
(1.05092 0.00845847 -8.11135e-21)
(1.10705 -0.0308552 1.47445e-20)
(1.07319 0.0353653 0)
(1.02794 0.0472966 0)
(1.03916 0.0248186 -1.53398e-21)
(0.569338 0.0156958 -4.39619e-21)
(1.02406 0.0470938 0)
(1.00464 0.00575599 0)
(1.00188 0.0497966 0)
(1.03974 0.022242 0)
(1.05445 0.0104078 0)
(1.00332 0.022284 3.49669e-21)
(0.988606 0.00362738 -8.94655e-21)
(0.99629 0.0180759 -5.57183e-21)
(0.889265 0.029431 4.5707e-22)
(1.04876 0.00856593 -6.9676e-23)
(1.10878 0.0872215 9.89805e-22)
(0.990944 0.0733346 1.11965e-20)
(1.02893 0.0189557 -2.94515e-22)
(1.11203 -0.0294234 3.56337e-20)
(1.05105 0.0090136 -3.87051e-21)
(1.03786 0.0126539 5.05948e-21)
(0.653433 -0.00485722 3.22514e-21)
(1.01314 0.0665122 -2.73093e-21)
(1.03319 0.00912933 1.00917e-21)
(1.04529 0.0277345 3.61614e-21)
(0.988022 0.00421035 0)
(0.47056 -0.0109877 0)
(0.456674 -0.0188338 9.80588e-22)
(1.00003 0.000513624 0)
(0.959745 0.0339057 0)
(1.04599 0.013622 4.23533e-21)
(1.10049 0.000682086 -1.24402e-20)
(1.04547 0.0565725 -9.46141e-21)
(0.0116304 0.0185163 6.84384e-20)
(1.0105 0.404602 -5.06321e-21)
(1.01626 0.0427106 6.41137e-22)
(0.995453 0.0178217 -7.36617e-21)
(1.02221 0.0152106 -1.28352e-21)
(1.08605 -0.00985982 1.19068e-20)
(1.05973 0.0336364 -1.00524e-20)
(1.05089 0.0204888 -6.85817e-21)
(0.967888 0.136726 9.0777e-21)
(1.03349 0.0106808 0)
(0.504192 0.109854 -7.12835e-20)
(0.999845 0.018071 -6.32982e-21)
(1.00402 0.00435296 -7.54475e-21)
(1.0074 0.00905743 -3.98028e-21)
(0.664682 0.000210607 2.06455e-21)
(0.949513 -0.00558565 1.9938e-20)
(1.01821 0.00728875 0)
(1.04897 0.0244337 -7.87074e-22)
(1.03458 0.00820359 -9.10272e-23)
(0.998891 0.00381992 0)
(0.977212 -0.0014162 0)
(1.05554 0.0251257 1.32822e-21)
(0.964054 0.147287 1.13844e-20)
(0.973785 0.00452858 -1.7505e-20)
(1.17115 -0.0159193 -3.1444e-20)
(1.03673 0.0250169 2.84976e-22)
(1.05081 0.00850651 1.1308e-20)
(1.02162 0.0143368 -1.33384e-21)
(0.362515 0.00427672 -1.71743e-21)
(0.474983 0.012548 1.38886e-22)
(0.340258 -0.0373039 1.0704e-20)
(0.142962 0.00494874 0)
(1.00004 0.000456823 1.32838e-20)
(0.996209 -0.004592 1.18471e-20)
(0.167398 0.035379 6.41982e-20)
(1.14892 0.0365925 -7.07785e-20)
(1.04539 0.0130087 0)
(0.195184 -0.003755 0)
(0.762545 0.207152 -5.12504e-20)
(0.616081 -0.014692 -2.229e-21)
(1.04645 0.0138735 -5.23365e-21)
(1.00589 0.00117608 -2.97847e-21)
(0.569197 0.0121526 -2.1235e-21)
(0.552298 0.0130203 5.26321e-21)
(0.152173 -0.0325155 -1.25109e-21)
(1.1158 -0.0314203 -1.92338e-20)
(0.767801 0.225972 5.6971e-20)
(1.04524 0.0116724 5.40908e-21)
(0.890014 0.048352 0)
(1.04704 0.0051006 0)
(1.00353 0.0215028 -5.70689e-21)
(1.03519 0.0254642 8.51312e-22)
(1.01322 0.069032 -2.46056e-21)
(1.0421 0.010226 2.20775e-21)
(1.06599 0.0075332 -9.18976e-21)
(1.24702 0.194562 4.45277e-20)
(1.11722 0.00132655 0)
(0.953217 0.14916 -2.57425e-20)
(1.00382 0.0225936 6.19053e-21)
(0.88436 0.0278718 -6.82612e-20)
(1.01721 0.0124992 0)
(1.00613 0.00902589 -4.65486e-21)
(0.89948 0.0785566 5.59789e-20)
(1.051 0.00903247 2.44746e-21)
(0.829205 0.128457 0)
(1.03018 0.0400971 0)
(1.08085 0.117632 -3.35902e-20)
(0.653111 -0.0165811 -2.55265e-21)
(1.14025 0.0357516 3.67723e-20)
(-0.226786 -0.0137345 0)
(0.39866 0.00557064 3.19008e-21)
(1.04225 0.00988302 -2.4397e-21)
(0.953563 0.0782972 1.88521e-20)
(1.04353 0.0570946 4.79881e-21)
(0.699469 8.64464e-05 6.58103e-23)
(1.00034 0.0503559 0)
(0.986269 -0.000870089 -2.15769e-22)
(1.12388 -0.00356497 -1.72096e-20)
(1.02051 0.00446587 0)
(0.783541 0.0716087 -4.01014e-20)
(1.04809 0.0137407 -5.2664e-22)
(1.0436 -0.00350345 -1.24297e-21)
(1.04734 0.0131671 -7.26035e-21)
(0.334643 0.00795819 0)
(1.0412 0.00788883 0)
(1.05108 0.00907377 1.97245e-21)
(1.14385 0.0153827 2.41577e-20)
(0.996587 -0.00419863 -1.4266e-20)
(1.22006 0.0227834 1.95997e-20)
(0.28075 -0.00152055 4.11295e-21)
(1.05557 0.0105627 3.53044e-21)
(1.05264 0.0102659 7.05403e-21)
(0.847466 0.0608132 4.73828e-20)
(0.954226 0.0743387 -5.92791e-21)
(0.99901 0.00386813 0)
(1.03213 0.00991102 -6.12484e-22)
(1.00576 0.00892426 -4.80491e-21)
(-0.228441 -0.0103677 -3.78829e-20)
(0.971654 0.0369792 -1.26342e-20)
(1.05797 -0.00319193 -2.58764e-21)
(0.997943 0.0720097 5.00789e-21)
(1.0404 0.0159445 -1.98678e-21)
(1.06073 0.0344859 1.74224e-20)
(0.967164 0.00204757 1.65606e-20)
(1.03355 0.00835268 -9.69758e-23)
(0.739718 0.00562941 2.8747e-21)
(0.28595 -0.0326187 0)
(0.630151 -0.00988195 1.33095e-21)
(1.04777 0.00902223 0)
(0.124965 -0.0117837 -7.94402e-22)
(0.160958 -0.00527434 -7.76603e-21)
(1.04896 0.0250368 -8.7902e-21)
(0.999332 0.00556575 -7.1732e-21)
(1.0211 0.014068 1.37151e-21)
(0.970511 0.0354001 -1.28755e-20)
(1.0473 0.0139633 2.30667e-21)
(1.01411 0.040898 0)
(0.306592 0.00963059 -4.39453e-21)
(1.02617 0.00780853 0)
(1.00412 0.00469277 1.5168e-20)
(0.975198 0.0378692 1.50635e-20)
(1.088 -0.00555724 0)
(1.0503 0.0105592 -3.20132e-21)
(1.09852 0.002018 0)
(0.38219 -0.0474293 0)
(0.459921 -0.0172171 -5.83271e-21)
(1.04493 0.013016 3.66895e-21)
(1.0698 0.0372176 1.60301e-20)
(1.07517 0.0124975 0)
(0.997919 0.0162464 5.01579e-21)
(1.03804 0.0476135 2.725e-21)
(0.998996 0.000904682 3.11535e-21)
(0.961394 0.159762 8.98505e-21)
(1.03956 0.0257865 1.53397e-22)
(1.00769 0.00800211 0)
(0.259894 0.110091 -1.93674e-22)
(1.02168 0.0148884 1.31018e-21)
(0.990491 0.0407552 1.43358e-20)
(0.618721 -0.00287629 -3.62288e-21)
(1.14556 -0.00950377 -5.35382e-20)
(1.12095 -0.0337297 0)
(1.05498 0.0167699 0)
(1.10107 0.0955241 -2.43831e-20)
(0.19155 -0.0353429 4.80496e-21)
(1.0595 0.0313491 1.3135e-20)
(0.998884 0.0171547 -1.28062e-20)
(0.0157625 -0.0232478 -3.18282e-20)
(0.957386 0.0339263 0)
(1.0002 0.00382849 5.35319e-21)
(0.0683903 0.00018687 0)
(0.894894 0.0455844 0)
(1.03003 0.00641416 -3.96438e-22)
(0.974151 0.0365747 -9.94025e-21)
(1.04781 0.0132836 0)
(0.031062 -0.0117846 -7.43361e-22)
(1.03885 0.0463193 -3.03412e-21)
(1.05116 -0.00816411 0)
(1.05246 0.0103372 0)
(0.563778 0.00281291 8.42953e-20)
(0.999084 0.000741501 0)
(1.13612 0.0353688 3.36832e-20)
(0.999094 0.00966656 0)
(1.09154 0.34063 2.38134e-20)
(0.558392 0.202069 0)
(1.06581 0.0742699 -1.13722e-20)
(0.93212 0.0444246 2.85062e-23)
(1.04718 -0.00818834 0)
(0.968812 0.00562364 0)
(1.05103 0.0090536 -1.16502e-20)
(0.999953 0.000517458 0)
(1.02925 0.0194521 2.44675e-22)
(0.899943 0.0904962 -1.83811e-20)
(0.704925 0.163361 -4.59856e-20)
(1.00036 0.000166887 -8.95944e-21)
(1.04234 0.0109801 -2.03154e-21)
(1.15688 -0.0135434 6.05848e-20)
(0.99716 0.00110661 0)
(1.05567 0.0176868 0)
(1.03107 0.0372425 0)
(0.746637 0.00647784 2.4696e-21)
(1.12669 -0.00177599 -5.75411e-20)
(1.06059 0.00656826 -1.47297e-20)
(1.03089 0.00662099 -4.05178e-24)
(-0.198676 -0.0112001 0)
(0.935565 0.0447679 4.27527e-23)
(1.0512 0.00856965 -3.32327e-21)
(0.313353 -0.0459218 1.78443e-20)
(0.838638 0.119673 -6.47847e-20)
(1.04974 0.0104855 0)
(1.03207 0.00811076 -1.88038e-22)
(1.0408 0.0378741 3.5383e-21)
(1.00425 0.000153104 5.44774e-21)
(1.21278 0.185317 0)
(1.00038 0.00425697 -1.58835e-20)
(1.02658 0.0477847 0)
(0.985801 0.00190967 0)
(1.01682 0.0121069 -1.81389e-21)
(0.770309 0.00582519 -7.80875e-21)
(1.00288 0.0207903 -6.0318e-21)
(0.97806 0.0388578 1.47864e-20)
(1.05174 0.0087386 4.19023e-21)
(0.270884 -0.0299299 -1.53203e-21)
(1.02137 0.0198315 0)
(1.0362 0.0256459 7.38722e-22)
(1.01376 0.00974086 2.86253e-23)
(1.05037 0.0128142 9.54946e-21)
(-0.198499 -0.0144696 -4.12426e-23)
(0.884481 -0.0482387 2.47713e-22)
(1.01801 0.390392 0)
(1.03985 0.0445637 -1.86653e-21)
(0.570554 -0.00886758 8.41458e-22)
(1.03676 0.047783 -2.3367e-21)
(1.04103 0.0108822 0)
(0.999965 0.000476567 4.78117e-21)
(1.01712 0.000284169 2.77673e-21)
(1.003 0.0246934 -7.22996e-21)
(1.01485 0.000188423 -1.11496e-22)
(0.914026 -0.0330222 0)
(1.04964 0.0226067 7.27914e-21)
(0.999932 0.000627609 -5.03469e-21)
(1.19022 0.0286798 5.66487e-20)
(1.01415 0.00968194 -3.48799e-21)
(1.16669 0.013899 -2.84473e-20)
(1.067 -0.020113 0)
(1.05502 0.0113485 -1.61983e-21)
(1.20251 0.016632 0)
(1.0549 0.0161327 0)
(0.668001 -0.017472 4.90479e-21)
(1.06008 0.0062682 1.09439e-20)
(0.965888 0.0132481 0)
(1.00004 0.000645098 -4.42222e-21)
(0.906292 0.0898708 -4.38662e-20)
(1.0222 0.0323738 0)
(1.01912 0.0202562 -2.49754e-21)
(-0.181467 -0.0141823 -6.00127e-20)
(1.05208 0.0122341 -6.08014e-21)
(0.970456 0.00228345 0)
(1.06809 0.037565 0)
(0.302936 0.000489365 0)
(0.487287 -0.0363698 3.57566e-22)
(1.06383 0.0144519 1.09583e-20)
(1.05391 0.0162277 0)
(1.04062 0.0595358 -5.05531e-21)
(1.04877 0.00836011 0)
(1.04157 0.00806703 0)
(0.921619 0.0601048 -2.12299e-20)
(-0.161944 -0.0164677 -9.45355e-20)
(0.984752 0.0148836 -8.01819e-23)
(1.02201 0.019883 0)
(1.07429 0.0556337 2.29496e-20)
(0.917495 0.061047 0)
(1.05894 0.0163919 3.53761e-21)
(1.0798 0.041618 -2.67376e-20)
(1.01498 0.000753321 -3.15926e-21)
(1.04928 0.0938519 -1.33543e-20)
(0.999919 0.000591954 2.99442e-21)
(0.985836 0.00109158 0)
(0.511628 0.0139223 -1.37335e-21)
(1.06475 0.0144768 -1.33615e-20)
(1.00306 0.0238637 0)
(1.13071 0.0310601 3.23164e-20)
(0.977374 0.0377223 -6.82785e-21)
(1.00351 0.00974657 -6.78896e-21)
(0.898018 0.168792 4.97062e-20)
(0.499189 -0.026961 -1.86476e-21)
(0.994671 -1.86011e-05 1.8055e-21)
(0.998355 0.00898163 -9.19594e-21)
(1.01106 0.00154339 5.21519e-21)
(1.02928 0.017932 -1.76614e-22)
(0.491043 0.0115319 0)
(0.995105 0.000146553 -1.30552e-21)
(0.967573 0.0141421 0)
(1.17736 0.0152002 0)
(1.01099 0.0321222 0)
(1.00901 0.0452112 -2.29146e-21)
(0.138796 -0.0233218 4.30623e-20)
(0.996446 0.00281626 9.79663e-21)
(1.20863 0.0250218 -1.82573e-20)
(1.02188 0.00454701 -1.70125e-21)
(1.0411 0.00384597 3.41203e-21)
(0.488779 0.01377 0)
(1.0605 0.0164417 0)
(0.972818 0.00370949 9.4145e-21)
(0.996873 0.000439513 8.96677e-21)
(1.05245 0.010613 0)
(1.04567 0.0115982 0)
(1.02119 0.00453953 2.00917e-21)
(0.982429 0.05567 -2.19013e-22)
(1.01146 0.000792955 2.44026e-21)
(1.04981 0.0906841 3.84068e-21)
(1.03188 0.00846378 -4.88588e-22)
(1.0729 0.0536757 -2.29782e-20)
(1.05835 0.0133423 -9.70714e-21)
(1.04193 0.0110727 0)
(-0.0455246 -0.0214688 -4.55024e-20)
(1.05015 0.0107185 0)
(0.810676 -0.0349236 -2.38083e-20)
(0.997909 0.0743469 -8.16837e-21)
(1.02226 0.00469568 8.23068e-22)
(1.08305 -0.0047738 -8.94067e-21)
(0.99897 0.00569265 0)
(1.04993 0.0103586 5.08442e-21)
(1.14148 0.0166113 0)
(0.896411 0.0742637 -6.01293e-20)
(1.04234 0.00381314 0)
(0.602913 -0.0099171 0)
(1.0033 0.000519437 5.41574e-21)
(0.417432 -0.00278031 -4.4451e-20)
(1.08218 -0.00157013 -9.45408e-21)
(1.04928 0.0230556 -6.31052e-21)
(0.930309 0.0398655 -1.58095e-20)
(0.235469 -0.0406354 5.64454e-20)
(0.462712 -0.0508254 -1.23555e-20)
(1.02191 0.00611284 0)
(1.00615 0.0013363 1.81215e-21)
(1.00539 0.0083933 4.91844e-21)
(1.15279 0.0292579 -2.7035e-20)
(1.1263 0.0479498 0)
(0.0489589 -0.0237863 -5.52577e-21)
(-0.0764647 -0.00982405 0)
(0.998667 0.00898688 -7.78979e-21)
(1.05387 0.00673749 0)
(0.724511 0.292936 4.47924e-20)
(1.06122 -0.00862472 0)
(1.05111 0.00856797 3.81296e-21)
(1.05007 0.0131108 0)
(1.05704 0.0458282 -3.42478e-21)
(1.0306 0.0149009 -5.36977e-22)
(1.04513 0.0121806 -3.81199e-21)
(0.351593 -0.0452023 -1.67446e-20)
(1.07053 0.054056 2.7983e-22)
(1.05353 0.0126119 -2.24403e-21)
(1.02087 0.00467197 -2.33265e-21)
(1.00538 0.00818666 5.25119e-21)
(1.03409 0.0114946 0)
(1.0632 0.0724363 0)
(1.00966 0.00694788 7.41745e-21)
(1.04354 -0.00107544 -3.58903e-21)
(1.00012 0.00381234 -6.85447e-21)
(0.465853 0.0136395 -4.87371e-21)
(1.06785 -0.0211893 -1.03676e-20)
(1.04719 0.0889518 2.62405e-21)
(0.705976 0.176175 0)
(1.03015 0.0151118 2.42916e-22)
(0.999103 0.0178186 0)
(0.59647 -0.0094007 -3.13017e-21)
(1.04454 0.0136109 6.71874e-21)
(0.468841 0.0141262 5.32902e-22)
(1.00811 0.00817088 -7.50174e-21)
(1.03449 0.0113254 -6.22589e-23)
(1.00936 0.0221391 8.76343e-21)
(1.00004 0.000170961 9.68758e-21)
(1.0546 0.00756412 -1.45098e-21)
(1.05563 0.0169892 0)
(0.000819802 -0.0246921 3.29129e-23)
(-0.0975817 -0.0111359 9.54844e-20)
(0.996807 0.000864139 0)
(1.04013 0.0155255 5.8573e-21)
(1.05384 0.0166853 6.64165e-22)
(1.07132 -0.00448323 -1.54673e-20)
(0.999254 0.209198 7.47458e-23)
(1.02206 0.0985209 0)
(1.03251 0.0120564 -1.79489e-21)
(1.10259 0.412788 0)
(0.991942 0.0662091 6.33517e-21)
(0.960035 -0.0460736 3.17977e-20)
(1.02463 0.0106128 1.16639e-21)
(1.13246 -0.00997835 1.18535e-20)
(0.428313 0.0106429 -1.03302e-21)
(1.00976 0.00670801 -4.04429e-21)
(0.996544 0.0188976 6.01682e-21)
(1.06027 0.132387 -8.44402e-21)
(1.00001 -0.000263249 8.5071e-21)
(1.02154 0.00472649 -6.29107e-23)
(1.08023 0.0455245 0)
(1.04039 0.019609 1.19604e-22)
(0.5927 0.0143896 4.06848e-21)
(1.07888 0.0153951 0)
(1.09833 -0.0286988 0)
(1.00307 0.0200066 0)
(1.12345 -0.0151323 2.26443e-20)
(0.755504 0.552806 0)
(1.06426 0.130895 4.78038e-22)
(1.00001 -0.000226988 0)
(0.544267 0.0134193 -5.061e-21)
(1.01344 0.0219386 1.8688e-21)
(1.0504 0.00394799 0)
(0.995351 0.00337884 -1.21722e-20)
(0.998992 0.00036313 0)
(0.551316 0.0155368 5.23024e-21)
(1.04842 0.00503454 3.86501e-21)
(1.0544 0.00450917 3.43893e-21)
(1.05416 0.00687992 0)
(0.994305 0.10644 -1.47518e-20)
(1.02663 0.00787098 0)
(0.545294 -0.0213076 -2.94097e-21)
(1.00378 0.0121506 8.10237e-21)
(1.11325 0.081248 -4.60087e-20)
(1.18646 0.015621 -2.39705e-20)
(1.05362 0.0158687 1.22746e-20)
(1.01044 0.00575321 -3.23356e-21)
(0.992286 0.0139854 -8.4825e-21)
(1.0513 0.00965178 -6.44126e-21)
(1.05873 0.0461823 -3.71062e-21)
(1.00004 0.00106285 0)
(1.1239 0.0545401 0)
(0.798424 0.244753 0)
(1.05484 0.011835 1.8125e-21)
(0.99202 -0.00817534 -8.22105e-21)
(-0.00600241 -0.00385344 3.83284e-20)
(0.448246 -0.0254672 7.82073e-21)
(1.12161 0.323078 0)
(0.994459 0.0155297 0)
(0.904086 0.173132 1.44633e-20)
(1.02251 0.00662794 1.47742e-21)
(1.03845 0.0203485 -3.08113e-21)
(0.946517 0.147235 1.84151e-20)
(0.31742 0.00365705 2.24125e-21)
(0.947337 0.109941 -1.91098e-20)
(0.498203 -0.0124066 1.94189e-21)
(0.901431 0.158521 -3.99927e-20)
(1.08784 -0.00701081 0)
(1.04417 0.0122663 2.0503e-21)
(1.02194 0.0331748 0)
(0.368197 -0.0460117 2.88984e-20)
(1.18105 0.0856722 5.45431e-20)
(1.00496 0.00710603 -2.88995e-21)
(1.05252 0.0127329 -4.26857e-21)
(1.08425 -0.00571143 -2.78836e-21)
(1.06028 0.0322404 -1.44458e-20)
(0.947531 0.115554 5.05302e-21)
(1.03932 0.057613 9.07349e-22)
(1.0234 0.101215 8.09727e-23)
(1.08763 -0.0340961 0)
(1.01099 0.00546301 -6.4483e-21)
(1.0792 0.0380738 -1.72144e-20)
(1.00741 0.00124637 7.90033e-21)
(1.03197 0.0303317 -6.92024e-23)
(0.784711 0.00647598 -2.14856e-21)
(0.440674 -0.0368817 7.01779e-21)
(1.088 0.114803 2.26645e-20)
(0.986807 0.00262206 0)
(1.01477 0.00142925 -4.59953e-21)
(1.0211 0.00607423 3.22074e-21)
(0.999681 0.0641397 8.93084e-21)
(0.846993 0.102657 2.79052e-20)
(0.159298 -0.0366512 3.24453e-20)
(1.0763 0.0135281 0)
(1.15304 0.0256858 3.00456e-20)
(0.453867 0.0151297 0)
(1.10352 0.0805854 0)
(0.985344 0.104216 -2.23575e-20)
(0.543911 0.014741 6.19357e-21)
(1.01233 0.0355462 9.65959e-22)
(0.444276 -0.0173452 -2.86642e-21)
(1.02905 0.0478146 1.82602e-22)
(1.0042 0.000851785 0)
(0.987146 0.0102086 -3.46752e-21)
(1.05181 0.0125322 -1.44268e-20)
(1.1064 0.041955 4.55716e-21)
(1.01076 0.00189239 2.99517e-21)
(0.926535 0.0401727 -9.45138e-21)
(1.07605 0.0330995 -8.73993e-21)
(1.13022 0.0384242 3.15882e-20)
(0.983796 0.101884 1.88213e-20)
(1.04244 0.00800543 -5.27241e-21)
(1.0126 0.0335785 -1.24366e-20)
(1.04353 0.00814018 2.9137e-21)
(1.05089 0.00909295 0)
(1.06256 0.0136611 0)
(1.05185 0.00956059 1.29582e-20)
(1.00051 0.000247555 0)
(0.9796 0.0257569 -2.24304e-20)
(-0.211774 -0.0137657 7.38019e-21)
(0.542891 -0.019616 4.93476e-21)
(1.00335 0.0350759 -1.00446e-20)
(1.04871 0.00492966 0)
(0.986614 0.00318946 4.17892e-21)
(1.01861 0.0075168 -2.03375e-21)
(0.992503 -0.00768897 1.48286e-20)
(0.999044 0.0667687 -1.52626e-20)
(1.05087 0.012589 0)
(1.01862 0.0196502 2.05254e-21)
(0.972476 0.128424 4.50493e-21)
(1.03226 0.0132748 0)
(1.04275 0.059386 5.06734e-21)
(0.992174 0.0147674 0)
(1.08048 0.0497299 6.85875e-21)
(1.04464 0.0139409 9.27922e-23)
(1.01037 0.00607618 -7.21293e-23)
(0.992047 -0.00327262 -1.35419e-20)
(1.07764 0.0157948 0)
(1.07554 0.0276404 0)
(1.24812 0.129552 -7.91458e-22)
(1.0549 0.0158748 -3.51148e-21)
(1.00502 0.00693626 2.77288e-21)
(0.998775 0.00957365 6.57284e-21)
(1.00418 0.000628595 6.7036e-21)
(0.745613 0.00883564 0)
(0.900242 0.0481613 -2.68922e-20)
(1.09569 0.0382378 -3.42539e-20)
(0.387818 -0.0337588 3.44636e-21)
(1.02164 0.104957 1.38788e-21)
(1.05324 0.0169962 -5.49793e-22)
(0.787908 0.00806754 -2.61337e-21)
(1.0096 0.0228919 -1.07099e-20)
(1.00384 0.0117192 8.34684e-21)
(1.00305 0.000908845 0)
(1.03227 0.0123883 1.46348e-21)
(1.07085 -0.00568393 4.34009e-21)
(1.01122 0.000691805 0)
(1.017 0.00631569 0)
(1.12822 -0.0196578 1.35041e-20)
(1.0601 -0.00462933 0)
(0.929004 0.0640671 -3.21274e-20)
(1.03416 0.00785623 -1.41544e-21)
(0.72385 0.00656746 4.14225e-22)
(0.0707776 0.0236102 -1.47303e-19)
(1.05647 0.007541 5.41566e-21)
(1.02087 0.0775776 -2.3168e-22)
(1.05635 0.0179894 0)
(1.04997 0.0142471 0)
(1.10072 0.0831118 0)
(0.991649 -0.00288944 1.01151e-21)
(1.1311 -0.0183644 -2.50231e-20)
(1.0478 0.00927346 -6.39124e-21)
(-0.148733 0.00841693 1.36749e-19)
(0.994436 0.0654932 -1.03598e-20)
(1.01705 0.110656 -1.47102e-21)
(1.06075 0.411799 3.24213e-20)
(1.00687 0.000708276 0)
(1.1404 -0.0139436 2.45468e-20)
(1.04273 0.0195328 0)
(1.00003 0.000188396 -6.97785e-21)
(0.227649 -0.0445413 -3.92898e-20)
(1.05123 0.00977252 0)
(0.702509 0.197739 0)
(0.608261 0.0134794 -3.83519e-21)
(1.13839 0.0519625 3.67043e-20)
(1.00249 0.0193775 5.89893e-21)
(0.724431 0.00887682 4.3372e-22)
(1.00761 0.00882533 0)
(0.984528 0.0544317 1.87501e-22)
(1.04918 0.016663 1.27682e-20)
(1.03963 0.0384645 -3.37115e-21)
(0.999649 -0.000563291 0)
(-0.045504 0.0128147 0)
(0.379737 -0.046581 1.66895e-20)
(1.05128 0.00829826 -8.31952e-22)
(1.049 0.0137874 0)
(1.01314 0.0766339 -1.51259e-21)
(0.440622 0.00914663 0)
(1.20978 0.0316725 -5.47335e-20)
(1.02069 0.113101 1.98705e-21)
(0.430816 -0.0337951 8.10638e-21)
(1.04304 0.0191736 0)
(1.00737 0.000877896 -2.30653e-21)
(1.02042 0.0125008 0)
(0.997136 0.00148813 0)
(0.985921 0.0164529 -2.58013e-20)
(0.453039 0.0166648 8.24186e-22)
(1.05343 0.013392 -1.05815e-20)
(-0.0362181 -0.0210418 4.39515e-20)
(1.04251 -0.00161812 -8.55021e-22)
(1.00688 0.000293878 -1.68787e-22)
(1.07382 0.0125999 0)
(0.909498 0.107523 6.83225e-20)
(1.01936 0.000300701 1.78557e-21)
(1.03112 0.0301666 -1.65772e-24)
(0.335098 -0.0361055 -1.96281e-20)
(0.148958 0.000837566 0)
(1.03805 0.0260446 -4.62559e-21)
(1.09659 0.0399805 9.51702e-21)
(1.01312 0.0418312 1.21217e-22)
(1.00256 0.00866243 1.4727e-20)
(1.07978 0.0360131 9.35075e-21)
(1.04767 0.0126348 -3.59061e-21)
(0.495733 -0.0266682 0)
(1.12473 0.00930273 3.52725e-20)
(1.04118 0.0138982 -1.69289e-21)
(1.02098 -0.0020146 -1.02136e-21)
(0.979723 0.0999243 2.2011e-20)
(1.04335 0.0117776 -2.13548e-21)
(1.00036 0.0034734 1.05066e-20)
(0.773569 0.377685 0)
(1.06639 -0.00526853 -6.33112e-21)
(1.0335 0.0111172 1.01369e-21)
(1.05095 0.0126409 0)
(0.157967 0.00105858 0)
(0.995046 0.0151239 -7.76404e-21)
(0.985657 0.187434 0)
(1.02632 0.0112568 -1.02546e-21)
(0.440007 0.0152549 -4.10464e-21)
(0.994832 0.186793 -1.81214e-21)
(0.991534 0.0422464 -1.56652e-20)
(1.01557 0.0410389 0)
(1.03281 0.00878707 -1.7811e-21)
(1.01296 0.000834837 2.61833e-21)
(1.01851 0.0764136 0)
(0.50672 0.206206 0)
(1.01459 0.0215541 3.68614e-21)
(1.0335 0.0120554 0)
(1.0498 0.00859198 0)
(0.988715 0.0407855 -1.87677e-20)
(-0.0129717 -0.0258456 0)
(0.984144 0.220205 -2.79316e-21)
(0.996453 0.00625461 0)
(1.01508 0.00120022 3.33092e-21)
(0.984403 0.0138107 -3.43985e-21)
(0.845169 0.0938752 -1.63203e-20)
(1.00556 0.0353288 -8.34809e-21)
(1.00447 0.00305901 -7.78146e-21)
(1.04444 0.00868534 -9.10066e-22)
(1.10416 -0.0325531 -8.02243e-21)
(1.00156 0.00664836 0)
(1.02599 0.00747215 2.39075e-22)
(1.07584 0.0243411 0)
(0.537374 0.0160038 4.07426e-21)
(0.999886 0.00616679 1.80502e-21)
(1.03646 0.00768582 1.20632e-21)
(1.02948 0.0184934 0)
(1.04775 0.00969328 1.84419e-21)
(1.01739 0.00665524 0)
(0.0481978 -0.0140807 -1.02594e-20)
(1.08192 0.0515755 0)
(1.05486 0.00780647 -3.06958e-21)
(1.08755 0.424605 -1.5344e-20)
(0.956894 0.728333 -3.06244e-20)
(1.03305 0.0118737 4.79698e-22)
(1.19204 0.247249 0)
(1.02039 0.0016922 8.15238e-22)
(0.758703 0.00932918 0)
(1.06546 0.023323 -1.00256e-20)
(1.05087 0.0135688 0)
(0.995552 0.00101246 -9.78374e-21)
(0.987237 0.0108031 0)
(0.0720785 -0.008989 0)
(0.971154 0.00350793 1.04159e-20)
(0.867983 -0.00645073 2.1575e-23)
(1.00252 0.00825111 -1.22655e-20)
(1.05523 0.0045291 2.4363e-20)
(0.51936 0.0148155 -1.65457e-21)
(0.112277 -0.00628075 0)
(1.11899 0.00698612 0)
(0.998924 0.000569219 0)
(0.562586 0.0127608 0)
(0.999999 1.91119e-05 1.12147e-20)
(1.01521 0.0217627 0)
(1.04974 0.00879757 5.76272e-21)
(1.22594 0.303122 3.56437e-20)
(0.969761 0.0169134 0)
(1.15979 0.0418839 -2.46148e-20)
(1.05042 0.00905377 9.30041e-21)
(0.993275 0.0418928 -1.38249e-20)
(1.05301 0.0132773 5.28398e-21)
(1.00002 0.00053534 8.83832e-21)
(1.0078 0.0442871 -5.07969e-21)
(0.985345 0.0171864 2.53932e-20)
(1.00633 0.000295711 1.08803e-22)
(1.00419 0.00304631 1.16003e-20)
(1.1466 0.0933956 3.3941e-20)
(0.996519 0.000111792 -9.16438e-21)
(1.07729 0.0267555 0)
(1.04507 0.0109419 3.33356e-21)
(0.50958 0.202658 -2.98997e-20)
(0.999996 -0.000136918 0)
(1.10462 -0.0320813 -7.54747e-21)
(1.02307 0.00908279 6.48498e-22)
(0.836868 0.110999 1.60818e-20)
(1.05074 0.00866383 -2.80667e-21)
(1.10288 0.00165587 1.48621e-20)
(1.06337 0.0136317 -3.02672e-21)
(1.09811 0.098063 1.98017e-20)
(1.05994 0.0370718 6.49038e-21)
(1.0486 0.00815938 1.12585e-20)
(0.999977 -0.000506496 0)
(1.05223 0.0130901 3.67804e-21)
(1.08377 -0.00772522 -1.38838e-20)
(0.924353 0.0643473 1.17573e-20)
(1.01231 0.000759514 -8.18491e-22)
(1.01828 0.00691124 2.2095e-21)
(0.175753 -0.0262487 -4.51296e-20)
(1.04996 0.0101187 6.72018e-21)
(1.08061 0.0395808 9.2689e-21)
(1.02985 0.0160235 -1.64044e-22)
(1.00658 0.000875896 2.73828e-21)
(1.13442 0.0313117 -3.52233e-20)
(1.04915 0.00995851 5.93233e-21)
(0.789596 0.00909167 0)
(0.328629 -0.0141496 8.19132e-21)
(1.05961 -0.00540994 -5.3604e-21)
(1.06149 0.00736762 -1.19451e-20)
(0.0600916 -0.0244946 -3.98579e-20)
(1.02548 0.00737744 -2.72909e-22)
(1.00022 0.000180316 -6.86934e-21)
(0.401685 0.0129369 1.39518e-21)
(1.06534 0.024449 1.2192e-20)
(1.04639 0.422938 0)
(1.05469 0.00459362 -3.51353e-21)
(0.996748 0.00176178 -9.17892e-21)
(1.01875 0.000468725 0)
(1.05 0.00382806 -3.6581e-21)
(1.01987 0.0122322 0)
(0.631182 0.012487 4.11718e-21)
(1.04653 0.00781639 0)
(1.05041 0.00916358 -3.2442e-21)
(1.02343 0.0128835 1.09118e-21)
(1.04805 0.0139358 5.96889e-22)
(1.00026 0.00160502 0)
(1.21069 0.0267347 4.62164e-20)
(1.03303 0.0112799 -8.39798e-22)
(1.0249 0.0191712 1.16199e-21)
(0.870761 0.271246 1.05749e-20)
(1.12318 0.0124963 -7.97142e-21)
(1.04304 0.0115396 4.1587e-21)
(0.0713057 -0.0223506 9.43422e-21)
(0.982306 0.227467 -4.32471e-21)
(0.879076 -0.00559397 -5.30335e-21)
(0.886932 0.009448 -4.89888e-20)