/*--------------------------------*- C++ -*----------------------------------*\
| =========                 |                                                 |
| \\      /  F ield         | OpenFOAM: The Open Source CFD Toolbox           |
|  \\    /   O peration     | Version:  v2012                                 |
|   \\  /    A nd           | Website:  www.openfoam.com                      |
|    \\/     M anipulation  |                                                 |
\*---------------------------------------------------------------------------*/
FoamFile
{
    version     2.0;
    format      ascii;
    class       volScalarField;
    location    "300";
    object      ddt0(k);
}
// * * * * * * * * * * * * * * * * * * * * * * * * * * * * * * * * * * * * * //

dimensions      [0 2 -3 0 0 0 0];


internalField   nonuniform List<scalar> 
15335
(
-5.61889e-08
9.12194e-08
2.61688e-08
9.51377e-09
3.15471e-09
9.51101e-10
-1.06104e-08
-2.20915e-06
-1.15561e-10
-4.58236e-08
2.45081e-08
-2.15346e-11
-5.0988e-09
1.65429e-07
4.5449e-08
-1.06873e-05
-5.93079e-12
2.30986e-07
1.7341e-11
-1.42117e-05
6.70607e-08
6.0994e-08
-8.66459e-09
-8.43151e-12
-3.28363e-07
-4.25538e-07
2.62316e-08
-1.90311e-07
-1.22641e-07
2.1242e-11
2.18069e-08
1.398e-07
2.06577e-09
2.47095e-10
3.51277e-11
-3.4357e-06
-2.89129e-06
0.0146871
3.69166e-07
5.88825e-07
-5.23107e-08
-8.23602e-06
5.75092e-10
-1.79909e-10
7.44153e-08
6.03867e-12
-1.22375e-06
-1.38915e-06
1.14399e-08
3.5517e-10
-1.03573e-11
-8.59069e-08
0.000107988
-3.21959e-09
-2.38111e-11
-1.23181e-08
3.38961e-07
-2.30695e-09
-5.49267e-09
1.57075e-08
2.92175e-07
-1.08764e-06
4.74129e-08
3.68706e-09
-1.01069e-11
-2.35306e-11
-1.07444e-06
8.91177e-08
1.47151e-11
1.16642e-11
4.77048e-10
-3.44463e-10
-2.49557e-07
2.79726e-07
2.03425e-06
3.80028e-08
-1.33511e-07
8.9188e-08
1.42714e-06
-1.59859e-09
2.63679e-08
8.01105e-09
2.44049e-08
-4.39796e-07
1.96694e-08
3.08382e-12
1.70684e-11
-1.87992e-10
-4.79557e-11
-7.24918e-09
1.44437e-08
-1.38781e-08
-3.59926e-11
2.8744e-06
-4.16051e-09
8.03539e-11
4.23173e-12
-3.60103e-08
-2.3922e-12
1.50606e-12
5.09073e-10
4.1257e-08
1.67881e-06
-7.91404e-09
-6.60713e-12
-7.2446e-11
-2.97246e-11
-4.97926e-07
8.23893e-08
7.78521e-08
3.02351e-07
-1.67146e-08
-8.21322e-12
-2.251e-11
-6.29508e-05
6.29859e-11
2.15716e-10
2.86973e-07
1.7687e-08
8.19767e-06
2.21191e-08
5.63169e-07
2.92745e-07
-2.67793e-06
-3.08364e-11
-4.70392e-10
-9.63466e-11
-6.37236e-10
-1.19797e-08
-6.59485e-11
-6.18564e-08
7.5626e-08
7.22658e-12
-5.52272e-08
2.20148e-08
3.65791e-13
3.02081e-08
2.18454e-07
-2.14485e-07
-3.0775e-06
-8.46117e-09
1.86204e-08
-2.31288e-07
-6.2193e-12
4.23778e-09
-0.00339294
3.00143e-07
1.07234e-08
-6.96257e-07
3.53545e-08
3.26889e-10
1.34538e-07
-4.47698e-10
1.14596e-10
2.05873e-07
-5.32036e-10
8.38464e-08
3.38006e-07
1.86013e-08
-2.66368e-07
1.31193e-09
-2.3299e-09
-2.45465e-06
3.27114e-09
3.70065e-07
1.61663e-07
1.76024e-07
-1.33075e-11
0.000152005
-1.34531e-06
-0.0131424
3.65619e-05
4.32645e-09
4.82525e-07
1.81976e-07
-6.93539e-10
1.25411e-12
-2.67378e-06
0.000584769
2.16163e-07
2.77473e-07
-0.00046846
2.50003e-07
-2.86922e-10
-5.48545e-10
2.76895e-07
3.54708e-10
1.0329e-08
3.1045e-07
-7.19334e-08
-8.55427e-08
-1.91911e-06
1.02752e-10
7.12676e-09
3.01842e-06
-2.52445e-07
2.14842e-11
9.35913e-08
3.51874e-10
-1.84781e-08
3.93282e-08
-6.34695e-08
4.51744e-08
-8.43029e-08
-6.39345e-08
-1.58705e-10
-5.13307e-13
-1.09503e-07
-1.41201e-09
-2.56323e-09
3.37491e-07
1.21002e-10
2.23622e-07
3.06368e-10
2.16002e-07
3.50399e-07
2.26579e-08
6.85241e-08
-9.4437e-09
1.61958e-06
-9.67469e-11
-2.4446e-11
2.23722e-10
-8.15705e-11
-1.09143e-06
8.59875e-06
-1.57302e-11
1.55972e-07
1.92512e-09
9.62473e-07
-3.14146e-13
3.63928e-12
-1.36017e-08
2.04119e-07
2.51536e-06
-2.81056e-08
9.76783e-08
-7.37633e-09
1.77936e-12
3.88912e-06
-2.57607e-07
-7.85836e-08
3.19431e-07
7.09994e-10
-8.96475e-08
6.8086e-12
-4.37229e-10
-8.39519e-08
-2.78822e-07
-1.91626e-07
-6.02715e-08
7.27128e-06
7.47475e-12
-1.45936e-11
3.23019e-10
2.28918e-06
-1.05813e-08
-8.71969e-08
1.30529e-11
5.67254e-09
3.48417e-08
1.80499e-10
-1.51644e-11
8.48035e-10
1.54358e-11
1.17857e-11
-1.72898e-07
3.4565e-07
3.43486e-07
-2.02659e-11
1.09139e-08
2.60945e-07
3.11996e-07
-1.81116e-12
2.56107e-07
2.24166e-10
-4.89496e-10
-1.30926e-07
1.64454e-08
1.88075e-09
-6.89295e-08
6.21979e-08
-1.97989e-11
4.34849e-09
4.45099e-11
4.94979e-08
-2.40967e-09
-1.14458e-10
7.20846e-10
1.3236e-09
1.59775e-07
-3.85778e-11
2.82805e-07
-3.56282e-07
-2.12949e-10
0.00112012
-1.47439e-11
1.12745e-07
4.12453e-11
-7.8821e-08
-2.39393e-10
-2.82677e-07
2.25834e-07
4.58686e-08
-1.55838e-12
9.86795e-07
1.62876e-07
1.22958e-12
2.28767e-06
1.13132e-08
-6.73882e-08
1.54207e-11
1.26117e-08
-1.0841e-06
1.47131e-06
9.23007e-11
-3.08609e-10
-2.86304e-07
-3.65766e-05
8.19441e-07
-2.16771e-06
-1.43148e-11
-1.03762e-06
1.21468e-07
-8.09568e-11
2.28504e-07
-7.66286e-08
-6.39016e-08
-2.5485e-11
3.24938e-10
2.48525e-10
2.59078e-07
-1.4314e-11
1.16055e-07
-5.33079e-07
6.07902e-06
2.31146e-07
2.68239e-07
2.27148e-08
3.36195e-08
-1.6665e-08
1.07045e-08
-2.39185e-12
9.54409e-09
-2.20826e-10
5.091e-10
2.38632e-10
-1.76025e-07
1.63446e-12
1.71027e-08
2.34793e-08
-6.3965e-08
-2.63075e-10
-0.00199411
-6.83315e-08
-2.03917e-11
6.98236e-08
-1.18328e-07
-1.10692e-09
4.47939e-08
-1.09975e-10
-1.34843e-08
7.51322e-11
3.32909e-06
2.15879e-08
2.66516e-06
6.63051e-08
6.63526e-10
1.63291e-10
2.1113e-14
5.07747e-07
3.45129e-10
1.94961e-08
1.42456e-07
1.60324e-10
3.3473e-06
2.29445e-07
-8.55672e-11
-1.66123e-05
2.43725e-07
2.9854e-13
-2.09068e-10
2.54718e-08
1.25808e-06
3.92596e-10
-6.26853e-13
-3.2411e-08
1.18229e-06
3.62129e-08
7.63884e-08
-4.33178e-10
6.10562e-11
-2.94942e-13
4.98848e-08
2.77001e-06
-1.6071e-07
-1.09348e-06
-2.47865e-10
-8.13933e-07
-1.6623e-07
2.90504e-08
-6.06755e-09
-1.7056e-09
-3.77073e-11
-2.77246e-11
3.59714e-08
-8.59005e-06
9.09015e-05
-3.73754e-06
-3.12054e-07
1.4291e-07
3.08474e-09
2.1579e-06
3.00066e-07
7.38064e-09
-3.14051e-07
9.96729e-08
-1.26712e-10
3.60372e-07
-1.84874e-07
-1.46929e-08
-5.60994e-08
-2.69957e-06
5.43321e-12
-4.02272e-09
2.66144e-06
5.33845e-09
-1.46854e-07
-1.50985e-10
-1.1577e-09
3.94329e-07
3.73278e-06
-7.19162e-08
5.34407e-08
-5.07739e-08
-4.6699e-07
-2.62471e-07
-2.52149e-08
1.31862e-11
-6.36062e-11
-6.55781e-07
-8.79581e-08
-1.41272e-11
8.44384e-08
-7.18202e-10
-2.05535e-07
-8.68652e-05
2.36425e-09
1.24921e-08
-1.20752e-05
-6.79297e-08
4.22407e-06
1.16544e-07
2.87466e-10
4.63592e-07
3.70039e-07
3.42734e-10
4.68777e-08
3.15076e-07
3.5439e-08
-3.12877e-07
7.69843e-06
-1.77822e-06
-2.27094e-07
-4.56128e-10
6.027e-12
7.41209e-11
4.23181e-10
2.86146e-07
-1.48145e-06
-1.67286e-08
1.75615e-07
1.13925e-07
-2.68394e-10
1.47929e-11
1.28399e-11
-3.54294e-07
1.24358e-07
-8.9073e-08
2.92852e-08
-2.89874e-06
-1.20114e-06
3.2054e-11
2.14379e-08
4.53805e-10
-1.7752e-11
-2.4386e-09
2.02121e-07
-1.30985e-11
1.63722e-07
6.29906e-12
-9.25734e-10
-1.15304e-11
6.8176e-06
0.000679738
-1.40219e-09
-2.04634e-10
-1.93097e-09
-1.2293e-08
4.31362e-08
-1.7017e-07
1.8372e-11
2.82597e-08
-2.37123e-11
-7.57238e-08
-2.0768e-10
3.72696e-11
-5.478e-08
-3.34183e-09
-5.62206e-08
-3.00472e-06
1.37059e-13
-7.3804e-10
-3.41348e-08
-1.93875e-06
-2.31188e-06
1.24825e-10
-1.07026e-10
3.68357e-11
0.000508391
1.15336e-06
-1.68406e-16
-8.30251e-08
1.11013e-06
2.15337e-07
4.0204e-08
-2.38307e-10
1.34674e-07
-9.86767e-07
3.19778e-08
-2.32586e-08
1.72505e-11
-1.34119e-06
-6.20921e-07
0.000443153
9.10966e-08
6.05345e-08
1.60877e-06
6.845e-08
1.46934e-07
3.17773e-07
-4.8702e-08
-1.45302e-10
-2.0262e-10
-1.56778e-08
1.30595e-13
-7.0128e-07
7.38476e-08
-1.56187e-06
-1.13906e-08
-6.17444e-08
0.000149473
-2.53723e-07
4.9421e-08
9.67388e-08
5.24106e-07
1.87212e-07
8.65624e-12
1.82951e-10
1.2546e-11
1.81293e-09
-4.2267e-07
2.11487e-11
2.03513e-11
-9.99798e-09
-1.95177e-07
1.49946e-06
-3.90138e-09
-7.65986e-07
3.33894e-07
2.40336e-11
-1.77715e-10
-5.59004e-10
1.30771e-09
-4.33813e-08
1.39402e-08
4.88479e-06
2.68756e-11
6.06935e-10
6.02292e-08
-2.03392e-11
-3.22231e-07
3.45718e-07
2.51068e-07
-4.91104e-08
-5.19986e-11
-2.06352e-10
1.29366e-09
3.13733e-08
3.51786e-05
-1.10244e-08
1.03465e-11
-2.21911e-13
-2.11231e-09
-3.44949e-06
-3.05e-08
2.18043e-08
8.24934e-08
3.10603e-10
-1.52695e-06
1.85452e-11
1.98762e-10
5.13892e-07
1.81993e-11
1.29073e-10
3.86739e-08
-9.18734e-12
8.80999e-06
1.16671e-06
-6.90542e-08
-1.89256e-06
5.31276e-08
-1.11699e-06
-7.49689e-10
-1.84182e-06
-5.0794e-07
-8.41984e-10
-1.47951e-09
-1.0095e-08
-1.53449e-08
5.41016e-07
4.56708e-10
-1.0225e-13
0.000194633
1.01766e-11
2.70319e-11
4.73598e-08
-2.46524e-08
-9.39205e-08
-8.33336e-08
-2.14271e-10
-1.13888e-13
3.63011e-11
-3.16533e-09
3.76806e-14
8.43934e-08
2.76307e-09
-6.3704e-09
-7.03321e-09
-1.37415e-11
-3.31494e-10
-1.60961e-08
-1.87467e-09
2.15529e-07
-1.29141e-07
1.44683e-09
2.65483e-07
6.97392e-12
-2.53872e-07
7.57317e-07
9.53657e-07
7.92148e-07
6.84226e-09
-7.08309e-08
-1.50602e-07
-2.39114e-05
1.44965e-11
-1.90319e-08
1.9281e-07
-4.22508e-06
-2.24166e-09
2.84314e-07
1.8977e-11
-1.35135e-05
-2.59572e-11
-1.42197e-06
-1.69108e-11
1.99932e-11
5.8213e-07
-2.00212e-07
-5.16938e-11
-7.68261e-12
1.57577e-11
2.4266e-06
-4.23636e-09
-2.14919e-09
2.36603e-09
1.89648e-06
1.69978e-07
4.16411e-12
1.56125e-07
-7.35369e-11
-8.70866e-13
1.4832e-07
-1.3111e-09
2.41421e-10
8.01601e-08
9.39183e-11
1.75149e-09
-5.92499e-08
6.25733e-10
-1.40167e-11
-1.65456e-07
1.12411e-06
-3.57918e-12
-3.73993e-12
-8.04966e-08
1.15456e-11
3.1648e-07
-3.54415e-07
-5.82566e-10
1.73828e-07
-2.5586e-11
2.75596e-08
1.12168e-07
1.44167e-08
-7.12348e-10
7.67624e-07
1.26916e-09
3.154e-10
0.0047952
7.84003e-08
4.54702e-10
-9.83837e-08
-1.19696e-06
4.7306e-11
1.43439e-10
8.38683e-07
2.46375e-10
-3.23707e-10
1.65556e-08
1.5565e-13
2.69265e-11
9.61626e-08
-2.71266e-05
4.81061e-09
6.35102e-08
-3.32712e-06
-3.56026e-11
5.18871e-08
2.61494e-06
-2.85622e-10
-1.98804e-08
-1.50815e-06
-8.73876e-08
2.16555e-08
9.66161e-09
2.14193e-08
-7.15361e-07
-3.99451e-07
3.17473e-07
-1.40851e-10
7.5652e-07
6.4171e-07
0.000209971
-1.79664e-11
-4.57617e-08
3.57149e-09
3.51158e-09
2.92887e-10
7.12521e-08
-2.76289e-09
-1.05527e-07
1.77409e-10
-7.30759e-05
-6.83594e-08
-2.8516e-08
-7.61087e-08
-1.27939e-11
-2.40856e-10
-1.73719e-06
-1.48575e-08
-6.61245e-08
3.14265e-10
1.27876e-08
-2.72152e-12
-4.45781e-06
4.61798e-11
-7.56697e-10
2.5278e-07
-1.08847e-11
-6.84021e-08
-1.10201e-10
4.50982e-08
-1.75232e-08
7.98904e-09
6.27363e-09
1.99183e-10
-5.21908e-12
-5.34529e-09
3.78062e-08
2.77775e-11
4.65578e-12
2.41676e-09
1.44006e-07
2.17287e-08
1.724e-07
1.6902e-07
1.0081e-10
1.21592e-11
-6.72058e-09
1.25081e-06
7.03202e-08
-1.84247e-10
7.90001e-08
1.66645e-08
5.12311e-10
5.01107e-12
3.13639e-10
-3.09454e-05
7.71393e-07
1.41263e-08
3.47096e-12
-2.77498e-08
-3.54845e-06
-2.87971e-10
-2.11609e-11
6.90339e-08
-1.977e-12
1.76462e-06
-3.24589e-07
-9.7635e-11
3.7948e-10
-9.17666e-10
6.50245e-11
2.11659e-10
6.0414e-12
2.5237e-07
-7.62046e-08
-8.43926e-10
-4.06715e-09
-1.05441e-09
-3.25309e-11
1.40784e-10
4.79318e-07
-1.76403e-06
3.95439e-08
-1.63228e-10
4.84438e-10
-6.42828e-09
2.06273e-10
1.9693e-07
2.32322e-11
-1.53406e-07
-2.1284e-06
5.46609e-08
7.73216e-10
-2.49957e-11
2.37002e-06
-1.41531e-07
1.01789e-11
4.73351e-08
1.48102e-11
2.96952e-07
2.5021e-11
-4.48987e-11
8.77183e-11
1.0432e-11
6.35642e-08
-5.73289e-10
-2.81661e-12
1.70416e-05
-1.00814e-08
3.1375e-06
-7.03156e-08
3.37162e-08
-1.02598e-11
4.03217e-06
-2.00216e-07
-4.65148e-05
1.25242e-10
1.13614e-08
-2.98777e-09
-5.133e-09
-3.19689e-08
2.52507e-06
-1.70305e-13
9.87682e-09
-2.52104e-09
-4.84027e-10
8.91237e-09
-2.5725e-11
1.03653e-10
-3.10348e-07
-9.33832e-07
1.45673e-10
2.61105e-07
3.51078e-06
1.14458e-13
-5.25317e-10
-2.74861e-09
-4.19262e-06
1.74722e-07
-4.40367e-12
-1.01181e-10
4.38318e-10
-1.88139e-07
3.66834e-08
-5.72002e-08
-3.38941e-07
-1.79627e-11
2.47157e-08
1.2349e-10
-2.88683e-07
-3.07579e-10
-1.39483e-07
-6.99015e-06
1.70372e-09
6.63964e-13
-1.52032e-10
2.77544e-07
1.70141e-05
3.46358e-10
-1.39003e-10
5.02649e-08
2.09042e-11
3.58724e-06
-4.80611e-06
-2.54064e-12
5.89189e-13
7.95307e-08
2.94575e-10
-1.77641e-07
0.027877
-3.38368e-10
-5.12297e-11
-1.13654e-08
8.07766e-11
6.83954e-09
-1.35481e-08
4.68474e-08
-1.66146e-10
-1.9494e-13
1.08473e-07
8.60199e-11
-9.32713e-11
3.73628e-08
1.01125e-08
-1.08701e-11
-1.4694e-05
2.50409e-11
-2.27346e-10
7.67209e-10
2.16464e-07
5.84136e-08
-2.06926e-10
-4.03273e-10
-3.27933e-08
-8.99267e-12
4.47011e-08
-4.03641e-12
-1.46979e-07
4.48847e-10
-1.15293e-08
3.11166e-10
1.17154e-05
-6.19712e-08
-1.51734e-10
7.75357e-11
1.80216e-07
-5.59987e-10
8.89397e-08
2.6178e-05
-4.36128e-11
-1.86358e-10
1.24823e-08
4.78477e-06
-7.05453e-11
4.82784e-09
4.7898e-10
-1.96039e-05
-6.62403e-08
-2.06671e-13
-7.58067e-07
-4.39013e-11
-4.16402e-09
-1.03503e-06
-3.92619e-06
-1.10658e-10
-5.51675e-08
-1.20237e-11
-2.77558e-07
-1.31294e-09
-1.83999e-10
2.79388e-09
1.75618e-07
-1.25124e-07
1.79271e-07
3.07265e-07
1.32973e-06
2.84565e-08
8.05499e-07
-1.88402e-10
3.75639e-08
5.3467e-06
-1.49761e-09
7.21091e-06
-4.55707e-07
1.71708e-12
-1.14284e-06
-1.87857e-08
1.67634e-07
1.26021e-08
3.85886e-06
-4.0762e-11
-4.9475e-06
-2.51819e-10
-4.20388e-07
1.04574e-11
1.39064e-07
7.4469e-12
3.43194e-07
-4.10103e-08
-1.87863e-07
2.98087e-08
-3.05486e-07
-3.73147e-07
-9.46173e-12
5.52741e-07
1.36272e-09
-2.23272e-06
-6.82561e-13
-2.3169e-08
-1.84152e-11
3.53368e-09
-4.2418e-07
9.50566e-08
-1.82888e-07
5.47261e-14
4.14934e-08
-1.50022e-07
-2.88711e-08
-2.20174e-06
-7.86417e-07
-9.44459e-06
-1.77027e-13
4.73959e-07
6.76802e-08
5.96184e-09
1.92326e-08
-1.36597e-12
-3.38651e-10
5.43879e-11
5.39079e-12
-1.33861e-10
9.29565e-06
-1.09088e-07
1.41666e-06
-8.38424e-08
-1.28911e-09
-2.44766e-10
2.97447e-08
1.28917e-07
4.97686e-11
-2.09756e-08
-3.82557e-08
-1.93514e-06
1.61977e-07
-1.89769e-09
7.18459e-08
7.95917e-06
4.52894e-13
7.62087e-11
6.54235e-07
3.63085e-11
2.12984e-07
1.58601e-12
2.44204e-13
2.89381e-07
5.90098e-08
-6.97258e-07
2.73028e-07
-1.1035e-08
-1.49604e-11
3.34317e-11
-1.03437e-08
7.51386e-08
-5.06948e-07
-3.45543e-09
1.31068e-11
-4.02196e-11
1.00288e-10
1.19383e-09
2.00398e-10
7.81701e-10
3.06395e-12
7.42518e-10
-2.98604e-09
9.33769e-12
1.37542e-10
-9.09386e-08
-3.51017e-08
6.87184e-10
-8.36812e-08
-6.32837e-10
3.60892e-10
-8.414e-08
2.10569e-06
-1.97493e-10
5.95143e-08
-8.36263e-08
1.98731e-06
4.00489e-12
1.72121e-05
4.21099e-06
-5.87683e-07
-2.80403e-07
5.80322e-08
8.26701e-08
-2.86081e-05
7.19336e-10
2.08617e-10
1.45566e-07
-1.79063e-06
-3.18579e-11
-7.55971e-12
1.52866e-08
1.69221e-09
5.12955e-08
-3.51405e-15
2.02459e-09
-1.85035e-07
-8.87698e-08
-2.18646e-07
-8.50053e-10
-2.63729e-12
-1.22209e-07
4.59896e-08
1.75022e-10
5.29241e-05
-0.000301744
-2.94356e-07
-1.00485e-06
-2.72127e-10
1.7059e-11
4.65212e-08
-2.639e-05
-2.04525e-07
7.32763e-09
5.84079e-10
-1.21948e-07
1.93878e-07
2.24716e-08
-8.47131e-12
9.45026e-14
-4.02135e-07
9.28898e-09
-4.67694e-14
-4.99113e-08
1.41529e-08
-3.6839e-11
-1.41421e-11
3.97368e-08
4.02934e-08
-1.41113e-07
6.61302e-12
-1.64532e-10
5.96395e-08
2.39876e-06
-1.12267e-08
5.60373e-07
8.11395e-09
-3.83503e-10
-9.9519e-12
-5.2277e-08
-1.15922e-07
-1.25023e-06
-2.49529e-08
-5.23714e-08
-5.6725e-05
-1.52475e-11
-2.99902e-07
-5.11623e-08
1.04817e-07
-9.68421e-09
3.98088e-10
1.24352e-08
-4.8105e-08
-3.27693e-07
-3.90277e-09
5.38793e-13
-1.2858e-08
3.78807e-10
7.98699e-08
5.12846e-08
-4.42511e-08
3.72257e-10
-3.26631e-06
-5.19087e-07
1.03614e-09
7.81559e-08
-1.24332e-06
-1.08011e-10
1.0998e-07
4.6366e-09
-1.68927e-05
1.13326e-06
-5.50774e-08
-6.30737e-10
3.48471e-09
-5.85926e-08
4.57434e-05
-4.04591e-08
5.79405e-08
-4.12183e-07
6.52016e-06
-1.81892e-10
-5.69231e-10
4.51575e-11
-6.28395e-12
-2.24674e-12
7.16666e-06
1.05583e-07
2.27681e-12
1.29506e-10
-9.524e-07
-2.50103e-11
2.23239e-07
-4.37494e-08
-8.36516e-07
1.52927e-07
-6.29958e-11
6.20637e-07
2.29677e-10
-8.78772e-08
-1.43649e-11
9.43873e-09
-3.93899e-10
-2.78815e-07
2.74504e-07
1.56596e-10
-3.04757e-06
-1.23365e-07
4.29585e-08
2.43434e-08
-0.00140965
4.33989e-08
-1.09331e-08
1.19313e-07
4.90371e-10
-1.27131e-08
-4.86885e-09
1.38568e-13
9.11484e-09
-3.49751e-06
6.47681e-08
-6.43773e-11
3.9069e-11
-6.68508e-12
1.72586e-07
2.50772e-07
-1.18965e-10
1.06942e-11
-1.56085e-06
5.4528e-10
-1.80243e-11
-8.00303e-12
-7.2704e-09
0.000106239
-1.30244e-07
5.63317e-11
-2.82897e-06
-1.45531e-11
-1.60233e-09
3.64235e-07
2.9279e-11
1.37516e-07
1.48065e-07
-3.48835e-10
-5.68394e-10
-5.02415e-10
-4.81198e-11
1.2616e-10
1.81826e-07
-2.43191e-07
2.39685e-11
-2.04276e-11
4.38602e-10
-4.25269e-08
9.36789e-06
3.37482e-09
4.45834e-11
2.65031e-11
-9.50016e-08
3.35751e-09
1.74903e-07
1.07796e-13
1.14927e-11
7.23769e-10
1.28594e-08
1.85186e-10
2.88759e-08
1.21449e-08
4.25006e-10
-8.11097e-11
8.264e-13
-4.32919e-08
5.37656e-11
1.64447e-11
6.06481e-06
-3.64347e-11
8.09235e-09
1.47474e-12
-1.5178e-10
-7.9487e-11
-2.24074e-13
-1.11082e-06
2.53217e-05
8.88509e-08
8.17262e-06
-8.75332e-08
4.51611e-08
6.63494e-08
4.89093e-10
1.37898e-07
6.00347e-06
-7.81826e-13
-7.91271e-08
-6.53772e-05
-2.84947e-07
2.27666e-07
4.66615e-08
1.37663e-07
-3.90405e-13
-1.09859e-06
8.65914e-08
-1.77799e-06
4.37332e-10
9.62513e-08
-8.0657e-08
6.93314e-11
-8.89936e-08
-6.608e-09
2.46628e-08
1.27646e-07
8.01445e-09
-2.82306e-08
-2.27228e-08
-3.54532e-06
1.47701e-08
1.21343e-07
1.88822e-07
-1.11273e-10
3.52938e-07
-2.5714e-14
2.07553e-09
0.004481
4.42881e-09
-3.20964e-06
-9.62905e-09
-3.05232e-07
-9.08949e-12
1.31584e-06
-8.09602e-09
4.83223e-13
-2.62655e-07
1.17595e-12
1.26385e-08
-5.49903e-10
4.52383e-08
-7.29748e-05
-1.45908e-12
6.90963e-11
8.9605e-09
-1.97075e-10
6.65502e-06
-4.21228e-11
1.41902e-07
-1.97791e-11
-1.80929e-07
1.2988e-11
4.0188e-10
5.1984e-08
-1.00728e-07
3.41363e-08
8.47218e-08
-8.7645e-08
2.04507e-11
1.99092e-07
-5.35346e-10
2.35608e-11
9.80451e-08
8.46041e-08
-3.32551e-08
2.82921e-07
-7.88062e-13
-6.74742e-07
-7.84083e-09
-7.3539e-13
4.53605e-12
-3.3757e-07
5.68659e-09
0.000114658
-2.14298e-07
-8.1068e-08
-7.32356e-08
7.30848e-12
-3.35419e-07
-1.44269e-06
2.70425e-10
1.13566e-07
8.54794e-07
2.61579e-07
0.000836781
1.35277e-08
-8.79001e-11
-2.99041e-10
4.85052e-11
4.08615e-11
1.35715e-08
5.64693e-14
9.89311e-08
-6.3069e-13
2.51984e-07
3.59312e-10
2.96782e-07
-2.73636e-07
5.30747e-10
1.52658e-08
-3.47653e-13
-5.7276e-06
-8.37563e-08
1.38889e-09
-1.22823e-10
2.08429e-10
0.000235539
1.16729e-06
2.30078e-07
2.33235e-08
-2.56705e-10
-1.19051e-09
-0.000126041
0.000682228
-1.20898e-09
4.21173e-08
3.14739e-07
-4.52894e-12
-4.46384e-09
9.87323e-09
5.25954e-08
7.1015e-08
5.60778e-08
2.25083e-09
-2.69928e-10
-1.14421e-08
-1.13439e-07
1.78697e-11
-1.67385e-06
-6.57182e-09
-1.50859e-08
-1.12592e-08
-4.62699e-07
-2.90696e-09
-5.22248e-08
1.04561e-10
-6.0431e-07
-1.77668e-10
3.42426e-06
1.80527e-10
-5.13845e-08
-1.61944e-10
-7.2272e-08
1.2197e-08
-4.92145e-08
-4.10348e-05
-0.000792378
-5.24915e-09
1.19642e-07
7.6669e-10
4.5312e-10
-2.03062e-11
2.92403e-07
2.56071e-11
3.62657e-09
9.40956e-09
-2.83123e-11
2.48785e-08
-3.20484e-10
8.06192e-12
4.35411e-14
-0.0049437
-7.87048e-11
5.20765e-08
-2.6003e-09
2.35658e-06
-2.74047e-09
-1.45797e-08
-6.45048e-12
-2.98862e-07
-5.18298e-11
1.63638e-10
2.19056e-11
-3.7583e-06
-2.77142e-10
7.42162e-07
-3.56608e-12
4.16881e-08
1.06107e-07
3.5792e-11
-3.95363e-06
-3.12014e-06
7.90188e-08
-1.93629e-10
1.81734e-07
-2.88087e-08
-1.80192e-05
2.75558e-10
1.36007e-10
-1.27892e-06
-1.14608e-07
-3.97902e-10
3.70139e-06
7.41077e-09
1.70266e-10
-3.33801e-07
8.92806e-11
-4.64485e-08
5.76822e-11
-8.26614e-12
-3.99222e-11
1.44161e-10
6.08396e-08
-4.50919e-10
-8.54881e-10
1.07967e-06
1.63146e-07
1.7861e-06
2.03207e-07
-6.54496e-09
-4.23358e-12
7.25687e-07
-1.13204e-05
-8.49449e-12
-3.14441e-08
6.89296e-10
-1.37236e-08
7.42798e-08
3.14387e-06
-4.31997e-10
6.58667e-06
-4.27457e-13
2.31243e-07
1.59977e-07
2.62785e-07
-3.74672e-08
4.07951e-09
2.14319e-07
-1.35029e-08
1.36006e-14
3.06067e-08
1.8949e-07
1.45682e-08
-8.42565e-08
-8.43459e-08
-1.33072e-11
-2.52002e-07
-6.42149e-13
-1.21654e-10
2.08012e-10
4.26156e-07
3.04962e-11
1.2521e-07
-1.55812e-07
-3.13581e-08
4.62836e-08
-5.06162e-08
1.91236e-07
-7.51749e-09
-1.45081e-10
-2.44128e-13
3.39552e-11
-1.43168e-10
1.0657e-10
-2.57437e-07
-8.2319e-09
2.78008e-11
2.93913e-13
1.25212e-08
-1.21251e-08
-1.54077e-08
2.88246e-07
1.18248e-07
-0.0156516
-7.61474e-07
5.281e-07
3.2061e-07
-2.29103e-10
1.38265e-11
-1.90341e-07
2.53666e-08
-2.26611e-11
0.000106265
2.32288e-09
-8.41502e-08
3.1996e-10
3.16283e-07
-1.55648e-06
-1.45437e-10
-1.11532e-08
-6.79954e-10
-1.3209e-11
8.93064e-07
2.8834e-07
4.40997e-09
-7.26184e-10
1.45341e-11
-2.60094e-07
-1.83075e-10
1.66415e-09
-9.77009e-08
6.63229e-11
7.79345e-08
-2.71977e-10
8.84414e-09
-4.8124e-10
1.35742e-11
-2.78166e-10
-1.86033e-07
0.000452284
-1.54976e-12
3.91862e-08
-7.59546e-07
-1.91295e-11
-1.55814e-11
3.21307e-10
9.43933e-08
9.52164e-08
-1.83065e-06
5.25233e-10
-1.69073e-12
-9.20399e-07
3.5474e-06
-1.15817e-07
5.8207e-07
-3.65181e-11
3.14068e-10
-1.6879e-07
-5.62069e-12
7.34079e-09
2.87246e-07
1.79199e-13
1.8992e-07
7.72153e-11
4.09545e-08
-6.20582e-08
2.90915e-10
4.44088e-08
1.22099e-10
1.36487e-07
3.45036e-10
-7.76657e-07
5.35079e-08
-1.8839e-08
1.76343e-11
-6.84709e-11
-1.37338e-06
-9.8697e-06
-5.17631e-10
1.22459e-07
1.11942e-10
-1.29268e-10
-2.09627e-10
1.19831e-07
2.11261e-09
-8.37802e-09
1.01118e-07
-5.81446e-08
-1.61949e-06
1.88969e-07
-6.52491e-10
-3.61703e-08
-3.8725e-08
1.37352e-11
2.81802e-11
7.16121e-10
-2.73227e-11
8.1857e-08
2.14443e-10
2.66715e-13
3.70961e-08
1.6533e-05
-3.68701e-10
-3.3123e-08
-3.03221e-11
-6.4411e-11
1.33839e-09
-3.57278e-08
-2.26698e-06
5.94172e-06
5.34435e-11
3.09057e-13
3.22865e-09
-2.28008e-13
5.05194e-08
-6.03026e-11
-1.5253e-06
-7.90683e-08
4.95858e-05
9.33361e-08
-3.69108e-07
3.48264e-11
1.84403e-07
-3.24601e-08
-6.4819e-10
-2.04614e-06
-9.95449e-08
3.22019e-10
-2.56537e-07
7.19028e-08
-1.6916e-06
-8.71223e-07
2.33199e-08
-2.97174e-06
1.62413e-08
3.5213e-07
-4.77553e-09
7.51648e-10
-2.23988e-07
-9.70339e-08
1.13567e-06
2.33322e-10
-1.03301e-06
-2.17644e-06
-4.75042e-11
1.28065e-12
4.2024e-07
6.26723e-10
1.36682e-06
2.64149e-07
1.13905e-08
8.20903e-06
2.25255e-07
-2.72954e-10
-7.58899e-08
1.0633e-06
-1.18784e-11
2.42752e-07
4.343e-06
-0.001233
6.77838e-11
6.32039e-06
-1.67556e-11
2.50118e-07
1.48928e-11
1.62712e-07
1.83678e-11
5.06973e-10
2.98946e-13
-7.53439e-09
5.43555e-06
-2.49766e-07
2.53503e-09
3.12262e-08
-1.98632e-09
-5.23407e-07
-8.1773e-08
-7.35023e-08
-8.04708e-09
4.06649e-07
-2.98322e-10
8.86594e-12
5.55303e-06
2.66886e-11
-8.69507e-08
1.5847e-07
3.72603e-07
2.1038e-08
-5.43317e-08
1.24405e-07
3.23914e-07
-5.45278e-11
-3.47162e-08
-6.49308e-08
9.46718e-09
6.6463e-11
-2.13283e-08
-3.74187e-11
2.22247e-13
1.66965e-11
4.99716e-08
-1.92929e-11
-1.4375e-10
-8.06495e-07
-2.51838e-10
-2.31025e-11
1.17442e-09
8.14083e-13
1.44932e-08
-1.08163e-11
2.31695e-07
1.56312e-08
-4.58387e-07
-8.89235e-12
8.92195e-06
3.74063e-06
-2.01899e-11
-4.23806e-09
-1.12498e-07
-2.6835e-10
1.12702e-09
-4.77004e-08
-9.19612e-08
2.2995e-08
-9.48513e-07
6.09689e-11
1.40755e-06
4.81699e-08
9.00738e-08
-3.63573e-11
4.9181e-08
2.29117e-08
0.0119541
6.8155e-09
2.61068e-11
2.87775e-06
-2.62332e-07
3.79037e-10
-2.58415e-07
-2.14874e-12
-2.5658e-08
6.25598e-06
-8.34748e-08
-0.000598069
-2.02205e-11
0.0152396
-1.05644e-10
-2.84458e-07
9.22661e-08
-1.176e-11
4.46182e-11
1.46329e-10
-6.42026e-10
-1.18869e-07
-4.73623e-10
3.92765e-08
5.56259e-07
-1.56244e-10
8.60374e-08
-1.24589e-13
2.69142e-07
-6.60859e-08
-1.71263e-05
3.32204e-05
1.14203e-11
-4.1474e-11
-1.29896e-08
-5.22839e-09
7.98024e-07
9.32717e-08
2.45132e-07
6.69543e-10
-5.35371e-06
7.39245e-11
6.61913e-12
6.06651e-12
1.19536e-09
7.14586e-13
-9.16558e-08
-9.30639e-09
1.13584e-11
5.1507e-10
-4.2237e-07
-1.55698e-11
9.03545e-08
3.21606e-07
-3.30524e-08
1.37689e-07
-4.46421e-11
9.83616e-07
-3.27658e-12
2.86136e-07
4.72223e-12
-6.54453e-08
-4.31836e-11
3.66999e-08
-1.40892e-11
2.53209e-07
1.68054e-08
2.21122e-10
-1.85537e-13
-8.3276e-08
-1.3867e-05
-1.46918e-07
1.61193e-07
2.61438e-08
-2.18946e-11
-1.18223e-11
-3.51856e-08
-3.43813e-08
-1.43323e-06
-2.88767e-07
8.46813e-10
7.0707e-08
-8.9672e-07
8.38014e-14
2.47e-07
-2.89717e-10
-2.55504e-08
-9.87203e-10
1.00634e-11
-1.95355e-11
6.41742e-10
2.12854e-08
-6.59333e-09
-0.00012693
-2.02807e-06
-3.73349e-06
5.85124e-08
-9.35272e-10
-2.47601e-11
-1.97428e-11
0.000126393
3.00316e-11
5.01965e-08
-6.83341e-13
1.66633e-09
1.49154e-08
-3.09867e-06
6.68944e-08
3.24156e-08
1.96201e-09
1.74246e-11
-1.16759e-07
3.99092e-06
-8.48461e-09
-3.13097e-08
8.79448e-10
-3.87875e-09
2.82377e-07
-5.81638e-11
1.43774e-08
-3.51624e-12
-1.05252e-07
1.7735e-10
-1.35778e-07
-3.10847e-10
-3.01188e-12
-1.06077e-07
2.40604e-08
-9.0911e-08
-8.53706e-12
-1.48045e-10
7.27405e-09
2.85396e-08
-3.06839e-08
5.35398e-07
5.38753e-11
3.91521e-09
-9.77535e-06
2.33379e-09
2.10525e-09
-1.95404e-06
5.79937e-06
9.57826e-07
5.43185e-08
3.44329e-07
3.97821e-06
2.18034e-07
5.02613e-08
3.31906e-08
9.47672e-06
-5.54072e-10
-5.41924e-08
-1.34676e-11
5.13544e-11
1.03052e-07
6.63247e-09
1.57544e-07
-1.99703e-10
3.06512e-07
1.34954e-06
5.8448e-08
-7.48301e-08
1.30129e-08
5.73106e-11
4.81462e-07
2.49745e-07
6.04072e-09
4.13958e-07
3.65346e-10
5.83899e-10
2.47141e-08
2.96287e-09
-1.00824e-07
-8.77057e-07
-5.80289e-07
5.69214e-08
-2.1771e-07
-6.07211e-10
-1.06214e-08
1.23299e-11
5.14548e-10
-9.23955e-09
-3.09117e-11
-2.87304e-10
2.04729e-08
-2.30656e-10
-4.22747e-08
-9.22979e-09
7.29539e-07
-4.1833e-08
-1.64002e-07
-2.50078e-12
1.14004e-07
-2.12193e-10
2.22234e-12
-1.09773e-07
1.41822e-05
-2.51294e-12
3.55791e-11
-9.34816e-08
3.73178e-07
-8.06293e-10
1.30415e-07
0.000550093
7.71734e-07
9.75775e-12
-3.11679e-07
-2.25152e-11
3.98596e-10
8.97826e-09
-5.98926e-11
7.25709e-07
1.68607e-09
-3.94976e-11
7.02336e-08
7.23717e-08
1.28736e-10
-5.827e-12
-1.23637e-10
2.15534e-13
-2.32275e-11
5.19523e-08
-7.26032e-12
7.19851e-08
1.02311e-08
-9.42223e-12
6.60602e-08
4.50854e-11
-3.24125e-06
1.57103e-06
5.17103e-07
-8.00172e-08
-4.37933e-08
3.704e-09
1.09097e-08
5.60353e-13
2.76312e-08
-4.35957e-10
4.29012e-07
-1.04415e-05
-3.4931e-08
-5.04184e-07
-1.06977e-08
-0.000248987
1.38782e-07
-1.16994e-10
1.04335e-06
3.06325e-08
-1.55408e-09
-2.16227e-07
7.06196e-13
-1.00398e-07
6.10029e-06
-6.40758e-07
-3.22332e-10
2.41532e-08
1.10073e-07
-3.32362e-12
3.35658e-08
-5.10333e-10
2.42523e-08
-1.21784e-06
4.27735e-08
4.24973e-07
-4.91026e-10
1.60413e-07
6.56572e-06
5.89089e-11
3.3136e-07
1.26869e-13
-1.69832e-08
5.39569e-07
2.16095e-08
-3.68047e-14
3.40779e-12
5.36088e-08
3.13128e-06
1.12023e-11
2.0473e-09
2.41194e-06
-1.58126e-11
6.57461e-09
-2.16941e-08
-1.62745e-07
-8.16918e-08
-2.45986e-07
-1.15693e-06
1.94676e-08
5.04711e-08
2.21405e-07
-2.93833e-07
4.31983e-10
-2.79208e-11
-8.48723e-09
-9.35693e-12
-8.18792e-08
1.45195e-05
-5.46991e-10
-1.03506e-09
6.58308e-08
-8.6012e-08
-1.52781e-07
-7.31559e-08
2.63934e-11
-1.35792e-07
1.83564e-07
2.58191e-10
-1.13855e-07
-2.86641e-07
-3.81284e-08
0.000306201
-3.29284e-11
9.42775e-11
-8.2416e-10
-2.15349e-10
-3.53079e-11
-1.17081e-13
1.85173e-09
-1.96341e-08
-7.76592e-08
1.57845e-10
-4.22758e-07
-1.48586e-11
1.02045e-10
6.8736e-08
-3.84621e-07
3.46496e-07
7.93103e-07
-3.50502e-10
-3.26467e-12
2.7124e-08
8.1187e-07
-0.00543534
-4.86545e-10
2.67528e-05
1.61135e-08
-2.39289e-06
1.46754e-10
1.78689e-08
-1.00961e-07
-1.97516e-12
-5.30688e-08
2.74004e-06
3.65909e-09
2.56332e-08
2.61823e-08
-8.70322e-12
2.35331e-08
-2.27551e-07
-3.92328e-06
-6.1981e-07
-5.45197e-08
2.23866e-06
1.5213e-06
-5.05099e-07
9.32694e-08
-1.04874e-12
-6.58234e-08
2.91179e-07
-8.20082e-08
3.06102e-08
-7.61147e-08
-5.1382e-11
1.1731e-08
4.0953e-10
-7.00393e-08
1.27888e-10
4.36472e-08
2.59875e-12
-1.87452e-07
-2.70256e-10
-6.18953e-09
-9.84764e-06
-3.3546e-10
-8.9484e-08
3.42879e-08
2.09831e-11
-1.2904e-11
1.8184e-11
1.11767e-07
2.09922e-07
-1.50766e-10
-4.48715e-08
-1.79778e-10
-3.89459e-06
-1.28067e-08
2.62005e-07
-3.14238e-07
-2.53702e-10
1.81715e-07
-1.16068e-08
1.6518e-07
-4.18767e-09
1.29677e-07
6.36705e-08
-2.53387e-06
1.07069e-12
3.20522e-07
-5.32784e-08
3.98067e-07
-6.90842e-05
-2.84286e-10
5.51234e-12
4.35171e-07
1.36011e-11
3.99021e-07
-5.26176e-12
-4.67314e-09
6.64665e-09
-8.52917e-08
1.26863e-08
2.81707e-07
-1.61459e-07
-5.10911e-05
-5.88719e-13
-1.46667e-11
-1.74228e-07
-8.41902e-08
2.89898e-11
1.72552e-06
-3.68656e-08
2.41981e-08
-9.32778e-07
3.10976e-07
-2.98301e-10
8.32267e-08
-4.14426e-06
6.84359e-08
-8.37226e-09
-1.85392e-08
-1.83506e-07
3.55596e-08
1.33995e-07
-3.70642e-08
-6.5807e-11
-5.06075e-10
9.75286e-12
-3.41247e-07
9.98528e-08
-3.94322e-12
2.63764e-10
9.64911e-08
-7.39383e-09
8.40647e-08
-1.47344e-06
5.49226e-08
-3.58301e-08
3.39538e-07
-4.17847e-07
4.52219e-09
-7.10224e-08
1.09168e-07
2.21837e-08
-1.75977e-11
1.82541e-07
-5.12661e-11
3.31951e-08
1.97636e-07
-5.71662e-06
3.92576e-08
-4.34805e-06
3.39346e-08
4.93049e-07
-4.5891e-06
1.44659e-08
-4.26312e-09
3.35553e-10
-2.45943e-08
-5.81609e-09
9.01854e-09
-9.94197e-09
5.26219e-11
-6.42348e-09
-3.31055e-09
-6.47281e-08
4.7505e-07
7.80617e-09
1.39535e-08
-8.90533e-12
-4.03813e-06
0.000144159
1.94404e-08
-3.98208e-08
7.23474e-08
2.2853e-10
-1.64225e-07
5.71971e-08
3.17085e-10
6.51544e-12
1.09621e-07
2.95791e-07
5.20222e-07
-2.61124e-05
1.56532e-10
2.97294e-08
-1.29603e-10
1.35627e-07
-2.02709e-10
-8.01007e-09
-6.27701e-07
9.27836e-08
-9.32152e-09
8.30517e-08
2.00296e-08
1.45786e-10
1.03553e-06
1.50577e-07
-2.48702e-08
5.16391e-07
7.57331e-12
3.62507e-12
-9.89288e-09
1.22194e-07
1.49466e-07
-1.06023e-09
-9.48678e-08
3.19287e-12
-1.1841e-07
2.75848e-11
1.91149e-10
1.04165e-11
9.65859e-11
-3.03889e-07
-3.74943e-08
-2.42683e-10
-2.27646e-11
1.74087e-07
-3.01505e-08
1.19296e-08
8.14262e-08
1.65747e-08
-1.19027e-07
1.018e-11
1.86258e-07
-6.97955e-10
3.54322e-07
1.1806e-06
-2.83405e-09
1.27813e-11
-3.99964e-11
1.21308e-11
9.53302e-09
-1.72239e-10
1.03618e-11
0.00521536
1.46935e-07
-1.23314e-12
2.46246e-11
7.93466e-12
3.39995e-06
1.86059e-06
2.74774e-08
2.30732e-06
-8.68462e-09
2.22503e-08
2.22404e-07
-1.53922e-06
-2.19063e-10