/*--------------------------------*- C++ -*----------------------------------*\
| =========                 |                                                 |
| \\      /  F ield         | OpenFOAM: The Open Source CFD Toolbox           |
|  \\    /   O peration     | Version:  v2012                                 |
|   \\  /    A nd           | Website:  www.openfoam.com                      |
|    \\/     M anipulation  |                                                 |
\*---------------------------------------------------------------------------*/
FoamFile
{
    version     2.0;
    format      ascii;
    class       volScalarField;
    location    "300";
    object      ddt0(omega);
}
// * * * * * * * * * * * * * * * * * * * * * * * * * * * * * * * * * * * * * //

dimensions      [0 0 -2 0 0 0 0];


internalField   nonuniform List<scalar> 
15335
(
2.61671e-05
7.83582e-05
-2.06938e-05
2.29199e-05
-1.45233e-06
8.21581e-09
5.96781e-05
-0.000816962
-3.73242e-08
1.96985e-05
-1.76901e-05
-6.79558e-09
-5.53993e-06
-0.000371472
7.24032e-06
-0.0129889
-2.44683e-09
3.88266e-05
1.26147e-09
-0.00259314
6.51655e-07
-6.2937e-07
7.45507e-05
-6.14013e-10
-0.000502476
-0.0013374
3.97624e-05
-0.00113063
-3.84666e-05
2.18362e-08
3.0647e-05
-1.68487e-05
-8.63848e-09
6.02176e-08
2.58627e-09
-0.00219099
-0.00196726
13.243
-8.18409e-06
0.0121335
-8.98093e-05
-0.0054659
9.1664e-09
-4.22098e-08
3.68991e-05
4.81848e-10
-0.000966891
3.81725e-05
-6.92335e-05
-3.03073e-08
-8.91259e-10
-3.39022e-05
-0.0119546
1.6756e-08
-2.55955e-09
8.12547e-05
0.00368826
-3.19345e-05
1.21355e-05
-1.72635e-05
-1.81405e-06
3.99184e-05
-3.14857e-05
-1.1561e-05
-9.59587e-10
-5.6282e-09
8.87689e-05
-1.96067e-05
1.19721e-09
7.7026e-10
1.72639e-06
-5.14699e-08
-0.000352471
2.00703e-06
6.03905e-05
5.31615e-06
-7.97204e-05
0.000108777
-7.60171e-06
-7.00139e-08
4.12301e-06
1.55158e-05
1.56316e-06
-0.000638482
2.34588e-05
2.83575e-10
1.42952e-09
-3.89823e-08
1.64258e-09
-0.000206742
1.01668e-06
-0.000418495
-1.74555e-09
0.00129672
6.433e-06
6.57436e-09
3.10772e-10
-1.35509e-06
-2.42092e-10
3.94826e-09
-1.41363e-08
5.87247e-06
0.000171741
-1.15981e-05
4.57189e-09
-4.70001e-08
-2.55185e-09
-0.000937486
-0.000160589
-4.01872e-05
-6.49434e-06
9.28039e-05
1.92403e-10
-5.67531e-09
-0.0121016
1.80752e-08
-8.70908e-07
-0.00473292
1.01062e-06
0.000958228
2.87277e-06
-5.00176e-06
1.31368e-06
-1.04935e-05
-9.64209e-09
-1.02371e-07
-0.00115215
-9.71957e-08
9.54475e-06
-5.55003e-09
2.17589e-06
3.13046e-05
4.53438e-10
-0.00107648
-0.000145889
1.08187e-11
3.56699e-06
-2.86079e-05
0.00211896
-1.26553e-06
-0.000412991
0.000351986
0.00112924
-1.96566e-09
8.81856e-06
-5.28712
2.77458e-08
5.3085e-05
-0.00338147
2.77539e-06
-1.72617e-08
-2.34922e-05
-5.55946e-08
4.57477e-09
-3.41876e-06
-2.98484e-08
2.165e-05
1.93753e-06
0.000788176
2.07994e-05
1.88368e-08
-1.67315e-05
-6.53099e-07
-1.60032e-05
-5.19811e-06
4.77599e-05
2.87329e-05
-1.08278e-09
-0.00375851
-0.00147152
-0.892939
-0.0183316
1.85565e-05
0.00236215
0.000144174
-2.86199e-08
4.22777e-12
8.2458e-06
-0.0246652
0.00051482
0.000283708
-1.9875
9.48419e-07
4.49227e-07
2.43034e-07
8.42132e-06
7.2292e-08
9.29124e-06
-3.22012e-07
6.96949e-07
1.45219e-06
-0.0514328
5.65333e-09
1.65852e-05
-0.002764
-5.48165e-05
4.91607e-09
3.12684e-05
7.14701e-08
-1.34854e-05
-7.75719e-07
-0.00129683
-0.000131109
-8.13567e-06
-8.08207e-06
-6.10635e-05
-1.01657e-10
-0.00533742
0.000122428
-2.5888e-08
0.000246134
-8.87926e-08
-3.24273e-06
4.54544e-08
0.000710271
-0.000454944
-2.30193e-05
-2.38598e-05
-0.00021648
0.00930788
-8.30504e-09
-2.64723e-09
4.98487e-08
-1.92711e-08
0.000251212
0.00067483
-9.96257e-10
0.000219291
1.02211e-05
1.31997e-06
-2.10511e-11
2.67349e-10
-5.65344e-05
0.0079389
0.00103521
0.00151262
5.89653e-05
-0.000142523
1.44954e-10
-0.00130482
2.57817e-05
-5.36768e-05
-6.60007e-07
2.69869e-08
6.28463e-06
5.15221e-10
-1.1508e-08
2.32857e-06
1.11757e-05
6.34361e-06
-1.73574e-05
-0.00120226
4.77807e-10
-1.03896e-09
-1.63588e-05
0.000278398
-0.00105064
1.00821e-07
9.81487e-10
-1.70343e-05
4.86269e-05
1.0544e-08
-1.20332e-09
1.30463e-08
9.63457e-10
9.49804e-10
1.56779e-05
-1.63947e-05
2.96058e-06
-5.50477e-09
9.63069e-06
2.86055e-05
-7.16816e-06
-1.25064e-10
-5.78413e-05
5.20502e-08
-2.47233e-08
-9.83526e-05
3.17196e-05
6.79511e-06
-0.000107165
5.60127e-06
-1.60759e-09
-0.000148246
1.56945e-08
7.75366e-06
2.14554e-05
2.24486e-08
-6.29169e-08
-6.49101e-09
3.84281e-05
2.41806e-10
0.00126743
-0.000662731
1.40339e-09
0.346607
-1.20956e-09
7.09818e-05
3.071e-09
1.64794e-06
-1.64798e-09
2.65764e-05
0.000338295
0.000198582
-9.10547e-11
2.88091e-06
2.65179e-05
6.59116e-11
-1.26364e-05
1.48931e-07
-5.71666e-07
9.05619e-10
-0.000230635
-9.80319e-06
-2.31812e-05
-5.29491e-08
7.88078e-09
-2.97482e-05
0.00290492
0.0135347
0.123748
-6.86905e-10
-0.00265102
2.48331e-05
-2.62442e-08
-3.15441e-06
-7.20068e-07
-1.00321e-05
1.68527e-08
-9.74065e-09
1.34872e-08
0.000304084
3.28422e-08
0.000158395
-0.000441757
0.00194366
0.00414285
-2.23935e-05
4.00021e-05
2.88953e-05
1.69144e-05
6.43558e-05
7.74514e-10
1.10826e-05
1.3497e-08
2.54543e-06
4.54678e-08
-0.000743875
7.49399e-11
1.5615e-06
6.84309e-06
5.69332e-07
-5.96223e-08
1.63815
-5.15493e-06
-2.64334e-09
0.000340032
1.75196e-06
-3.77625e-08
-6.36645e-05
2.27107e-08
-1.60924e-05
1.77706e-08
0.000100375
0.000101142
0.00186475
-0.00051196
-1.93869e-07
1.51388e-08
3.88882e-12
0.000233452
-5.42202e-08
-1.05087e-06
-2.49281e-05
-7.69971e-08
0.000466145
-2.68308e-05
-1.79992e-08
-0.141442
-2.85452e-06
7.12683e-10
9.83454e-09
-3.68954e-06
1.42542e-05
6.79041e-08
-1.0432e-11
-0.000117456
0.00439624
3.08219e-05
4.36917e-05
8.39691e-08
5.17203e-09
-6.49996e-11
9.15722e-06
4.23828e-05
-0.000299967
-0.00265447
2.6543e-08
-0.00667811
2.46106e-05
0.000394986
0.000648183
-6.50226e-06
1.37868e-08
1.22341e-09
-0.000488574
0.000428118
-0.108535
-0.0215623
-0.000522741
-3.88639e-05
-2.1912e-05
4.10089e-05
-5.59885e-06
2.73461e-05
-3.42004e-05
1.97858e-05
-5.99879e-09
0.00509007
0.000998134
-0.000189058
-1.01701e-05
7.6758e-06
4.31121e-10
-0.000289329
-0.00018193
3.76201e-05
-1.8581e-05
2.04383e-08
-4.00064e-06
4.48583e-06
-0.00118872
1.45844e-05
-1.47831e-05
-4.48871e-05
0.0018196
2.60577e-05
-2.11332e-05
1.01978e-09
-4.57587e-09
7.89477e-05
-6.40731e-07
3.04169e-11
7.54476e-05
4.29336e-08
0.000913944
-0.0139999
3.68164e-05
0.000171386
0.00216264
-1.77496e-05
0.000111175
0.00147918
-2.09235e-08
1.18389e-05
1.11761e-05
-4.05898e-09
-4.97407e-08
5.21583e-07
0.000636001
2.71936e-05
0.0623869
0.00102761
2.61782e-05
-1.87036e-08
-6.55604e-08
1.10024e-07
-9.35914e-08
0.00100781
-6.02461e-06
9.12861e-06
0.000456212
8.42729e-05
9.12019e-08
4.84991e-10
5.19077e-10
-0.0002309
-2.82203e-05
-4.04483e-07
0.000105379
-0.00250593
-0.010306
6.54611e-09
1.78411e-06
-1.12048e-07
-1.48206e-09
-1.51059e-07
-1.94474e-05
2.50417e-10
2.99734e-06
4.64353e-10
9.36431e-06
-7.68665e-10
0.000131293
1.75417
-1.11166e-07
2.46248e-08
0.000121614
2.93493e-05
2.72943e-05
-2.10649e-05
1.7676e-08
0.000152793
-6.59697e-09
1.6739e-05
-3.7897e-09
2.73601e-09
-1.7933e-05
4.68465e-09
-0.000135206
7.9736e-05
-6.38374e-12
-6.1629e-08
-1.4222e-05
-0.00122927
-0.00101136
5.30141e-09
5.30461e-07
1.00852e-09
0.0801372
1.44994e-05
1.0012e-11
9.42077e-07
2.12725e-05
2.55561e-06
5.39582e-06
1.55175e-08
-2.50446e-05
3.1249e-05
3.10778e-06
-1.51892e-05
1.23589e-08
3.54626e-05
-0.00543884
-0.00104928
0.000114139
2.05257e-06
0.00640974
3.77702e-06
3.84469e-06
-3.42691e-06
0.000150522
-8.20771e-10
2.984e-08
-1.57693e-06
7.45192e-12
-0.00358215
0.000108052
0.00122325
-0.000119493
-0.000911491
0.764568
1.28086e-05
2.3478e-05
-4.5591e-06
0.000533715
0.00241043
1.63585e-10
-1.389e-08
1.04334e-09
-1.16153e-07
1.66661e-05
-2.79147e-10
-1.17666e-08
-7.54682e-05
-0.0030692
-0.000399697
-5.12973e-06
-0.00095767
-1.54662e-05
1.8557e-09
8.11173e-08
-3.33397e-10
1.05594e-05
-2.61711e-05
-8.14523e-06
0.0341282
1.66964e-09
-1.12002e-07
1.2279e-05
-1.61687e-09
-5.72607e-05
4.99411e-06
4.26458e-05
-1.18854e-05
-1.95555e-08
-2.22147e-08
1.68331e-06
8.16125e-06
0.000737146
-6.35706e-08
9.59514e-10
-5.82399e-12
1.76124e-08
1.92067e-05
4.63786e-06
-9.0927e-05
3.43811e-06
-3.55718e-09
-0.00141435
-8.14777e-09
-2.91638e-09
-4.81774e-06
-7.76111e-09
-4.09099e-08
5.27917e-06
-6.72536e-10
-0.00092739
7.79334e-06
7.01917e-05
-0.00169908
-2.62277e-05
2.91468e-05
-1.20826e-07
3.19214e-05
-0.00150079
7.41863e-08
-5.17895e-09
-1.15287e-05
-0.000268804
-4.26259e-06
4.84932e-07
-5.81184e-12
0.0200286
3.92788e-09
1.83639e-08
8.36685e-06
-0.000177277
-4.40368e-05
-3.42465e-05
-4.32127e-08
-9.76521e-11
2.90984e-09
-8.20383e-08
5.94354e-13
-1.05265e-05
9.27094e-09
0.000394378
-1.10983e-06
-1.03562e-09
-2.86067e-08
-1.65155e-06
7.86987e-08
0.00341388
-3.22295e-05
-7.99732e-09
0.000503623
5.52565e-10
2.75231e-05
-0.0069633
1.47537e-05
0.00274725
-2.87195e-07
2.91988e-07
-0.00144844
0.000489329
1.29024e-09
-0.000321612
0.00276298
-0.00290024
4.01709e-05
4.4512e-05
2.69645e-09
0.000982766
1.3047e-07
-0.0015897
-1.1901e-09
-8.03032e-10
0.00492442
-0.000740286
-2.1472e-09
5.79713e-08
-5.10306e-10
-0.143174
2.26989e-06
-7.18331e-08
-1.81887e-05
0.0231894
2.23556e-06
4.11186e-10
2.29164e-05
-5.49596e-08
-7.57144e-11
0.000226201
-2.62202e-08
8.66746e-09
6.67882e-06
-4.1574e-08
-7.4546e-08
-2.16484e-05
2.25204e-07
-1.08295e-09
2.52047e-05
-0.000463429
-6.49628e-10
-8.64408e-11
-9.84957e-05
9.18156e-10
-9.20227e-06
-3.59693e-05
-1.72565e-06
-2.67464e-05
-1.51163e-09
-1.38308e-05
-1.20867e-05
2.12635e-05
5.74991e-08
0.00285497
-5.39724e-07
-1.04317e-07
0.154356
6.98335e-06
1.94262e-07
-3.86145e-05
-0.000348774
-2.15565e-07
-4.06822e-09
7.69863e-07
1.25713e-08
-2.43693e-08
-3.39482e-05
1.10342e-11
8.5897e-11
0.000206176
0.230392
3.36962e-05
3.54646e-06
3.57651e-06
-2.85145e-09
5.53489e-06
0.00419143
3.80749e-07
3.46756e-05
-0.00101983
-0.00011212
4.16931e-05
2.12095e-05
7.07707e-07
-0.00230536
-0.000792536
0.00243675
-7.02317e-08
0.00394347
0.00513761
0.0899119
2.80213e-09
0.000565126
1.95696e-05
-0.000133746
7.97171e-08
-3.38618e-06
1.28217e-05
-5.52497e-05
-1.64357e-09
-0.00661965
1.91763e-06
1.11637e-05
-3.63727e-06
-1.85688e-09
2.20053e-08
-0.00178305
-7.49219e-05
-5.15976e-05
6.98101e-08
8.41153e-07
-1.32852e-10
-0.0247365
6.04992e-08
7.22086e-08
3.85535e-05
-9.08831e-10
-2.37e-06
-4.39005e-08
0.000807599
-0.000109648
5.89392e-06
2.10774e-05
5.28829e-09
4.50154e-10
1.934e-05
3.50021e-05
-9.80911e-09
3.97153e-10
-1.34512e-08
3.09499e-05
0.000805953
0.000154288
-2.79115e-05
4.88701e-08
-1.44548e-08
-7.57157e-06
0.00782663
2.73029e-06
-7.05371e-08
3.29404e-05
0.000879399
-5.65758e-08
4.2363e-10
5.60501e-08
-0.00194323
0.00751003
1.23977e-05
2.07693e-10
-2.33271e-05
-6.33006e-06
1.59666e-08
-9.30327e-09
1.3982e-05
1.20884e-09
4.7975e-05
-0.00142866
3.07514e-08
-4.04762e-08
2.88862e-09
7.06434e-09
2.32658e-08
3.42775e-10
-2.43418e-05
2.12125e-05
-5.68251e-07
1.73776e-05
-2.80077e-08
-2.871e-09
6.45209e-09
4.40745e-05
-0.00866724
-1.74641e-06
6.24717e-08
1.65542e-08
4.77874e-06
1.5255e-08
-3.64337e-06
1.43303e-07
3.30953e-05
0.00422094
7.64423e-06
-8.73368e-08
-2.12166e-09
-4.47519e-06
1.50585e-05
-6.30726e-08
-5.91329e-08
1.22131e-09
0.000612752
4.89718e-08
-5.60019e-08
1.30769e-08
7.85228e-10
8.67003e-06
-4.56324e-08
-2.10267e-10
-0.00684745
1.06441e-05
0.00572401
-1.22265e-05
0.000698394
-8.0343e-10
0.000961101
-0.000129723
0.118491
-5.95595e-08
9.16001e-06
0.000394114
-5.01959e-08
1.16147e-05
0.00318854
-4.50691e-11
-0.000271699
-0.000341398
-1.10449e-07
5.68725e-05
8.22165e-09
2.29942e-08
-3.36071e-05
2.57961e-05
1.64491e-07
-2.40469e-06
0.00102253
-5.79185e-10
-1.08709e-07
-1.63646e-06
-0.0166478
0.00464952
-1.49149e-10
-2.72875e-05
2.00992e-08
4.32783e-06
5.54892e-06
-3.34191e-05
-0.00288119
-2.18973e-09
6.43632e-07
5.19393e-09
-0.00112105
3.39938e-09
2.28749e-06
-0.00785114
8.44098e-09
5.47567e-11
-4.25439e-08
4.59282e-05
-0.00164392
9.09346e-08
4.80773e-10
2.0706e-06
7.36685e-10
0.0430165
0.0144433
-7.52431e-11
-1.20221e-10
2.06051e-05
1.02378e-07
-2.82224e-05
-0.677337
-3.12838e-08
-7.58147e-08
-1.12865e-05
-1.36979e-08
-0.000134655
-2.3178e-05
-0.000320695
1.84422e-08
-5.88624e-11
4.22071e-06
-6.41845e-08
-4.36227e-08
5.29227e-06
2.36353e-07
1.26276e-09
-0.0793202
1.67921e-09
-7.40114e-08
-2.81117e-08
1.20228e-05
2.79472e-06
1.64332e-08
-4.86967e-08
-5.47426e-06
1.8528e-08
-5.6985e-05
4.58414e-09
-0.00622345
1.411e-08
9.59251e-07
1.31215e-07
-0.000900361
1.71155e-06
4.59929e-10
7.90348e-07
1.48854e-06
-4.97297e-08
-2.80207e-06
-0.00132535
-3.03512e-08
-3.12054e-09
4.68825e-07
0.088801
6.73904e-09
-4.07064e-05
1.819e-09
-0.00205685
1.51178e-05
-1.02916e-11
2.31963e-05
4.81049e-09
1.30765e-05
-0.00120555
-3.29317e-05
-4.17233e-07
-5.83255e-05
-9.26996e-10
-2.91496e-05
-1.27639e-07
3.23749e-08
1.9765e-05
-4.0138e-06
-0.00411928
-2.62743e-05
-1.63258e-05
-0.0129533
2.93093e-05
4.2138e-06
-4.83065e-08
1.7265e-05
0.000680507
-1.38825e-06
0.0355126
-0.000661315
6.52681e-11
-0.000651901
-8.40526e-06
0.000142019
1.0149e-05
0.0305137
-4.08711e-09
-0.046746
1.02748e-07
-0.00155393
-1.49654e-09
-1.24117e-05
5.81214e-10
9.71076e-06
-2.84251e-07
-0.000438823
2.00327e-05
2.95268e-05
-0.00100608
-9.32959e-10
5.74911e-06
7.70159e-05
-0.00395844
-2.36582e-13
0.000210785
5.41864e-09
1.30387e-05
-0.00183587
2.07236e-05
-2.32456e-05
4.0598e-12
8.44806e-06
4.32407e-06
-5.71026e-05
5.24926e-06
2.68161e-05
-0.00198493
1.52973e-11
0.00301348
-2.87004e-05
1.34032e-06
6.22185e-05
-9.21337e-11
8.11264e-09
-4.82159e-08
-1.59742e-10
-2.62793e-08
0.0763198
4.05801e-06
-2.67344e-05
-2.33925e-05
-1.61525e-07
-1.2658e-07
1.08255e-06
0.00580533
5.02444e-09
-0.000436274
-0.00010643
-0.0120848
1.58188e-05
-4.18223e-06
8.344e-06
-0.000200035
-4.11621e-10
-9.28605e-08
-0.000212342
2.97502e-09
3.02016e-05
1.38369e-10
1.80534e-11
-2.25424e-05
-9.26105e-07
-0.000907056
4.51736e-06
-4.55397e-05
-1.13213e-09
5.78669e-10
-6.08233e-08
3.2489e-06
7.92795e-05
-6.74095e-06
9.81148e-10
-2.45362e-08
5.88943e-09
1.61374e-08
-9.71246e-09
-9.42488e-09
2.20833e-10
-6.44052e-08
0.00027708
7.59996e-10
3.81153e-09
-0.000415264
5.88528e-06
-1.48577e-08
5.77633e-07
-2.22875e-08
-3.92244e-08
1.12748e-05
0.0507757
2.24078e-08
3.56596e-06
1.28424e-05
0.00206503
2.15411e-10
0.00378067
0.00167137
-0.0014184
2.87601e-05
3.61945e-06
5.78078e-06
-0.0411497
1.19736e-08
6.32516e-08
-1.70744e-05
-0.00916023
1.594e-08
-7.49648e-10
-9.71757e-07
-0.000773451
1.87327e-05
-4.18772e-12
1.41091e-08
2.59335e-05
-0.000370584
-2.55467e-05
2.19497e-07
-1.51469e-10
-0.000130987
-2.95343e-05
-3.16707e-08
-2.14877
-1.57097
-0.000265876
-0.00213251
-6.76309e-08
5.86375e-08
0.000876613
0.00357052
-0.000168077
-8.82867e-07
-3.21299e-09
-0.000154445
-3.40064e-06
2.39367e-05
-6.36159e-10
-2.3968e-10
-0.00065106
0.000602844
-6.98471e-12
3.43377e-05
1.14418e-05
-2.86303e-09
-1.00412e-09
1.43309e-06
-6.98891e-06
-9.60301e-06
2.51563e-10
-3.90614e-09
-0.000337414
0.0185293
7.21624e-05
0.0257205
0.000170537
4.09984e-08
-8.41795e-10
-2.89874e-07
-0.00189905
3.05591e-05
2.27946e-05
-4.04989e-06
-0.0879816
4.14325e-08
-3.49132e-05
-8.97945e-05
1.89557e-05
-9.23295e-06
-6.55447e-09
1.63665e-05
0.00041872
2.81795e-05
1.0159e-06
4.0039e-11
3.26739e-06
5.75419e-07
1.88524e-05
1.80291e-06
-1.11434e-05
5.39348e-08
-8.72041e-06
2.06273e-05
2.23008e-06
-3.76354e-06
-0.000470167
1.43603e-07
2.81182e-05
3.22119e-05
-0.145948
-8.86395e-05
6.6186e-07
-1.42874e-08
2.99407e-05
-0.00093184
0.0061902
0.000248103
4.27908e-06
-0.00060904
3.07441e-05
-2.89103e-08
2.27986e-09
3.39821e-09
-1.31404e-10
-1.83184e-10
0.000624314
0.00014135
2.01609e-10
-3.50746e-08
2.94438e-05
-1.75786e-09
0.0001063
-2.1024e-06
0.000376424
0.000198213
-4.40123e-09
-6.89045e-05
3.30341e-08
8.49476e-06
-1.13837e-09
1.22953e-05
-2.38238e-05
-0.00206981
4.44412e-06
6.53222e-07
1.86133e-05
-7.43964e-06
-8.90441e-06
1.01133e-06
-0.623787
5.59953e-06
-1.04915e-06
2.99534e-05
6.00514e-08
-1.23216e-05
-4.88032e-08
-7.47273e-12
-4.05296e-05
0.000679387
5.02406e-06
-5.16529e-09
1.85308e-07
-3.741e-10
0.00019915
0.000254894
5.40064e-08
4.69807e-10
-0.00117197
1.82791e-08
-1.24047e-09
-7.03454e-10
-0.000785343
-0.40357
-2.23914e-05
5.18996e-09
0.00588538
-1.2451e-09
-2.82976e-08
-2.34397e-06
3.64245e-09
-4.78601e-06
1.38765e-05
4.55622e-08
-3.46175e-07
2.2089e-09
-4.31982e-09
-1.94243e-10
0.0016116
0.000740152
4.01987e-08
-1.36476e-09
4.37065e-08
3.21221e-05
-0.000808179
-3.93293e-05
5.03765e-09
3.10856e-08
-9.90774e-05
-1.05742e-05
-3.68027e-06
1.15968e-12
8.3974e-10
8.15423e-06
-1.53204e-05
5.96546e-08
-2.67168e-06
-2.76952e-05
6.16178e-08
1.39774e-07
1.85039e-10
-4.43096e-05
1.59215e-09
2.09316e-09
0.0451257
-2.76068e-09
-9.56488e-08
3.33725e-10
1.21509e-09
-2.23425e-08
3.58003e-12
3.28464e-05
0.00114466
4.46418e-05
-0.000957285
2.26018e-06
0.00119345
-0.00109186
-1.76938e-08
-4.33529e-05
0.0773609
-4.99301e-11
1.56977e-05
-0.0153753
-0.00131328
-3.37357e-05
1.35994e-05
2.94982e-06
-5.89338e-11
0.00070791
9.22688e-06
-0.0118428
2.38654e-06
1.9977e-05
5.27662e-06
1.3755e-08
1.25827e-05
-4.22832e-06
-2.3944e-06
3.91083e-06
-2.93717e-05
-1.71834e-05
-0.00115166
-0.00631844
-2.23359e-05
0.000150428
0.000344892
-3.39504e-09
2.56177e-06
-2.55277e-12
9.59941e-06
-17.4431
1.06004e-05
1.9861e-05
-7.14024e-05
-0.000961641
-8.26516e-10
0.000375497
-0.00319545
-4.79742e-10
2.63873e-05
-6.5798e-12
3.02955e-06
-6.20675e-09
-1.21935e-05
-0.00435182
-1.2484e-10
-1.09668e-07
1.3487e-05
4.43905e-08
0.0163511
6.52923e-08
0.000351872
-1.3887e-09
-0.00205287
-9.37245e-10
6.13713e-08
4.24326e-06
-3.47389e-06
5.60539e-05
0.000313141
1.83569e-06
2.22712e-09
2.68109e-06
1.33071e-08
-5.38939e-08
0.000126863
4.58614e-06
-2.21157e-05
3.67666e-06
-5.34071e-11
-9.56734e-05
0.00015252
-1.25231e-10
4.56442e-10
-3.14076e-06
-7.18686e-05
1.06015
5.51405e-06
1.18088e-05
1.53601e-05
-6.69127e-12
2.90343e-05
3.18989e-05
7.14127e-08
2.41899e-05
0.00570488
0.00120822
-0.312352
2.35977e-06
2.60847e-09
-6.78319e-09
4.32039e-08
3.04313e-09
9.07928e-06
2.74816e-13
0.00202497
-5.0837e-11
1.82618e-05
-0.00124106
2.31777e-06
-3.1051e-05
-4.07534e-07
1.24806e-06
-6.39019e-11
-0.00191052
-1.33927e-06
-3.31187e-06
8.56929e-08
-8.31349e-09
-0.00327199
-8.50925e-06
1.8471e-05
0.000103674
-1.4244e-08
-1.58382e-08
-0.0681081
0.196838
-9.50217e-10
1.41502e-06
2.09548e-05
-2.92438e-10
1.17597e-05
-0.000549206
1.71643e-05
9.34463e-05
3.28746e-05
1.26529e-05
4.52307e-08
-4.03132e-05
-1.50969e-05
1.53621e-09
-0.00576069
3.45535e-05
8.47346e-08
1.20954e-06
3.2967e-05
1.17647e-06
-0.000607387
1.45255e-08
-0.000635348
4.38277e-08
0.00168692
-8.49115e-08
-2.59963e-06
-6.33037e-08
1.66064e-05
-2.38087e-05
-1.87874e-05
-7.11997e-05
2.10752
-1.25489e-05
8.04612e-06
3.80821e-08
6.03507e-08
-1.49328e-09
1.58438e-06
1.13577e-08
-3.53754e-06
-1.32376e-08
-2.3649e-08
1.10255e-05
1.3126e-07
7.63012e-10
2.79542e-11
-11.4509
-3.40446e-08
-1.14704e-05
-5.75737e-09
0.00430426
1.17316e-05
0.000113114
-6.9801e-10
-3.23427e-05
-5.4483e-09
-1.02246e-08
1.51142e-10
0.00013173
7.60421e-09
0.0482627
-2.30001e-10
-4.27378e-06
7.47988e-06
1.54086e-07
-1.49696e-05
1.76762e-05
1.16931e-05
6.987e-08
4.134e-05
0.000561338
0.00116422
1.10006e-07
-3.67895e-09
-0.0015586
-7.97137e-06
-1.65248e-07
0.000533875
-0.00124713
-5.74467e-08
0.0175996
5.58065e-09
-9.7706e-05
3.10728e-09
-4.8318e-10
3.81171e-09
4.33636e-09
-0.000592339
7.13523e-09
1.63566e-06
0.00152665
-0.000145551
0.00711052
1.53665e-05
-0.000315556
-4.29671e-10
0.00466826
-0.138016
-9.28583e-10
-0.000464758
1.46922e-08
-1.43004e-05
5.21879e-06
0.00248162
1.58175e-08
0.0580068
-1.98124e-11
0.000543054
1.35245e-06
4.15379e-05
2.98504e-05
-2.20491e-06
-9.16868e-05
-2.43451e-05
-1.33439e-09
0.000117913
1.83201e-05
9.59678e-05
5.44397e-06
-1.33459e-05
-9.81323e-10
-0.00062264
-6.5089e-11
2.466e-08
-5.06342e-09
0.00150222
1.9575e-09
2.4951e-05
0.000104971
-6.93363e-05
-1.26795e-05
-0.00118483
1.56522e-05
-1.19546e-05
2.72943e-08
2.64674e-12
2.15493e-09
1.59828e-08
-3.60115e-08
0.00138887
9.9085e-06
6.54582e-10
-2.3073e-11
6.56495e-07
-5.91625e-05
1.24566e-05
4.54603e-05
-0.000382875
5.35247
0.000312249
0.005889
-1.59709e-05
2.32298e-08
-1.06565e-09
-0.000244831
0.000173187
7.51885e-09
0.00520444
-0.000829586
-5.05606e-05
1.90726e-08
0.00147281
3.59838e-05
4.1024e-08
2.00829e-06
-7.11873e-09
-9.80353e-09
-8.18704e-06
-9.9213e-06
1.06718e-05
-7.60071e-08
1.18795e-09
-2.83426e-05
-8.32912e-09
9.96283e-06
-4.82877e-06
5.47361e-08
9.58161e-06
1.019e-07
0.000262745
2.17498e-08
2.37987e-09
8.02706e-09
-1.66787e-05
0.0783897
-2.37711e-10
0.000134111
-0.00244222
-1.59483e-09
-1.16909e-09
1.56042e-07
1.52714e-05
1.06252e-05
-7.25918e-06
-2.35646e-08
-8.18826e-10
-0.000649537
0.00971777
-7.48369e-06
6.54323e-06
-3.90244e-09
-1.31493e-08
-0.000180651
4.55542e-08
-2.24685e-06
-0.000273245
1.49896e-12
3.29789e-05
1.12278e-09
-3.67737e-06
-3.6788e-05
3.55223e-06
9.17409e-06
-1.45141e-08
-1.75917e-05
-1.87344e-06
-0.00278311
-0.000369214
-4.73756e-05
1.28321e-09
-7.161e-08
-0.0025687
-0.000337032
-7.91917e-06
-1.78568e-05
9.18917e-08
-7.59739e-08
-5.80503e-11
6.87485e-06
-8.75019e-07
-0.000666447
-8.53575e-05
-1.37862e-07
2.35903e-05
5.14655e-06
-6.11593e-08
-1.90842e-05
-3.61396e-06
1.16418e-09
1.91773e-09
-3.1256e-05
-1.32119e-09
-0.00152903
-0.000238524
-1.61549e-11
3.37126e-05
-0.00897926
1.3315e-07
4.32352e-06
-1.44549e-09
-4.53313e-09
-6.05578e-07
0.000296467
-0.00604279
8.45193e-05
-5.37174e-07
-5.03724e-10
7.62037e-05
-4.18476e-11
9.43419e-06
3.57298e-08
0.000289636
-3.00622e-05
1.82598
0.000195284
-8.60908e-05
2.35135e-10
5.56177e-05
2.42289e-05
1.31922e-05
3.0052e-05
-0.000110478
7.44576e-08
2.54526e-05
5.42283e-05
-0.047755
-0.000322566
4.29259e-05
1.14782e-05
1.10076e-05
8.12319e-05
4.4624e-06
-5.5535e-08
2.44968e-05
-2.28816e-06
0.00570016
-1.22787e-08
-0.00291992
-6.34075e-06
5.88578e-09
3.2762e-09
0.000251657
9.95586e-08
-0.0160646
-2.12671e-06
-8.4624e-05
0.0752978
-2.74335e-05
-1.01815e-07
0.00117034
8.27728e-06
-7.81995e-09
-6.14707e-05
0.030244
-6.37353
4.43149e-08
0.00133776
-1.66756e-09
4.76521e-05
-9.70974e-10
2.2222e-06
-2.24963e-10
-1.38498e-07
4.40508e-12
-2.637e-06
0.0123756
2.01357e-05
7.37241e-06
6.27685e-05
-7.75511e-09
-0.00063856
-3.09204e-05
5.7673e-06
-1.61922e-05
1.38214e-05
9.32619e-09
6.08339e-10
0.0162754
-4.10662e-08
6.41789e-06
7.0649e-06
0.00498669
1.8066e-06
-2.52892e-06
8.04071e-05
-6.78965e-05
1.13738e-08
-7.37493e-05
-2.00498e-05
6.13836e-07
6.88682e-08
2.6341e-05
1.94975e-10
-3.07762e-11
2.21994e-09
4.15359e-06
-1.38197e-09
-1.25731e-07
-0.000821523
1.02587e-08
-2.0692e-09
-5.22315e-08
2.0123e-11
-9.02118e-08
-1.74972e-09
1.16556e-06
8.37852e-06
3.11872e-05
-7.21017e-10
0.0803636
-0.00135194
-2.20078e-09
4.89783e-06
-6.68547e-08
6.75122e-08
1.70294e-07
-0.000368866
-3.75196e-06
1.83377e-07
-0.00194625
2.33862e-09
-8.16551e-05
-2.99113e-05
6.54568e-06
6.49622e-10
-3.57435e-06
-1.13616e-05
4.9582
-2.30231e-05
3.9315e-10
0.00810307
2.082e-05
-1.64218e-08
-0.000849801
4.40552e-09
-1.03114e-05
-0.0948804
-4.21117e-06
0.163017
-1.43382e-09
3.18663
-1.29577e-05
0.00133194
-1.51784e-05
-9.78908e-10
2.48138e-09
-4.58485e-07
3.41096e-08
-1.50622e-05
1.37933e-06
-8.30423e-06
7.49443e-05
-1.66325e-08
3.46046e-05
-1.2723e-11
3.31144e-05
-3.49718e-05
0.00140918
0.120501
1.00051e-09
-2.80387e-09
1.63605e-06
1.03558e-05
1.02028e-06
-0.000391752
5.55613e-05
3.7781e-09
0.0509591
0.000799567
5.35133e-10
5.50127e-10
4.27321e-07
5.39613e-11
-1.90175e-06
0.000370061
9.32465e-10
-3.04785e-06
2.46137e-05
-1.14139e-09
-3.45213e-05
-5.39473e-06
1.94114e-05
-6.16383e-06
-2.6215e-09
0.000656463
-1.10057e-10
2.69478e-06
2.58167e-09
-0.000127782
1.25347e-08
1.1215e-05
-1.07745e-09
4.7063e-05
-2.41094e-07
-3.71789e-08
-1.78472e-11
-2.89551e-06
0.00817356
-0.0010859
5.71634e-06
0.000429452
-2.60723e-09
2.03766e-10
-8.07592e-06
-4.85433e-05
0.00439939
-0.000452782
3.6878e-07
4.45962e-06
3.7124e-05
5.70695e-12
-2.86533e-06
-5.70323e-08
0.000201414
3.97143e-08
8.9244e-10
-7.80038e-09
-8.18134e-08
0.000183828
0.000159486
0.0160251
-0.0015649
2.91109e-05
8.1092e-06
5.67211e-09
-3.78316e-09
-8.42875e-10
-0.0025678
2.96158e-10
5.78219e-05
2.55634e-11
-3.23727e-07
3.38043e-06
1.27081e-05
7.92022e-06
7.57819e-06
1.26422e-06
2.07245e-09
0.00241243
0.0967198
-5.52874e-06
-0.000227982
-1.92634e-08
-6.06794e-08
2.87292e-06
2.15612e-08
-1.76562e-06
-1.39156e-09
0.000531828
-8.38337e-09
-5.27825e-05
-5.96259e-08
1.02789e-09
-5.07271e-06
-6.76215e-06
-4.10412e-05
2.56528e-09
-7.76724e-08
0.000322788
-1.16707e-06
-3.51279e-05
0.0169201
-2.44134e-09
-9.78029e-06
-0.0447612
2.17538e-05
-1.50467e-05
2.99103e-05
-0.00147233
0.00381499
9.01451e-06
-1.42838e-05
0.0149067
8.39206e-06
0.000667878
3.33152e-07
0.000342442
-1.19305e-08
-0.000494973
-8.82648e-10
3.22537e-08
4.20697e-05
0.000186162
9.49624e-06
2.6644e-08
1.99214e-05
0.00100336
6.44198e-06
-0.000150019
0.000346952
2.85664e-09
-2.87954e-06
4.57165e-05
-5.42301e-05
-2.71639e-05
6.24888e-08
3.59543e-08
1.12823e-05
-0.000684071
-7.42443e-06
-0.00433968
-0.00164689
6.51783e-06
5.53444e-05
-1.0668e-07
-2.32662e-06
7.16305e-10
2.92789e-08
-8.45626e-05
-5.24861e-09
-3.0475e-08
-7.70516e-08
2.70876e-07
0.000826848
0.000390878
0.000106135
-1.87832e-05
0.00173664
-1.32911e-07
-1.92021e-05
5.51549e-08
3.27567e-09
-4.47425e-06
-0.00564745
-5.89029e-11
2.43889e-09
-0.000108103
0.00458036
-2.73043e-09
3.71302e-05
-0.0354358
0.00219619
-1.04698e-07
0.00110312
7.19165e-09
2.1645e-07
-2.51214e-06
-3.84952e-09
0.00401787
-0.000228124
-2.14479e-09
-0.000960808
6.42745e-06
-9.61547e-09
-4.41538e-10
-6.67234e-08
2.0359e-11
-5.56461e-09
2.60051e-05
-1.58514e-09
9.56796e-05
1.42898e-05
-8.12644e-10
5.46864e-06
4.05931e-09
-5.78201e-06
0.000766761
-1.59324e-06
1.4138e-05
1.26885e-05
-7.6627e-06
-7.85754e-06
3.86244e-11
1.10228e-05
7.18316e-08
-0.000400989
-0.0761094
0.000532212
2.20789e-05
-2.61653e-05
-0.840153
4.47869e-05
-2.35693e-09
0.000461211
4.31356e-06
-8.59433e-09
2.42036e-05
1.50437e-10
-3.95502e-06
0.0252423
0.000228908
1.01539e-05
-4.52777e-06
-4.15577e-06
0.000570545
3.6906e-05
6.32055e-08
-8.95772e-05
-0.00305623
4.25074e-06
0.000587748
6.16786e-09
0.00182689
0.00328088
3.43636e-09
4.0171e-06
-4.69913e-11
6.54225e-05
0.00140874
9.07766e-06
7.53247e-10
3.92357e-10
0.000182065
0.00200297
9.12528e-10
1.01144e-07
0.0213029
-1.59831e-09
0.000240232
-0.000148135
-2.93494e-05
3.6671e-07
-0.000667437
3.64332e-05
-3.89168e-08
0.000476233
0.000270766
-3.21762e-05
-7.30976e-08
-4.87372e-09
0.000304856
-5.29671e-10
-3.89397e-06
-0.00409987
-1.63399e-06
-6.05408e-08
1.10514e-05
-3.35577e-06
1.90787e-05
-0.000243451
2.16367e-09
-9.7154e-06
2.78359e-06
6.54483e-08
-5.03716e-06
-3.48848e-05
-1.90024e-06
-0.00926565
-1.96839e-09
-6.1649e-08
1.01782e-07
-9.73651e-09
-3.908e-10
-9.31231e-12
-1.31468e-05
-4.29962e-06
1.63774e-06
1.29699e-08
-0.00188998
-1.16061e-09
2.93433e-09
1.05549e-05
-0.000859672
2.89002e-05
3.86311e-06
-1.31609e-08
-5.18238e-10
-8.78761e-05
0.00673555
0.596471
3.51202e-08
0.00085801
2.9243e-05
-2.23901e-05
1.03572e-08
0.000268372
-8.57346e-06
-1.94378e-10
2.8491e-07
-0.0031823
4.49765e-06
4.92552e-06
-6.02039e-06
-1.63005e-09
4.86511e-06
-0.000394444
-9.56734e-05
-0.000475859
-3.34329e-06
0.00187912
0.0105477
-0.000282614
6.03908e-06
-1.10815e-11
2.51808e-06
2.38776e-05
-3.88963e-06
-9.03228e-06
4.71139e-06
9.45819e-09
9.83807e-06
-1.09051e-09
-2.64484e-06
1.69439e-07
7.97919e-06
2.30648e-11
0.0149113
2.35687e-08
1.3305e-06
0.0453954
-5.63326e-08
-1.4827e-06
-1.16415e-05
1.50212e-09
-1.0983e-09
1.76078e-09
6.09459e-06
3.71086e-06
-3.2736e-08
-0.000154678
3.18752e-08
-3.12139e-05
1.22171e-05
3.32347e-06
0.00131299
-3.38331e-08
1.23816e-05
1.14819e-05
4.06002e-05
-0.00023345
-1.69409e-05
-2.67556e-05
-1.01418e-05
5.95839e-11
1.48363e-06
-3.68904e-05
8.32982e-06
-0.0114291
1.48437e-07
5.72682e-10
0.00509531
1.3644e-09
9.54817e-06
-5.20248e-10
1.26377e-05
1.8861e-07
8.3288e-06
-1.05853e-05
4.65962e-06
-0.000619959
0.0213633
1.50858e-11
2.39936e-09
-0.00199256
9.95849e-06
4.90989e-10
0.00367857
-4.62345e-06
-9.6829e-06
6.00806e-05
-1.71466e-05
4.13005e-09
-0.000177775
-8.61139e-05
1.23282e-05
-1.77534e-05
2.2251e-05
2.42543e-05
8.75006e-06
7.34943e-06
-2.16382e-05
-8.972e-10
-1.26225e-07
8.27424e-10
1.56123e-05
1.50352e-05
-1.68813e-10
2.095e-08
1.15715e-05
-4.13666e-06
0.000118008
-0.000838157
0.000308261
-1.95004e-05
-0.000938309
0.00290187
4.36577e-09
1.34064e-05
7.46542e-06
2.69794e-06
4.55503e-09
9.92198e-06
8.0119e-09
-1.06788e-05
6.17537e-06
3.1593e-05
8.06039e-06
-0.000542216
-1.18774e-05
0.000672061
0.000396863
-4.7477e-06
1.74765e-05
-2.37868e-08
-1.60801e-06
5.52279e-06
3.74603e-06
-0.00057397
3.78801e-09
-0.000146163
1.24038e-06
1.39834e-05
0.000106383
1.89124e-05
0.000526762
-2.53907e-10
-0.0565651
0.00414144
-4.22629e-07
1.86336e-05
3.20466e-05
-1.79373e-08
-0.00146555
7.7358e-06
-9.46272e-08
3.25833e-10
1.19288e-05
0.000306441
-0.000864806
-1.5069e-05
-5.33683e-09
1.33382e-05
-6.81347e-08
-0.000674645
6.64653e-08
-2.9989e-06
5.25946e-05
3.9974e-06
3.83177e-05
-7.2322e-05
-2.16729e-05
-8.51201e-09
7.9437e-05
9.25082e-06
1.99657e-05
6.34307e-06
-4.87434e-10
2.503e-10
-1.29614e-05
1.06729e-05
-1.75638e-05
-2.43848e-08
-0.000461531
9.84056e-11
-9.4158e-06
3.18816e-09
4.03619e-08
8.76045e-10
-2.524e-08
-3.2807e-05
-0.00134465
2.34572e-08
6.06619e-09
-7.16247e-06
-4.74583e-05
0.000220337
5.45156e-06
0.000233714
5.17879e-05
8.53713e-10
6.57776e-05
5.94559e-09
-1.41612e-05
1.50332e-05
-9.07884e-08
1.19032e-09
-2.78883e-09
2.20529e-09
-5.8754e-06
-8.26847e-08
1.51651e-09
-0.40997
-0.00569091
-1.40457e-11
3.89042e-09
-9.20753e-10
0.0188911
0.0467804
-2.48624e-07
0.0118485
4.0455e-06
-3.88805e-05
-1.95947e-05
-0.000489341
2.88818e-09
8.80396e-10
1.30843e-05
0.000335295
7.13177e-07
-9.26195e-08
0.0170275
4.97754e-05
-0.000115977
-7.76029e-06
1.09604e-05
2.51758e-05
9.70388e-10
1.25198e-05
-0.00360251
-3.96867e-07
-6.12135e-09
2.56307e-09
-9.95471e-05
9.31979e-05
0.010081
2.10392e-06
0.000455611
6.33067e-08
-3.53754e-06
7.74663e-09
5.23732e-06
-1.02836e-07
-9.89855e-06
0.0306116
0.000662226
-3.38522e-06
0.000120489
-1.08549e-08
-0.000519958
-5.76887e-05
2.47347e-09
-4.88744e-06