/*--------------------------------*- C++ -*----------------------------------*\
| =========                 |                                                 |
| \\      /  F ield         | OpenFOAM: The Open Source CFD Toolbox           |
|  \\    /   O peration     | Version:  v2012                                 |
|   \\  /    A nd           | Website:  www.openfoam.com                      |
|    \\/     M anipulation  |                                                 |
\*---------------------------------------------------------------------------*/
FoamFile
{
    version     2.0;
    format      ascii;
    class       surfaceScalarField;
    location    "300";
    object      ddtCorrDdt0(phi);
}
// * * * * * * * * * * * * * * * * * * * * * * * * * * * * * * * * * * * * * //

dimensions      [0 3 -2 0 0 0 0];
oriented        oriented;


internalField   nonuniform List<scalar> 
22717
(
1.25361e-08
-6.52646e-08
5.225e-08
-1.09252e-06
7.95837e-07
2.96694e-07
-1.43071e-07
1.43508e-07
-6.68601e-10
9.30388e-08
1.49722e-07
-2.43632e-07
2.58294e-07
-4.42766e-07
1.87454e-07
2.12447e-08
-1.98004e-08
-1.35615e-09
8.18117e-08
-1.85762e-07
1.04286e-07
1.16275e-06
9.40183e-07
-2.10526e-06
-9.17597e-08
9.72278e-08
-5.10357e-09
-5.7171e-08
6.93908e-08
-9.77202e-08
-4.56153e-08
-7.25611e-08
7.95915e-08
-1.17759e-07
3.73017e-07
2.90129e-08
-4.16002e-07
3.8721e-07
-8.66779e-08
-4.14329e-08
1.27433e-07
-6.021e-07
2.74353e-07
3.28221e-07
-1.05591e-09
-1.9277e-07
1.0696e-07
8.62063e-08
1.45728e-08
-1.10452e-08
-3.34248e-09
-9.62032e-06
1.9667e-05
-1.00325e-05
1.52446e-07
-1.33319e-07
-1.97885e-08
1.30602e-08
1.38711e-07
-8.27399e-08
1.64577e-07
-3.21321e-08
1.25956e-08
1.95794e-08
3.51495e-07
2.68024e-07
-6.21492e-07
-5.18139e-08
-3.83191e-07
4.33816e-07
3.37836e-07
-3.38055e-07
-5.29253e-07
4.77348e-07
3.47539e-07
9.57001e-08
-4.42593e-07
8.46557e-08
-1.3486e-07
5.01997e-08
2.3849e-07
-2.37867e-07
1.95785e-07
-3.48286e-07
1.52361e-07
1.83902e-09
-1.17401e-08
-4.57304e-08
-1.2854e-08
5.81787e-08
-7.1436e-08
6.05994e-08
1.04446e-08
-6.76668e-07
-1.35283e-07
8.11478e-07
-8.46379e-07
1.6914e-07
5.22736e-05
-2.31937e-05
-2.90792e-05
-6.64482e-08
1.10094e-07
-4.3666e-08
-6.39627e-07
4.05203e-07
2.32026e-07
-3.89335e-07
-2.6913e-07
6.58355e-07
1.33469e-06
-1.05266e-06
-2.82502e-07
1.56169e-08
2.22875e-08
-3.8058e-08
-5.82209e-08
-2.85658e-08
8.65078e-08
-2.31615e-07
-1.94922e-09
2.33319e-07
-1.51983e-09
-1.43924e-08
1.6037e-08
1.41422e-07
-4.27356e-06
4.12654e-06
7.07453e-07
-5.14994e-07
-1.91501e-07
4.75322e-07
-4.46188e-07
3.88359e-08
9.51671e-08
-1.34298e-07
-1.3002e-08
-1.89985e-08
4.27533e-08
-2.77496e-07
2.33807e-07
1.28345e-06
-1.88521e-06
7.74e-09
-8.33979e-08
6.37195e-08
1.91982e-08
8.39494e-08
1.42872e-07
-2.26576e-07
7.47745e-07
-2.07017e-08
-7.2816e-07
2.76335e-07
-2.33842e-07
-5.53263e-07
-5.18847e-07
1.07179e-06
1.13797e-07
-7.54985e-08
-3.89775e-08
-1.06114e-07
-1.45916e-07
2.51524e-07
5.46482e-07
1.61081e-07
-2.71657e-07
2.38691e-07
3.24432e-08
1.553e-07
-1.44914e-07
-1.0001e-08
-4.47527e-08
2.71633e-08
1.71905e-08
-8.19654e-08
9.13813e-09
-8.17055e-07
-2.05933e-08
8.36991e-07
3.6619e-07
-1.70812e-07
-9.38893e-09
-3.7901e-09
1.33598e-08
-2.18099e-09
-7.25786e-09
9.33365e-09
2.65299e-08
1.58069e-08
-4.22306e-08
6.3572e-08
2.95542e-08
-9.19495e-08
7.58517e-07
-4.06989e-07
3.16015e-07
-1.39099e-07
-1.76907e-07
1.79051e-07
-5.25239e-07
3.45812e-07
2.54006e-07
-2.45567e-07
-8.74546e-09
-6.59389e-07
2.69955e-07
-1.5898e-07
3.87761e-07
-2.2945e-07
1.33359e-07
-3.28468e-07
1.95695e-07
2.04448e-09
-3.47239e-10
-1.42205e-09
-2.2851e-07
-1.05848e-07
3.35357e-07
4.4308e-07
-4.3976e-07
-3.6781e-07
5.06654e-08
3.17564e-07
2.4165e-07
-1.24357e-07
-1.17813e-07
7.58493e-08
1.64638e-07
2.04558e-08
-2.18802e-08
1.57198e-09
1.30624e-08
1.65187e-07
-1.20196e-07
-4.44796e-08
-1.69724e-07
-2.03252e-08
1.89936e-07
3.57325e-07
-3.21137e-07
-3.63213e-08
-1.11842e-07
-4.43213e-08
1.55229e-07
6.98407e-08
3.16392e-09
-7.30865e-08
-1.47162e-06
2.46146e-06
-9.97112e-07
-1.01799e-06
4.63452e-07
-4.42856e-08
2.64226e-08
1.75001e-08
2.48707e-08
-1.66575e-08
-8.01454e-09
-1.14743e-07
1.89343e-07
-7.45715e-08
2.26278e-08
8.98808e-09
-3.18876e-08
1.75113e-09
6.58213e-10
3.65825e-08
-2.06849e-08
2.13782e-07
3.97977e-08
-7.44821e-07
-3.08835e-07
1.05362e-06
-1.84242e-07
1.8e-07
4.44148e-09
-2.06562e-09
-6.23234e-09
8.17207e-09
-5.17627e-09
-8.64503e-08
-5.60143e-08
-2.74997e-08
-1.1367e-07
-8.60943e-08
1.9983e-07
8.98862e-08
2.37446e-07
-3.18201e-07
3.56813e-07
-1.63219e-07
-1.95172e-07
2.0719e-07
2.95797e-08
-2.36977e-07
4.21839e-09
-2.0528e-07
2.01222e-07
-4.87322e-08
2.82624e-08
2.02984e-08
7.4308e-08
5.44918e-09
-1.80833e-06
2.08306e-06
5.58829e-08
1.0955e-07
-1.40532e-08
4.04573e-08
2.77837e-06
-4.27285e-06
3.52293e-07
5.64678e-09
3.81234e-07
9.53174e-07
3.32716e-07
-4.92497e-08
-2.84542e-07
-1.22306e-07
3.94146e-08
8.30288e-08
2.58003e-07
-6.64319e-08
-1.91448e-07
5.09344e-07
6.71701e-07
-1.18171e-06
2.91965e-08
-1.88467e-08
-9.67513e-09
3.22548e-08
-2.49223e-08
-7.34517e-09
-9.80329e-08
8.43744e-07
-5.04149e-08
4.37386e-09
4.60975e-08
2.57747e-09
-3.99125e-08
-1.16919e-08
5.16899e-08
-6.78622e-08
1.22165e-07
-5.47525e-08
-2.28461e-07
-3.25511e-09
-2.70534e-08
2.50314e-08
2.10059e-09
-4.47927e-07
2.20077e-07
2.26079e-07
-2.41488e-07
8.19053e-08
-1.62304e-08
2.29823e-08
-6.27388e-09
-2.87448e-07
-8.04793e-08
2.98525e-07
4.95705e-08
-1.40261e-07
-1.31885e-07
-2.73279e-06
3.8961e-06
-1.00996e-09
-1.11468e-07
-2.84379e-07
1.14635e-07
-1.26249e-07
2.77558e-07
-1.50769e-07
4.55786e-09
-5.52391e-09
-8.35065e-08
3.06792e-07
-2.23578e-07
-2.4674e-05
7.69459e-05
1.17896e-07
1.98128e-07
-6.65782e-08
6.62337e-08
2.35485e-07
3.07064e-07
-5.4531e-07
-9.75412e-08
-1.73556e-07
2.71102e-07
-4.88862e-08
4.72966e-08
1.08877e-09
-4.64677e-07
2.35147e-07
2.29599e-07
1.19389e-08
1.94466e-08
-1.78211e-08
-2.61505e-08
-5.3734e-07
5.36139e-07
3.53223e-10
7.31477e-09
-9.20044e-09
1.45845e-09
-1.70412e-07
1.02245e-07
6.76382e-08
1.55292e-08
-8.18959e-08
9.52119e-07
-3.89463e-07
-5.60467e-07
4.15165e-07
-1.80603e-07
-2.34607e-07
1.04189e-08
-3.37095e-09
-4.68382e-09
-1.56207e-07
1.60711e-07
-4.11505e-07
9.20889e-07
-4.5342e-08
3.07237e-08
1.37936e-08
-8.4312e-08
1.32665e-07
-4.87507e-08
2.11822e-07
-2.56007e-07
4.39977e-08
2.4359e-07
-3.18476e-08
3.34461e-08
-1.12409e-08
-2.18927e-08
1.1489e-06
-2.79243e-06
1.6447e-06
5.92406e-06
-5.75377e-06
-2.1873e-05
-2.34318e-05
4.53055e-05
5.78985e-07
-2.38712e-06
-1.67243e-07
2.1885e-07
-5.20733e-08
6.08554e-07
-6.02899e-07
-5.0029e-09
-5.26213e-07
1.40027e-07
3.8696e-07
-2.46405e-09
2.08732e-09
-5.67482e-10
-9.15874e-10
1.72321e-09
5.62485e-08
-1.01282e-06
9.56068e-07
-1.39937e-05
-7.87557e-06
3.92115e-09
-1.26146e-07
-5.57588e-07
3.23726e-08
1.15037e-06
1.76282e-07
-2.82327e-07
-4.18862e-08
-3.11405e-08
7.33735e-08
-7.37423e-08
3.26835e-08
2.1977e-08
-2.34974e-07
2.12796e-07
5.76194e-08
-5.53117e-08
-2.64737e-09
-1.5958e-07
2.5169e-07
1.18917e-07
-1.9696e-07
1.28693e-07
-7.41186e-08
9.95018e-08
-2.54126e-08
3.65573e-06
-1.53873e-06
-2.11323e-06
2.83477e-08
-6.9486e-08
4.13769e-08
3.13465e-07
4.45453e-07
-8.47143e-07
9.11478e-07
-6.42394e-08
1.08729e-07
-1.33681e-06
1.23427e-06
9.95226e-09
2.84886e-08
-3.85734e-08
2.24185e-07
-2.27802e-07
3.30487e-09
-3.6532e-08
2.90904e-08
7.3808e-09
2.78823e-07
-3.97943e-07
5.69623e-08
-1.71595e-07
-3.08171e-07
-1.4075e-07
2.04121e-07
1.1036e-08
-2.15358e-07
9.10341e-08
-1.1289e-07
2.10448e-08
1.08745e-07
-8.34351e-08
-2.52379e-08
1.79016e-07
-3.63557e-08
-1.42904e-07
2.05662e-09
-2.47821e-09
-4.4496e-07
1.63513e-07
2.85293e-07
5.39237e-08
1.33238e-07
-1.87015e-07
-1.56689e-07
-1.46739e-08
1.71239e-07
2.40808e-07
-2.76285e-07
3.678e-08
-1.45325e-08
-2.05461e-08
3.49362e-08
-4.48623e-07
-8.88689e-08
1.15529e-07
-3.08258e-08
-8.6081e-07
9.8497e-07
-1.07423e-07
-1.60997e-07
-2.81999e-07
1.58172e-08
-1.42564e-07
-3.21555e-07
2.19913e-07
-3.26651e-07
1.06281e-07
2.03278e-07
3.29778e-07
-5.47243e-07
1.5248e-08
1.43941e-08
-1.90079e-09
2.90309e-08
-2.71803e-08
7.17049e-09
-5.89146e-08
5.09472e-08
5.09163e-08
3.9275e-08
-9.07104e-08
4.82822e-10
1.19437e-07
-1.19376e-07
4.8081e-07
4.57525e-07
-9.39332e-07
4.503e-08
-2.20158e-08
-2.31985e-08
1.34412e-07
-1.35757e-07
-2.14849e-08
-2.31555e-08
4.37799e-08
-1.0562e-07
-4.54258e-07
5.60214e-07
1.59388e-08
-2.27745e-08
7.12657e-09
2.12726e-08
8.21679e-09
-2.96312e-08
4.72258e-07
3.09508e-09
7.4061e-07
-1.40863e-07
-5.95967e-07
-2.56216e-06
3.17061e-07
-1.35235e-07
-1.81228e-07
-2.43418e-07
3.01713e-07
-8.19588e-08
-2.39254e-09
-7.04564e-09
9.26348e-09
-6.70815e-07
-1.76377e-07
1.47295e-07
-2.77628e-07
1.3018e-07
1.7634e-07
1.79448e-07
-1.90011e-07
1.23565e-07
-1.54614e-09
4.7761e-08
-4.64581e-08
1.08064e-07
-1.71642e-08
-9.23016e-09
2.73767e-08
-1.81134e-08
1.12244e-07
-4.9563e-08
-6.27456e-08
3.3858e-08
5.64732e-07
-3.88513e-07
-1.76385e-07
4.71884e-07
9.25652e-08
1.17804e-07
-9.55564e-09
-6.88834e-06
4.85615e-06
2.03003e-06
-2.23566e-08
-4.64193e-09
2.05317e-08
-2.36136e-08
-2.22075e-08
2.3575e-06
-4.91427e-06
2.55411e-06
-9.80885e-08
9.69327e-08
8.74468e-08
-1.63203e-07
7.56625e-08
-9.46948e-09
7.16866e-09
1.50424e-07
2.8412e-08
-1.56369e-07
1.55949e-07
6.57857e-09
-6.943e-09
6.51763e-10
-8.09047e-09
-2.93035e-08
3.7577e-08
1.9197e-08
2.3608e-09
-1.0347e-08
1.03152e-09
-1.24055e-08
4.97462e-09
7.42644e-09
1.50425e-07
2.6463e-07
3.63521e-08
1.4128e-08
-5.06877e-08
2.58415e-08
1.37575e-08
-3.20069e-08
1.87518e-08
3.38634e-08
-1.20691e-07
-1.94452e-07
2.16474e-07
1.68391e-08
1.93883e-08
2.32548e-08
-7.24613e-09
9.21464e-08
-1.52869e-07
6.0646e-08
-9.13106e-08
1.31063e-07
-3.98722e-08
5.30008e-08
1.23841e-08
-6.49362e-08
3.2341e-07
1.26343e-08
-3.35281e-07
1.23917e-07
3.16694e-08
-4.52887e-08
-4.16077e-07
-2.02219e-07
5.03289e-08
1.51317e-07
-5.64375e-08
5.4693e-08
1.70313e-09
5.30715e-08
-1.50832e-07
-4.13672e-08
2.41768e-09
3.85353e-08
-3.10416e-07
2.13076e-07
-1.53293e-07
-1.72327e-08
-1.18974e-08
1.21251e-08
-4.11252e-11
7.45417e-08
3.83589e-09
-7.91417e-08
7.73902e-08
-1.69021e-08
-6.08259e-08
2.39168e-07
4.15319e-09
7.63196e-08
-6.75002e-09
-6.65501e-07
2.79926e-07
3.83376e-07
-2.43318e-07
-1.62639e-07
4.06039e-07
-9.66126e-08
1.0838e-07
-1.13961e-08
7.94706e-05
-3.92738e-08
3.11336e-08
9.22866e-07
-4.10869e-07
-5.12099e-07
-4.16969e-08
-2.98764e-08
1.37225e-07
-4.96705e-08
-1.53175e-09
-1.72995e-08
2.89908e-07
-1.42978e-07
2.2526e-07
-2.8734e-07
6.20679e-08
-4.04875e-07
3.13329e-07
9.14305e-08
1.60273e-08
2.45527e-09
-1.83477e-08
1.2151e-07
1.20194e-08
2.19813e-07
1.89808e-08
-3.48946e-09
2.29706e-07
-5.1348e-07
2.83468e-07
-1.1292e-07
1.23037e-08
1.01356e-07
-1.09516e-07
1.56903e-07
-4.79999e-08
-7.63134e-09
-6.2959e-11
7.91963e-09
6.90065e-08
1.72611e-07
1.05415e-06
-5.21113e-07
-5.32606e-07
6.0784e-07
-3.77935e-07
-5.31e-09
4.05521e-08
-3.51413e-08
6.90828e-08
-5.09858e-08
-1.77558e-08
2.11976e-07
-9.57697e-08
-1.16554e-07
-3.71435e-06
3.43761e-06
2.76737e-07
5.54209e-07
1.88607e-07
1.80842e-06
1.84536e-06
-2.34674e-08
-2.13881e-08
-4.24821e-07
4.24e-07
-1.88522e-07
2.84374e-07
-9.5509e-08
-9.43892e-08
1.08913e-07
-1.45899e-08
-5.40809e-07
9.17833e-08
-1.52828e-07
-8.527e-09
1.60968e-07
6.1717e-07
-7.22621e-07
-1.91806e-08
1.83283e-08
6.59305e-10
-5.43694e-08
5.62584e-09
3.74647e-09
-1.5399e-09
3.89788e-07
-1.65031e-07
-2.26961e-08
-5.60745e-08
7.8278e-08
-9.5429e-07
2.57028e-07
6.9723e-07
9.92743e-08
2.53377e-07
-3.54197e-07
-9.42288e-07
1.97263e-07
1.95112e-07
8.93627e-09
-9.40454e-08
1.86123e-07
1.22008e-07
2.16186e-07
-2.01562e-07
1.99278e-07
2.06701e-09
2.20285e-07
-1.36614e-07
2.39384e-07
-4.4671e-07
2.07601e-07
4.1012e-08
-2.00245e-08
-2.10537e-08
4.41345e-07
-2.0202e-07
4.62588e-08
-9.61515e-08
4.92784e-08
-1.23974e-07
1.14039e-08
-6.57531e-08
1.99986e-08
-1.06649e-06
1.04461e-06
2.31237e-08
3.13145e-08
-1.52503e-08
-1.56852e-08
1.15625e-08
1.73189e-07
-2.56844e-07
-1.58341e-07
4.8557e-08
-1.62207e-08
8.14698e-08
3.03849e-05
-5.38284e-05
-9.08951e-08
1.07167e-07
-1.60944e-08
-2.56819e-08
2.3493e-08
1.27783e-07
-1.91291e-07
6.3609e-08
-1.92456e-07
1.19654e-07
7.27371e-08
-2.42751e-09
-9.21362e-08
9.40306e-08
-2.64313e-09
1.3332e-07
-1.31091e-07
-8.90436e-09
-3.18364e-09
-6.92833e-08
-3.71521e-09
7.28125e-08
3.21374e-09
-4.47938e-08
5.10739e-07
-1.58286e-07
-3.52848e-07
2.05588e-07
-1.51658e-07
-1.35785e-06
3.42109e-06
4.14859e-07
5.38675e-07
1.12488e-08
-8.00244e-08
8.06286e-09
-7.90105e-08
7.1466e-08
2.39853e-08
-1.06416e-08
-1.31593e-08
1.33458e-07
-5.37881e-07
-8.51784e-08
1.23908e-07
2.7755e-08
-1.78533e-07
1.50141e-07
-4.56105e-07
2.35521e-07
2.19938e-07
2.89459e-08
-3.39718e-08
-4.61519e-07
-3.8599e-07
7.85652e-08
3.07183e-07
1.00352e-07
-4.93272e-08
1.50127e-06
-2.74126e-06
1.24615e-06
-3.80094e-07
-1.61245e-07
2.26122e-08
1.84319e-08
-1.01319e-07
4.86445e-09
-2.84651e-07
2.34313e-07
5.08651e-08
-4.39554e-08
-7.73438e-07
5.63608e-08
6.35149e-10
1.80492e-08
5.32853e-09
-1.50029e-07
1.54116e-07
1.38523e-07
4.7124e-07
-8.7237e-07
2.10363e-07
6.62377e-07
-4.38495e-09
3.39206e-08
-3.22017e-08
-1.05279e-09
9.79993e-09
-1.00829e-07
2.36018e-08
-5.42948e-09
-8.10477e-07
-6.15909e-08
-5.03943e-07
2.69164e-07
2.33762e-07
-2.38388e-07
-4.18337e-07
6.57837e-07
-1.80446e-06
7.3894e-07
2.57204e-08
4.90958e-08
-7.54162e-08
4.80373e-08
2.2493e-07
-2.7501e-07
-3.33715e-07
-2.62032e-08
3.59642e-07
-5.29428e-08
4.96005e-08
-9.05164e-10
-5.22696e-08
-1.16883e-07
-2.76123e-07
4.24307e-07
-1.39235e-08
-5.11614e-09
7.33533e-08
-8.21027e-08
8.83636e-09
-3.20082e-08
1.64839e-07
-3.49829e-07
-1.13546e-06
1.4847e-06
4.87564e-06
-2.97554e-05
2.49457e-05
-3.62673e-07
1.01032e-06
-6.52662e-07
-1.52787e-08
-2.28574e-07
4.32796e-07
-3.63917e-07
2.00716e-07
-3.24912e-07
2.94729e-07
-8.75696e-08
2.81007e-07
-7.93831e-07
5.13101e-07
5.33178e-08
1.58512e-07
-2.82524e-07
9.45262e-08
-7.44829e-08
7.89827e-08
-4.25076e-09
-3.76e-06
4.15186e-06
-3.90124e-07
1.48094e-07
-2.73997e-07
2.47739e-08
-1.88547e-07
1.63952e-07
9.52876e-08
-7.29401e-08
-2.23803e-08
7.27899e-07
1.05826e-08
2.50943e-07
-2.71323e-07
-2.8111e-07
-1.36725e-07
4.17776e-07
-2.57554e-07
-1.89076e-07
5.75325e-08
-1.30361e-07
7.30568e-08
-2.09249e-08
1.45207e-09
1.87413e-08
-9.13923e-08
9.10507e-08
-1.07819e-07
-2.4441e-08
1.31882e-07
4.3855e-08
6.63418e-07
-7.0721e-07
7.81262e-09
-1.09644e-08
2.95694e-09
-1.9565e-07
2.10952e-07
-1.5385e-08
-4.94288e-07
4.63172e-07
3.09761e-08
5.58429e-07
-3.23203e-07
5.8907e-08
-2.69489e-07
2.1141e-07
-2.45038e-09
9.01764e-09
-7.21248e-09
6.7545e-09
2.46156e-09
-9.34302e-09
1.62973e-08
-5.63894e-08
1.87432e-07
-5.93084e-07
4.0597e-07
1.3248e-07
2.54393e-08
-1.58177e-07
5.28264e-08
-6.25572e-08
9.53171e-09
-4.95367e-07
-4.58884e-07
-1.25272e-07
7.11651e-09
1.19258e-07
-3.1769e-07
4.08983e-07
-9.12258e-08
-1.37504e-05
4.12999e-06
-5.19666e-07
2.62637e-07
1.68106e-07
1.33889e-07
1.57821e-06
-2.32832e-07
-1.34588e-06
2.64885e-08
2.38845e-07
2.72041e-07
1.54565e-07
1.6297e-07
-4.28596e-08
1.37973e-07
-1.06183e-07
9.76842e-08
8.16193e-09
1.8898e-08
-1.25277e-07
2.34573e-08
-4.95459e-08
2.62206e-08
1.26868e-07
-1.14206e-07
-1.83495e-07
-6.32298e-09
3.23983e-07
-1.55774e-07
-2.18635e-07
-3.56477e-06
2.88085e-06
6.87199e-07
-6.15381e-07
-2.3451e-08
1.67887e-07
-5.01724e-07
8.53889e-08
-8.72104e-08
-1.06849e-07
1.24346e-08
-6.8634e-08
6.80396e-08
3.67369e-10
-1.84198e-08
-1.78808e-08
-7.37423e-07
4.68535e-07
2.67486e-07
8.1734e-07
2.37144e-07
-3.78431e-07
-4.51124e-07
-6.41534e-07
5.85535e-07
-6.0667e-07
-2.96116e-09
3.77579e-08
-1.57305e-09
4.51717e-10
9.43633e-10
-9.34073e-09
1.79788e-09
-9.05396e-08
-1.96222e-07
3.09091e-07
-1.98525e-07
-1.87809e-07
1.18549e-07
-1.60318e-07
4.14988e-08
4.09147e-08
-1.38342e-07
3.29019e-07
-3.30082e-07
5.52769e-07
-4.99211e-07
-5.95792e-08
3.66748e-08
2.78412e-08
-6.47405e-08
-3.0648e-07
7.89042e-08
5.7271e-10
7.45806e-08
4.48168e-08
-3.74887e-09
-4.11014e-08
-1.509e-09
-4.12461e-09
6.15581e-09
1.96441e-07
5.63259e-08
-2.5308e-07
-3.19299e-09
5.24426e-08
-4.90703e-08
3.28641e-07
-9.90669e-08
-2.30171e-07
-8.69403e-09
4.71137e-09
4.09874e-09
-2.57411e-08
6.44761e-08
-3.95743e-08
-3.32743e-08
-1.52342e-08
4.82873e-08
-7.25992e-08
-2.08522e-07
5.02855e-06
-4.15773e-06
-8.325e-07
1.25032e-09
2.79384e-09
6.63111e-08
-4.07576e-08
-4.26218e-08
1.72824e-07
-1.4801e-07
3.70838e-09
-8.44444e-08
8.14461e-08
-6.48622e-08
1.22547e-07
2.95489e-08
2.70885e-09
-3.25713e-08
4.71787e-07
-7.58104e-08
-1.51706e-08
2.28229e-08
-8.95206e-08
2.58182e-08
6.38624e-08
-6.34995e-09
3.76646e-08
-3.08763e-08
1.16188e-08
9.13247e-08
-3.27359e-08
-5.81853e-08
-2.86189e-07
2.21945e-07
6.38141e-08
1.02679e-07
-4.52729e-07
1.3809e-08
1.00917e-08
-2.77996e-09
-1.86755e-08
5.11322e-08
-3.30642e-08
-6.16124e-07
5.30094e-07
8.54418e-08
2.8401e-07
-1.62894e-07
-1.20202e-07
4.33231e-08
-2.58868e-08
-1.72284e-08
3.59903e-08
6.12966e-08
2.27783e-08
-4.00642e-08
1.74457e-08
-9.90574e-06
-4.08267e-06
2.83621e-07
-2.70779e-07
-1.26588e-08
1.37231e-09
6.89015e-10
-1.96421e-09
-4.45707e-08
1.76387e-07
1.37145e-07
-3.1328e-07
2.90134e-07
-1.13938e-07
2.57318e-07
-4.39227e-08
1.14057e-08
2.48016e-08
-3.66243e-08
2.86585e-07
-8.99466e-08
-4.11241e-07
7.84341e-08
3.32975e-07
-7.17418e-08
2.9643e-07
-2.24773e-07
3.47934e-08
-3.7805e-08
-1.90905e-08
5.57857e-08
-7.12439e-07
2.3779e-07
4.75178e-07
-3.48382e-07
3.95403e-07
1.97139e-05
-2.34282e-05
1.0528e-06
-3.74925e-08
-9.62729e-08
1.44605e-06
-4.00037e-06
-1.86037e-08
9.70748e-08
-7.88261e-08
3.12257e-07
-2.82464e-07
-3.06805e-08
8.54228e-08
-2.31662e-07
3.18604e-07
3.42862e-09
-9.27963e-08
2.41733e-09
-1.52307e-08
1.32822e-08
1.269e-07
2.81864e-08
-1.55496e-07
1.43561e-08
3.78048e-09
-1.80221e-08
-7.82379e-07
1.66944e-07
-1.02516e-07
-6.03135e-08
1.62139e-07
-9.00034e-06
3.7523e-07
7.06082e-08
-8.48723e-08
1.41089e-08
-3.4264e-08
-5.76687e-08
9.20905e-08
-2.1074e-06
-1.45844e-06
-6.14488e-07
2.25839e-07
1.05716e-07
1.6976e-08
-1.22886e-07
5.2337e-07
-6.79668e-09
-5.16807e-07
-1.03258e-07
6.84917e-08
3.48449e-08
-1.21699e-06
3.68631e-07
-4.07554e-09
2.1541e-09
8.47954e-09
-5.14446e-08
4.27817e-08
-5.65214e-09
-7.32984e-08
-1.04564e-07
1.77969e-07
-2.82643e-07
-3.31964e-07
-3.29421e-08
5.11171e-08
-1.80561e-08
2.09442e-08
-4.82758e-08
2.69766e-08
1.5251e-07
-2.01419e-07
4.81528e-08
2.04965e-07
3.47257e-07
8.25483e-07
-4.26459e-07
-3.98822e-07
1.08924e-06
-1.27722e-06
2.08142e-07
-4.97807e-07
1.39428e-07
3.59242e-07
4.20221e-09
-5.15907e-08
4.71989e-08
6.02667e-10
5.99826e-08
4.37069e-08
-6.60048e-08
-1.38475e-09
8.18341e-08
-2.41577e-07
-4.05126e-08
3.19933e-07
-3.11469e-08
1.57659e-07
-4.1413e-07
6.09663e-07
2.8034e-08
-3.41694e-08
4.89894e-08
-3.47568e-08
-1.44114e-08
-2.23362e-07
-7.97023e-08
3.02742e-07
-4.37641e-08
-1.28307e-08
-3.28991e-08
2.08798e-07
-1.70946e-07
6.28684e-08
-1.10552e-07
-8.22301e-08
-2.86095e-08
8.04618e-08
-5.20193e-08
-2.01055e-08
3.56745e-08
-1.08046e-07
6.98911e-09
3.63114e-08
5.28909e-08
-8.85039e-08
1.24423e-07
-1.66787e-07
8.56177e-07
-6.6055e-07
-1.95797e-07
-1.42193e-07
-2.14697e-08
1.63621e-07
-3.56673e-11
-7.28535e-09
-1.89999e-08
2.87317e-09
8.19419e-09
-9.65323e-09
3.39231e-07
-9.73611e-07
6.32628e-07
-1.37208e-08
-4.85201e-07
4.98596e-07
-4.43342e-07
3.20383e-07
1.25118e-07
1.27149e-07
-1.45864e-07
-9.16914e-08
1.36458e-09
8.9904e-08
-1.66177e-06
1.25285e-06
4.08362e-07
-4.79738e-08
7.65721e-08
-8.43045e-08
1.00196e-08
7.37792e-08
-9.86644e-08
2.52461e-08
-1.38528e-08
-3.62294e-08
5.00753e-08
-2.75322e-08
3.23268e-08
-5.23761e-09
3.48963e-07
-1.76049e-07
-2.65292e-08
-6.65546e-09
-1.01565e-05
1.05164e-05
-3.63863e-07
3.02666e-08
2.53489e-07
-4.76127e-08
2.36431e-07
4.81484e-08
-2.20902e-07
8.16769e-08
-4.92929e-07
3.12126e-08
-1.00634e-07
6.93314e-08
-3.43778e-08
-6.77522e-07
-3.99422e-07
1.50284e-08
-8.74307e-08
-4.33822e-09
8.94747e-08
-5.24728e-08
2.26761e-09
1.60709e-07
-1.33196e-07
3.0371e-07
-3.08222e-07
4.01764e-09
6.80361e-08
5.7393e-09
5.0048e-08
-3.40862e-08
-1.23222e-09
8.3413e-10
4.69532e-10
3.1624e-05
-2.67098e-05
3.12621e-08
-2.14676e-08
3.17885e-08
-2.95094e-07
-7.9555e-08
1.46823e-07
3.93629e-09
5.32724e-08
-2.55527e-08
7.19546e-09
1.82998e-08
-2.12261e-08
-5.51904e-09
2.71465e-08
8.63051e-09
-6.59829e-11
-8.65428e-09
1.86064e-07
-1.81266e-07
-4.14831e-09
1.1378e-09
2.37688e-10
-4.64174e-08
-1.49163e-07
6.6101e-08
2.50542e-08
1.60247e-07
-1.93592e-07
3.44864e-08
5.07979e-08
-8.5064e-08
2.52369e-08
-1.25915e-08
-1.26927e-08
9.40062e-08
-8.45489e-08
-9.27849e-09
5.96774e-08
-2.52128e-08
1.97822e-07
-2.36888e-08
-1.74079e-07
-5.06432e-07
-8.19397e-08
5.85197e-07
-1.5435e-07
3.74808e-07
-2.20956e-07
4.87222e-08
2.85754e-08
3.29694e-07
2.3075e-08
-1.3123e-08
-9.73135e-09
4.47505e-07
-4.74142e-07
7.68301e-09
1.24165e-07
-1.29549e-07
-9.43336e-08
-4.09308e-07
1.71451e-07
4.67933e-07
-1.13939e-07
3.95424e-09
-1.49858e-07
-5.16741e-07
-2.27222e-07
-1.22262e-08
1.27571e-08
-3.48558e-10
-2.29513e-08
-6.9379e-07
6.74912e-07
1.40921e-08
4.68925e-05
-2.63498e-05
-2.04191e-05
-3.58304e-08
-4.61033e-08
-6.44218e-08
-2.02036e-08
4.42602e-07
-7.29088e-08
4.64511e-09
-7.51564e-07
1.51644e-08
2.99904e-08
-5.47949e-08
2.20464e-08
3.00862e-07
-4.55182e-07
1.54852e-07
-1.85971e-07
-3.1208e-07
2.60657e-08
-1.2667e-08
4.34176e-08
4.82562e-08
-9.24627e-08
-3.24212e-08
-2.25267e-08
1.81533e-06
1.59808e-06
-4.78773e-07
1.06514e-08
-1.52981e-07
-3.28348e-08
7.6051e-08
-4.34456e-08
2.73984e-05
3.16734e-07
-4.96123e-09
1.60807e-08
5.18171e-08
5.36264e-08
3.89064e-08
7.30483e-08
-9.91626e-09
3.11505e-08
3.65146e-07
-3.43914e-07
-2.19359e-08
4.28992e-08
-1.99536e-07
1.23265e-07
-1.65517e-07
4.32326e-08
2.53704e-07
-4.1777e-08
-2.11734e-07
-3.00084e-08
2.02096e-09
1.88576e-07
-2.14097e-09
-1.9981e-07
1.56795e-07
4.27445e-08
5.62803e-08
-4.01106e-08
-1.57916e-08
2.13045e-08
3.83976e-09
9.75453e-08
3.49664e-07
2.27953e-07
-1.13662e-06
9.08252e-07
3.07761e-08
-8.16716e-09
4.74074e-09
2.6683e-08
-4.35806e-08
3.67238e-07
-3.77314e-08
1.03999e-08
2.73389e-08
1.83221e-08
-2.5328e-07
2.20008e-07
3.95935e-07
8.50868e-08
1.40555e-07
-4.3474e-07
2.93041e-07
4.97171e-08
-9.4877e-08
1.80872e-07
-8.66752e-08
7.39431e-08
4.06099e-07
-4.80035e-07
-1.12176e-07
3.12273e-08
8.19565e-08
9.38665e-10
-4.68949e-09
4.76208e-07
-2.62402e-07
-2.15962e-07
2.86088e-08
2.04272e-08
2.17264e-08
1.77192e-05
1.26667e-05
6.93908e-08
1.84504e-07
-4.71673e-08
4.57714e-08
8.45637e-07
-7.34666e-07
-1.28806e-07
3.17217e-07
5.17632e-09
-5.18978e-08
7.23203e-08
-7.00712e-08
-1.97342e-09
-1.29448e-07
-1.52942e-07
2.82167e-07
6.99519e-08
2.38441e-09
-1.37039e-08
-2.49821e-07
4.65414e-07
-2.15841e-07
-8.27812e-10
1.48612e-09
-5.58674e-10
4.00037e-08
1.13589e-08
1.76485e-07
1.8802e-07
-1.35178e-06
1.65971e-06
-3.04983e-07
-6.93971e-08
5.10641e-07
1.65621e-07
-6.90469e-08
1.53885e-07
9.45375e-07
-1.09936e-06
-2.95206e-08
1.48163e-08
1.44956e-08
-1.87246e-07
-1.52144e-08
1.44686e-06
-5.31188e-08
4.54756e-08
7.75022e-09
-1.61361e-06
-1.08615e-07
1.62574e-06
-1.91276e-07
-3.84269e-08
2.29183e-07
6.9474e-08
-1.28366e-07
5.90068e-08
-4.26023e-07
-1.00667e-07
1.58479e-07
-2.00859e-08
-1.38857e-07
1.79689e-07
-2.49161e-07
7.03473e-08
-4.72953e-06
3.01094e-06
1.72707e-06
3.07549e-07
1.67656e-07
1.15388e-08
9.71985e-08
-6.93934e-07
6.26481e-07
6.59782e-08
3.8733e-07
-8.5439e-08
3.3074e-06
-2.37139e-05
2.04009e-05
5.53815e-08
4.92034e-09
-6.03244e-08
3.0995e-08
2.09861e-07
4.85888e-08
-2.1609e-07
-6.55615e-08
7.66761e-08
-5.50573e-08
1.43844e-10
-4.27e-08
6.76937e-07
-2.58157e-07
-4.20706e-07
-4.96924e-07
2.37859e-08
3.61143e-08
3.36966e-08
-1.78654e-06
1.65047e-06
1.36555e-07
-1.21296e-07
-7.63693e-08
-4.05392e-07
-5.15705e-08
4.57606e-07
-9.95144e-08
-4.24769e-09
1.04098e-07
-6.08977e-08
8.38028e-08
-2.31841e-08
9.52411e-08
-1.32208e-07
-1.52976e-06
-2.19947e-08
-5.01932e-07
5.11949e-07
-1.01851e-08
-4.36382e-08
2.01805e-08
2.38341e-08
5.87527e-08
9.96989e-08
9.68062e-11
1.81447e-08
-1.85595e-08
2.58777e-06
-2.95348e-06
2.01786e-08
-8.09552e-08
5.97884e-08
9.82476e-09
-9.81575e-08
-4.07765e-08
1.47559e-07
-3.72899e-08
-9.50735e-08
-1.88972e-08
1.13777e-07
-1.39682e-09
-2.13806e-08
2.29636e-08
-4.84572e-07
-1.32319e-07
-4.28389e-08
1.7532e-07
-1.90101e-07
3.36639e-08
-1.10268e-07
-3.34457e-07
-5.3174e-08
1.03542e-09
-2.22766e-08
-4.03895e-08
1.81395e-06
-2.37232e-06
4.62017e-07
-1.39334e-08
-1.87485e-07
4.88129e-08
-2.47784e-08
1.57609e-08
-1.52501e-07
1.37926e-07
2.1549e-09
-2.26821e-07
2.24371e-07
2.07691e-07
9.15917e-08
-2.97893e-07
2.58205e-08
1.08351e-07
-4.07925e-07
4.77191e-08
3.59368e-07
-4.30746e-08
5.10969e-08
-2.92535e-09
1.07239e-08
-4.45913e-07
3.35809e-07
-6.37592e-07
-5.69445e-08
1.01928e-07
6.3273e-08
-6.23243e-09
-1.91857e-08
-7.18303e-08
2.98175e-07
-1.85549e-08
-2.80131e-07
4.55961e-08
-8.35477e-09
8.25513e-09
-1.24817e-08
-3.09298e-08
3.91665e-08
3.39845e-06
6.85914e-08
-5.75203e-07
-1.99885e-07
4.54598e-07
-2.55224e-07
2.6992e-08
-1.69561e-09
1.59522e-08
-3.43901e-07
6.8297e-07
3.43257e-08
2.78803e-09
-3.71962e-08
2.97207e-08
-4.36524e-08
2.68673e-08
1.4597e-07
-1.72566e-07
-7.01706e-09
3.54438e-08
-4.48705e-07
-7.66855e-08
1.17466e-07
-3.09189e-07
1.2882e-08
-3.47206e-08
2.17385e-08
4.87444e-09
-2.51489e-08
2.41519e-08
-1.95607e-08
6.27245e-08
-1.1631e-08
-5.1103e-08
-1.29099e-08
-2.10743e-08
3.45016e-08
-1.02617e-08
1.68923e-09
-2.90884e-07
2.81748e-07
8.60923e-09
-1.63063e-07
2.15117e-08
1.4096e-07
1.07554e-07
-1.80793e-07
5.89265e-07
8.83991e-08
-6.46912e-08
1.15493e-08
8.64487e-08
-8.31432e-08
-3.76479e-08
5.56844e-08
-1.76986e-08
2.13323e-07
-3.66185e-07
1.53108e-07
-1.87822e-07
3.01116e-07
-1.74461e-09
1.27859e-07
-1.32338e-07
8.14701e-08
5.05001e-08
2.0808e-09
2.21882e-08
2.17859e-07
-5.51219e-08
4.21361e-08
-3.98288e-07
5.15622e-07
-1.18093e-07
-7.41093e-08
1.10216e-09
1.21289e-07
-2.12679e-07
9.21164e-08
1.24599e-06
-8.64974e-07
-2.46787e-07
2.18735e-07
2.81668e-08
3.90784e-08
-2.42383e-08
-1.46266e-08
4.7e-08
-1.42423e-08
-3.28379e-08
-2.44272e-07
-4.75421e-07
7.00326e-08
2.93187e-08
-9.4549e-09
-1.99935e-08
-9.77048e-08
1.70386e-07
-7.29161e-08
-1.06798e-08
-1.25135e-07
1.93963e-07
-3.57168e-08
7.87182e-08
1.39193e-08
1.56969e-08
-7.09138e-08
1.26696e-07
6.51771e-09
-1.86135e-09
-5.83047e-08
-1.8851e-07
-6.74239e-08
-6.43504e-08
1.31431e-07
2.83918e-08
-2.28962e-08
5.6509e-06
9.36162e-06
-1.50086e-05
-1.30445e-06
-1.03938e-06
2.36582e-06
-7.02588e-06
7.0234e-06
7.58258e-09
2.92266e-07
1.3241e-10
-2.22299e-08
1.45919e-08
7.59342e-09
6.68322e-06
3.0718e-07
-2.94475e-07
-1.81835e-07
-1.1689e-06
-9.5766e-08
-1.10123e-08
-3.3366e-08
2.53665e-07
8.23346e-08
-1.80394e-07
3.73142e-06
-3.82379e-06
-3.99685e-07
4.863e-07
-8.63542e-08
-2.87465e-09
-1.4442e-07
7.63833e-08
6.79235e-08
-2.11278e-07
2.44317e-07
-3.35285e-08
3.49107e-08
2.4073e-08
-5.88983e-08
4.66281e-09
-7.98078e-08
-1.64805e-08
1.14325e-08
4.78705e-09
-1.01129e-07
-3.72771e-08
1.39465e-07
-1.23796e-07
1.76891e-07
9.4194e-08
2.52e-07
-3.46213e-07
1.97269e-08
3.65182e-08
-1.44646e-07
4.69131e-07
-3.24967e-07
-2.3896e-06
4.92764e-05
3.89428e-08
-1.62354e-08
7.49607e-08
8.93611e-09
-8.3638e-08
-4.47682e-07
5.07767e-07
-5.98629e-08
2.66516e-06
2.98769e-06
-7.77389e-07
-1.70768e-08
2.60702e-08
-2.65374e-08
-9.02786e-09
3.55678e-08
1.18694e-08
-4.72569e-08
3.51345e-08
-3.01574e-07
4.13996e-07
-1.12685e-07
-8.0855e-08
-1.64948e-07
1.00371e-06
4.88514e-08
-1.04881e-06
-5.25933e-08
-2.649e-07
7.41539e-09
-6.77572e-08
9.13354e-09
2.56832e-08
-1.72645e-07
2.92119e-07
-1.2111e-07
-9.01542e-08
6.49691e-08
2.53015e-08
1.70218e-07
-2.65942e-06
-1.09838e-06
-2.42612e-08
-1.96226e-08
1.93831e-08
1.96492e-10
1.88207e-08
-2.02773e-08
-6.09146e-08
1.49938e-08
2.14231e-06
-2.57959e-06
4.38674e-07
-2.97486e-08
-1.5304e-08
1.388e-08
1.9898e-07
-1.30372e-07
-6.90849e-08
-2.7195e-08
-9.23195e-09
3.644e-08
-1.07816e-06
1.11054e-06
-3.11115e-08
1.48989e-06
-4.93688e-07
-1.22532e-08
-1.53879e-08
2.76988e-08
-3.61804e-08
-2.30912e-09
3.83586e-08
1.50594e-07
-5.91291e-08
3.37697e-09
-1.91523e-07
-1.59761e-08
2.07386e-07
-0.000145511
8.8614e-05
5.68844e-05
7.172e-08
-1.84537e-08
7.17633e-08
3.32815e-08
-1.05064e-07
-4.90654e-07
-2.99483e-08
7.1748e-08
-6.36617e-08
-2.53794e-08
9.74111e-08
-7.16175e-08
3.38539e-08
-5.25022e-07
-1.59294e-07
-1.55244e-07
3.14714e-07
3.4696e-08
-2.19007e-08
-2.94003e-08
-2.61476e-07
-2.1583e-08
2.82741e-07
-1.04694e-07
8.97332e-09
2.77598e-08
-4.0497e-08
1.96558e-07
1.52176e-07
-9.90094e-08
-2.04529e-07
3.17141e-07
-1.24695e-08
-5.47223e-08
6.70176e-08
-4.31612e-07
1.37346e-06
-9.34325e-07
-6.72838e-09
3.5061e-08
-1.48537e-08
8.68426e-08
-5.77368e-08
2.63374e-08
3.33191e-08
-4.2578e-09
-2.28259e-07
2.32095e-07
2.55843e-07
-2.02475e-07
-5.23085e-08
3.32343e-08
-2.19858e-08
-1.04082e-07
6.5656e-08
3.86695e-08
-1.96851e-07
2.3584e-08
1.72835e-07
2.09572e-08
-8.98141e-08
-1.1269e-07
5.66355e-09
-7.87783e-09
-1.82661e-07
-4.75256e-08
2.30627e-07
2.7131e-08
-1.03044e-09
-2.67863e-08
1.19691e-07
6.94225e-08
-1.06573e-08
3.99333e-08
6.12079e-07
2.98982e-07
1.11595e-07
1.03519e-08
7.69097e-08
4.39487e-08
1.97703e-08
-6.41847e-08
4.59515e-08
-9.62322e-08
1.19259e-08
2.11282e-07
-4.58186e-07
2.46574e-07
2.68619e-07
-2.24234e-07
9.90319e-08
-1.04097e-07
7.91919e-08
-7.51194e-08
-4.17813e-09
-2.33965e-07
3.6843e-08
1.24746e-06
8.83189e-08
-1.32478e-06
4.24958e-08
-7.87332e-09
1.53006e-07
8.17835e-07
-9.70443e-07
-2.11627e-08
-3.07565e-06
3.54092e-06
-4.65508e-07
-2.31236e-08
1.32707e-08
9.48517e-09
1.22344e-09
1.83479e-10
-1.36064e-09
1.58925e-07
-2.7177e-07
1.12848e-07
1.30249e-08
2.94613e-08
7.22608e-07
-1.33011e-07
-4.30283e-07
7.66235e-07
-3.36895e-07
4.90858e-07
-8.36088e-07
4.9028e-08
-3.87737e-08
-1.42031e-08
-8.12226e-09
3.33342e-08
-1.57225e-07
2.45374e-08
-3.996e-08
1.49845e-08
-1.10337e-08
1.36929e-08
1.49469e-08
6.36364e-08
-4.45616e-07
-5.28473e-08
4.98301e-07
-7.11571e-08
2.41828e-07
-1.69746e-07
-2.12313e-07
3.78721e-08
1.12485e-07
-1.50441e-07
-5.54056e-07
-2.08363e-06
2.63814e-06
1.61852e-08
1.82637e-07
-2.51278e-07
1.21985e-07
2.60512e-08
-7.23724e-08
2.26709e-08
4.97517e-08
5.05593e-07
4.96495e-07
-1.00189e-06
-8.42781e-08
3.89228e-08
4.43056e-08
-9.55764e-07
9.42405e-07
2.33768e-08
1.83224e-07
-3.09179e-07