/*--------------------------------*- C++ -*----------------------------------*\
| =========                 |                                                 |
| \\      /  F ield         | OpenFOAM: The Open Source CFD Toolbox           |
|  \\    /   O peration     | Version:  v2012                                 |
|   \\  /    A nd           | Website:  www.openfoam.com                      |
|    \\/     M anipulation  |                                                 |
\*---------------------------------------------------------------------------*/
FoamFile
{
    version     2.0;
    format      ascii;
    class       volVectorField;
    location    "300";
    object      ddtCorrDdt0(U);
}
// * * * * * * * * * * * * * * * * * * * * * * * * * * * * * * * * * * * * * //

dimensions      [0 1 -2 0 0 0 0];


internalField   nonuniform List<vector> 
15335
(
(-1.43236e-06 -3.47678e-07 0)
(2.4743e-07 8.40416e-06 -2.79741e-23)
(-2.6772e-06 5.28193e-07 -9.48952e-23)
(4.27408e-07 -1.34189e-06 1.04987e-22)
(-6.31314e-06 9.20067e-07 -3.47532e-22)
(-6.35251e-09 -6.21199e-08 8.30455e-23)
(7.2787e-08 1.08973e-06 0)
(1.75459e-05 3.16284e-05 -9.02061e-23)
(2.92462e-07 4.14388e-07 -4.94028e-24)
(-1.41257e-06 -4.09526e-07 0)
(-2.18024e-06 5.75054e-07 8.15358e-23)
(-5.22697e-08 2.54594e-07 -1.04419e-22)
(-5.59618e-06 1.43433e-06 2.43066e-22)
(9.31903e-06 4.18705e-07 2.84204e-23)
(1.44388e-06 1.11946e-06 0)
(7.06611e-06 1.11387e-05 -2.37789e-22)
(2.65601e-09 1.0813e-09 6.88557e-23)
(-2.23655e-06 1.201e-06 -4.2387e-24)
(1.84125e-08 -1.51331e-08 -1.0247e-22)
(-0.000168541 0.000129644 -3.44238e-22)
(-1.22914e-06 -1.80629e-06 0)
(-1.15116e-06 -1.88883e-06 0)
(2.68411e-07 1.16925e-06 2.656e-23)
(2.6618e-08 4.49975e-08 2.17125e-23)
(-7.21472e-07 -6.88404e-06 0)
(2.65783e-06 3.83203e-06 -2.84126e-22)
(-5.5897e-06 -5.48036e-07 1.86277e-22)
(3.26024e-06 4.04463e-06 2.13059e-22)
(-5.27261e-06 -3.33358e-06 1.83529e-22)
(-1.30548e-07 -5.19857e-07 2.5409e-22)
(-4.00435e-06 -4.08546e-07 5.9762e-23)
(-4.23921e-06 -1.43876e-06 1.03079e-23)
(-2.68138e-09 1.75432e-08 -3.70596e-23)
(1.25659e-07 -1.09864e-07 1.08007e-22)
(1.2924e-07 -1.18482e-07 8.91531e-24)
(-3.79673e-06 6.47288e-06 -2.72198e-24)
(-7.63281e-06 -2.01834e-06 -2.11065e-24)
(0.000926244 0.00085086 -4.63229e-22)
(-1.74872e-06 5.4849e-07 2.48726e-23)
(4.39228e-06 8.98024e-06 0)
(-7.06391e-06 3.4508e-06 6.57151e-24)
(-9.29182e-06 -7.22259e-06 3.6086e-24)
(5.47707e-08 -8.70456e-08 0)
(-9.71003e-08 3.15866e-07 3.76129e-23)
(-4.16876e-06 -2.43721e-07 -3.14208e-23)
(3.55338e-08 -4.35246e-09 0)
(-0.000461106 0.000123514 -4.63855e-23)
(1.64471e-06 8.29681e-06 2.29428e-23)
(9.32838e-06 4.48301e-07 -5.62946e-24)
(4.44233e-07 -3.6846e-07 7.10947e-23)
(2.79485e-08 4.72158e-08 0)
(-2.45724e-06 -3.36695e-06 1.1794e-23)
(1.58066e-05 2.85235e-05 1.35886e-22)
(-5.35047e-09 2.96944e-09 -9.37315e-23)
(1.12068e-07 1.7392e-07 -3.664e-23)
(1.65241e-07 1.53909e-06 0)
(-6.78916e-07 -6.90369e-06 0)
(-2.95153e-06 -3.51494e-06 -2.03744e-25)
(-1.87841e-05 6.76623e-06 -8.50804e-22)
(-1.84323e-06 6.01293e-07 1.61756e-22)
(-4.1372e-06 1.32083e-06 -3.86391e-25)
(1.1582e-06 7.93633e-06 2.46853e-23)
(3.68029e-07 -1.67192e-06 -7.84196e-23)
(-6.12505e-07 -5.20917e-07 -8.93922e-23)
(4.11503e-08 8.58308e-08 0)
(-4.43997e-08 2.49426e-07 -4.87849e-23)
(-6.92155e-06 -8.84507e-06 0)
(-4.09953e-06 -1.65998e-06 -1.97727e-23)
(2.21513e-08 -1.66387e-08 -2.9951e-23)
(1.82293e-08 -1.96664e-09 8.04774e-23)
(1.11695e-07 1.19608e-07 -6.2889e-23)
(3.22741e-07 -8.45861e-08 0)
(-8.26282e-07 -7.41244e-06 0)
(-3.25751e-06 2.29152e-06 0)
(-4.60037e-06 -3.24904e-06 -3.73558e-23)
(-4.14873e-06 -8.7922e-07 8.76218e-23)
(-6.14245e-06 1.8477e-06 -1.25513e-23)
(-2.06756e-06 1.63572e-06 4.85923e-24)
(6.99104e-07 3.71117e-06 3.52125e-23)
(1.24091e-09 7.02354e-09 -6.34195e-23)
(-5.08374e-06 6.77207e-07 -1.27991e-22)
(-8.19849e-06 -3.38609e-07 0)
(-5.19828e-06 8.89884e-07 2.56033e-23)
(1.01158e-06 3.38623e-07 0)
(-4.54722e-06 -4.28855e-07 0)
(3.82485e-08 -1.16498e-09 6.40504e-23)
(1.99466e-08 -1.44333e-08 4.69411e-23)
(-9.44185e-08 3.04745e-07 0)
(6.65771e-08 -5.78183e-07 1.23005e-22)
(1.64333e-06 4.10174e-07 -3.85393e-23)
(-5.1905e-06 1.15615e-06 2.90021e-22)
(-2.71416e-07 1.08298e-06 -5.09541e-24)
(-3.45604e-08 2.43682e-07 -1.11263e-22)
(-1.19746e-05 3.5082e-05 -1.87339e-21)
(-1.64048e-05 7.48415e-06 0)
(8.73195e-08 1.09686e-07 -7.25301e-24)
(3.99539e-08 -5.81812e-10 0)
(8.31002e-07 3.48326e-07 3.35083e-25)
(5.98477e-08 3.92992e-09 0)
(-4.48419e-10 -1.0125e-09 0)
(3.53818e-08 -6.81488e-08 -2.4765e-23)
(-3.87837e-06 -9.54593e-07 -9.52067e-23)
(-2.69127e-07 -1.03538e-05 -1.92977e-23)
(-1.13286e-06 9.89966e-09 1.29154e-23)
(3.01706e-08 2.60585e-12 0)
(2.48966e-07 3.84045e-07 0)
(1.06055e-07 1.6335e-07 -3.29095e-23)
(-1.40832e-06 -6.45339e-07 0)
(-4.70729e-06 2.31358e-06 0)
(2.05046e-06 -7.73903e-07 3.96544e-25)
(4.14399e-06 2.06741e-06 5.23496e-23)
(1.1652e-06 1.23896e-06 -2.50083e-23)
(3.97948e-08 -7.47781e-08 0)
(-5.17592e-08 2.59815e-07 5.27764e-25)
(-6.83246e-06 2.59619e-05 0)
(7.30354e-08 -5.64246e-07 -1.11007e-22)
(1.17151e-07 1.20604e-07 -4.56877e-25)
(-5.09655e-05 5.89687e-05 -1.23541e-21)
(-5.95089e-06 1.34563e-06 -3.10712e-22)
(-1.22357e-05 -9.94189e-06 -1.04948e-23)
(-5.36846e-06 7.24151e-07 1.4111e-22)
(4.26663e-07 3.82683e-06 8.10033e-24)
(-2.70207e-06 2.4453e-06 0)
(5.56379e-06 1.17535e-05 0)
(-4.70806e-08 -6.16176e-08 -1.17088e-22)
(2.7551e-08 -6.62416e-08 -1.13499e-22)
(-1.56246e-06 -6.86709e-06 -1.14566e-22)
(-4.82107e-09 -9.42882e-08 0)
(-1.02583e-06 -6.64503e-08 0)
(1.38689e-07 4.44726e-08 0)
(1.76177e-06 -8.6346e-07 4.79681e-23)
(-4.21804e-06 -2.92971e-07 0)
(4.967e-08 -3.12761e-09 0)
(2.19803e-06 -2.58607e-06 0)
(-1.76241e-06 1.06792e-06 1.47114e-23)
(3.59017e-08 -3.04394e-09 7.18e-23)
(-4.81681e-06 1.0432e-06 0)
(-3.66392e-07 -7.45533e-06 0)
(-1.92324e-07 -1.79731e-06 -1.12971e-22)
(1.18008e-05 4.95829e-05 1.37867e-22)
(-5.75895e-08 6.8548e-07 -4.94117e-24)
(2.25864e-06 -2.67469e-07 1.04666e-22)
(1.88318e-06 7.41697e-07 1.28297e-23)
(5.24916e-09 5.17266e-09 -6.10796e-23)
(-4.64016e-06 -5.89257e-07 -5.27074e-23)
(0.000167287 0.000573337 2.25304e-22)
(-3.37949e-06 2.05417e-06 2.2001e-23)
(3.51976e-08 1.93642e-06 6.73923e-22)
(-1.35786e-07 5.57652e-06 -1.25846e-22)
(-4.2962e-06 1.14831e-06 1.03822e-23)
(1.10827e-07 1.6613e-07 -5.6759e-23)
(-4.42612e-06 -2.77963e-06 4.1773e-24)
(3.37943e-08 -6.67523e-08 -5.14114e-23)
(8.15879e-08 1.17576e-07 0)
(8.23597e-06 1.79528e-06 1.33529e-23)
(-6.09924e-09 1.47648e-08 2.42702e-22)
(-1.67695e-06 -8.87048e-07 -6.96907e-24)
(-1.58961e-06 3.32107e-07 0)
(-1.51873e-05 -1.14005e-05 4.40804e-22)
(4.01536e-06 2.57438e-06 -2.02647e-23)
(-6.87047e-09 1.8754e-08 -3.42885e-22)
(-6.62277e-07 -7.91915e-07 -1.04474e-22)
(5.23271e-06 1.05128e-05 6.49461e-24)
(2.43241e-07 1.39333e-07 0)
(-2.23763e-06 5.12885e-07 0)
(-4.89327e-06 -3.10367e-07 1.92765e-23)
(-4.88323e-06 -3.63477e-07 2.50419e-23)
(3.48235e-08 5.3597e-08 8.7375e-23)
(3.9477e-05 -3.33447e-05 -7.59683e-22)
(-0.000513353 0.000121612 6.59465e-23)
(-0.0010904 -0.000889749 -3.1232e-23)
(-2.00082e-06 1.55453e-05 -4.15401e-23)
(-2.93315e-06 -6.98955e-07 3.04919e-23)
(-1.26125e-06 5.06403e-06 1.15288e-22)
(-1.71166e-06 -4.42442e-06 1.27014e-23)
(-8.51094e-09 -1.3766e-08 1.07555e-22)
(-1.24573e-09 -3.86245e-11 0)
(8.2468e-06 8.85931e-06 -6.1964e-23)
(0.000394073 -0.000200304 -3.23346e-22)
(-2.00291e-06 3.74503e-06 6.97684e-24)
(-2.1106e-06 -4.42737e-06 -1.35087e-23)
(0.000242676 -0.000235987 6.47689e-22)
(-4.33031e-06 1.54237e-06 0)
(9.31795e-08 3.80068e-07 0)
(1.07135e-07 3.66127e-07 0)
(-5.02023e-06 -1.0148e-07 -7.35702e-23)
(1.47085e-07 2.14428e-07 2.26803e-25)
(2.62888e-07 -1.38171e-06 -1.09173e-22)
(-2.84809e-06 2.19689e-06 0)
(1.02964e-06 -8.44264e-07 -3.62084e-23)
(2.08148e-06 -1.6061e-07 -1.09905e-23)
(-7.01466e-06 2.91035e-05 -2.49974e-22)
(-5.0583e-08 2.61229e-07 -3.59073e-23)
(-1.47549e-06 -6.93565e-06 1.85428e-23)
(-6.54867e-06 -9.4158e-06 1.62986e-24)
(-1.29627e-05 1.89328e-05 0)
(3.72103e-08 -7.06821e-08 -3.30978e-23)
(-4.35352e-06 -2.94349e-07 0)
(3.95572e-08 -8.3445e-08 -5.89674e-23)
(-5.28731e-06 1.74515e-06 4.2969e-22)
(7.27092e-07 3.40529e-07 -1.48235e-24)
(2.39555e-06 -3.26151e-06 1.56935e-23)
(1.62437e-06 -2.41645e-07 1.14883e-23)
(2.22819e-06 1.71325e-07 2.18534e-23)
(1.88372e-06 1.51102e-07 0)
(-3.21227e-07 1.05438e-06 0)
(1.28751e-09 6.16784e-09 0)
(-3.61686e-06 1.08028e-06 1.06337e-23)
(-7.87164e-07 -9.19571e-07 2.32979e-24)
(4.41835e-07 -7.14628e-07 5.36334e-23)
(1.59219e-06 1.10445e-06 7.32161e-23)
(5.80652e-08 -6.86432e-08 0)
(7.98756e-06 2.04257e-06 -4.33925e-24)
(-1.17622e-07 -4.58622e-07 -1.5893e-22)
(5.48907e-06 8.891e-06 0)
(-4.13809e-06 8.39498e-07 -1.71029e-22)
(-2.11189e-06 4.07946e-07 -8.81731e-23)
(-4.34078e-06 -2.7378e-06 0)
(-2.08876e-06 1.81553e-07 0)
(-4.43301e-06 7.94617e-06 -4.43535e-23)
(-2.69102e-08 -7.33176e-08 0)
(5.4735e-08 -4.80451e-08 7.14264e-23)
(1.68465e-07 2.17213e-07 -2.91715e-23)
(-7.08763e-08 3.03346e-07 -5.2588e-23)
(7.12405e-08 3.25511e-07 0)
(-3.48573e-06 -8.17273e-06 0)
(6.86792e-08 6.34274e-08 2.82866e-23)
(-2.25104e-06 1.50818e-07 -4.41748e-24)
(2.53438e-08 2.58613e-07 3.26539e-23)
(-5.95024e-06 8.30271e-06 0)
(3.92809e-08 -1.96025e-08 -5.34437e-23)
(5.26505e-08 -5.41986e-09 -3.43183e-23)
(9.3725e-06 5.42043e-07 0)
(-9.97543e-06 2.50276e-06 -2.9726e-22)
(5.58247e-05 8.29637e-05 -3.9546e-22)
(1.58353e-06 1.28948e-06 -5.84131e-24)
(-1.90246e-06 -6.05604e-06 -1.81308e-23)
(-2.02065e-06 3.66863e-07 0)
(3.12617e-09 -1.05925e-08 -4.76515e-25)
(-1.61982e-06 -7.22998e-06 -1.88293e-24)
(-4.20053e-06 1.93597e-06 7.68814e-24)
(2.18887e-06 -8.70987e-07 0)
(-2.35672e-06 2.36484e-06 0)
(1.37724e-07 2.36602e-07 0)
(2.15165e-06 1.35609e-07 -1.83878e-23)
(5.1502e-08 -6.84999e-09 0)
(1.57111e-07 -2.89991e-07 -7.84537e-23)
(2.1076e-06 -1.40389e-07 0)
(5.31455e-06 2.82169e-06 -3.46697e-23)
(5.51983e-06 2.51648e-06 3.55899e-23)
(2.00864e-06 5.48529e-08 0)
(-0.00010321 -7.31949e-05 -5.74028e-24)
(4.82847e-08 -4.83543e-09 7.22099e-23)
(3.17372e-08 5.60423e-08 -8.9228e-23)
(2.50183e-07 1.55499e-07 1.06049e-24)
(7.08767e-05 -6.53689e-05 0)
(1.12427e-07 5.91843e-07 5.68658e-24)
(2.50896e-06 -7.01023e-07 1.50818e-23)
(1.85364e-08 -5.97865e-09 -8.31822e-23)
(-1.85495e-07 1.73076e-06 5.75349e-24)
(-2.50448e-06 -1.19647e-07 1.12807e-22)
(-2.2489e-09 8.40777e-09 0)
(4.78935e-08 7.84415e-08 5.53138e-23)
(-2.80876e-08 -5.40272e-08 0)
(1.69564e-08 -6.72407e-09 -1.35644e-25)
(2.08573e-08 -8.21631e-09 -7.03844e-23)
(3.49841e-06 2.10521e-06 -4.40691e-24)
(-5.75643e-08 7.94865e-07 6.23798e-24)
(-1.95718e-06 3.22706e-07 -3.22109e-23)
(-8.48066e-08 -9.16828e-09 0)
(1.20206e-06 1.03123e-06 6.49208e-24)
(-4.94356e-06 -1.46317e-07 0)
(-2.11413e-07 6.67373e-07 3.57473e-24)
(4.1668e-08 -1.49689e-08 9.36074e-23)
(3.59862e-06 8.48141e-07 1.0871e-22)
(3.02337e-08 -4.81769e-07 -6.32675e-23)
(9.49416e-08 -1.82744e-07 -1.38803e-22)
(2.06989e-06 -2.91049e-06 2.16042e-23)
(-5.84926e-07 -4.90918e-07 8.93719e-23)
(1.6849e-08 2.15549e-07 -3.30346e-23)
(5.9955e-06 1.69509e-07 -1.41219e-23)
(-3.03785e-06 -1.15283e-06 0)
(5.06312e-08 1.14652e-07 5.45608e-23)
(7.13677e-08 1.00771e-06 -1.92852e-23)
(-5.99353e-08 1.61101e-07 8.21288e-23)
(-4.41427e-06 1.25215e-06 -1.60112e-22)
(-2.28603e-06 -6.79293e-07 0)
(1.318e-08 4.98801e-08 0)
(-1.52999e-07 -2.90291e-07 0)
(2.0948e-07 -1.16107e-07 0)
(-4.91753e-06 -2.84122e-07 1.1371e-26)
(-3.08501e-08 2.51789e-07 9.16026e-23)
(2.279e-07 -4.75875e-06 1.30477e-22)
(3.51295e-06 1.94296e-06 0)
(3.15795e-07 3.63354e-07 2.94176e-23)
(0.00409541 -0.000262783 -9.89997e-23)
(5.13555e-08 7.75151e-08 0)
(-2.78251e-07 7.45824e-06 -3.44835e-23)
(1.17097e-07 -1.09388e-07 0)
(2.44509e-06 -7.85221e-07 -2.38331e-23)
(-3.15347e-08 -4.67093e-08 7.82367e-25)
(-3.99599e-06 1.71071e-06 0)
(2.26961e-06 7.40218e-07 8.09328e-23)
(-3.86772e-06 2.14673e-06 2.45605e-24)
(3.35972e-08 1.14911e-09 5.53444e-23)
(3.20793e-07 1.22733e-06 -1.45148e-22)
(-4.87729e-06 -3.38232e-07 -5.25998e-25)
(2.86378e-09 -6.99542e-09 0)
(-6.0468e-06 -3.279e-06 3.10218e-23)
(-2.69149e-07 -5.47479e-07 1.44706e-22)
(2.6744e-06 6.967e-07 -8.09996e-24)
(2.20528e-08 -9.09723e-09 -1.95979e-23)
(1.59823e-06 2.18775e-06 -1.37066e-24)
(1.09575e-06 1.28076e-05 -3.06906e-23)
(-6.23076e-06 -4.06005e-06 -1.4864e-23)
(3.07141e-10 -1.08703e-07 0)
(3.37083e-09 -1.87424e-07 2.25833e-22)
(1.12618e-06 -1.89883e-06 -1.07131e-23)
(-2.00137e-05 -1.6566e-05 0)
(-7.89503e-06 5.34441e-07 4.79279e-22)
(-3.68777e-05 3.25533e-05 2.70928e-22)
(4.06009e-08 9.27104e-08 7.48568e-23)
(2.24727e-06 -6.56872e-06 0)
(-3.89769e-06 1.37291e-06 0)
(3.0901e-07 4.79935e-07 -2.43048e-24)
(7.73109e-06 2.11197e-06 0)
(2.69172e-06 3.35158e-07 2.78949e-24)
(-7.21084e-06 8.66698e-06 0)
(1.44966e-08 7.41482e-08 3.31058e-23)
(1.61804e-07 1.48824e-07 0)
(-2.44726e-09 9.06856e-09 -1.2621e-22)
(2.24724e-06 1.51712e-06 8.01221e-23)
(-5.90913e-08 -2.92531e-07 3.24008e-23)
(-3.1375e-06 5.95727e-06 4.738e-24)
(1.56525e-06 -2.70004e-06 0)
(-1.89101e-07 -1.05698e-05 1.66734e-23)
(1.59569e-06 -1.53149e-08 -1.19774e-23)
(3.67756e-06 1.00045e-06 -9.47141e-23)
(-6.03114e-06 -7.72106e-07 0)
(-3.70606e-06 -3.67774e-07 0)
(6.66671e-08 1.75475e-06 0)
(-3.40879e-06 1.55201e-06 -4.71394e-24)
(3.98733e-08 -6.18744e-08 0)
(-3.15737e-06 1.43384e-06 1.82624e-23)
(-1.13657e-07 3.16066e-07 0)
(-3.37932e-07 -5.77759e-07 0)
(1.37811e-07 -1.2436e-07 5.77874e-23)
(-7.78151e-06 8.77479e-06 -1.3599e-22)
(5.4834e-08 -8.29491e-09 -3.88752e-23)
(-5.53045e-06 8.49847e-07 2.17276e-23)
(-4.826e-06 -5.18088e-07 -6.56595e-23)
(2.48238e-06 7.40184e-07 8.65708e-24)
(3.53563e-07 -9.48594e-09 0)
(-0.00030488 0.000809956 0)
(2.10533e-06 5.14005e-07 -7.10673e-24)
(5.33453e-08 -4.43933e-08 -1.71442e-22)
(-1.01858e-06 -7.29382e-07 0)
(1.08223e-06 4.08169e-07 -7.14167e-24)
(-5.50625e-07 3.25392e-07 2.75341e-23)
(1.47054e-07 -1.06248e-06 0)
(3.64038e-08 1.46307e-08 3.54756e-23)
(-9.66625e-09 5.09403e-07 0)
(-1.41049e-08 1.80684e-07 -6.92363e-23)
(-2.5019e-06 -5.40293e-06 -2.12908e-23)
(-8.2336e-07 -8.76937e-07 1.00467e-22)
(7.09074e-05 -5.08564e-05 2.51307e-22)
(-8.01833e-06 -8.25308e-06 -2.11945e-22)
(1.41136e-08 4.90506e-07 -1.62551e-23)
(1.71626e-07 2.78245e-07 5.09501e-23)
(3.70831e-08 -1.00811e-09 0)
(-2.0831e-06 4.11257e-06 0)
(4.78738e-07 -3.53042e-07 -1.03369e-22)
(8.75405e-07 6.2691e-07 -6.6024e-24)
(-4.69394e-06 -3.11248e-06 3.50104e-23)
(-4.61308e-09 -9.868e-08 0)
(-2.62344e-06 -8.38326e-06 0)
(-2.18422e-06 -3.76803e-06 0)
(-7.49291e-08 3.10755e-07 -2.56178e-23)
(8.90496e-07 -2.47048e-05 5.06685e-23)
(7.41121e-06 2.26766e-06 9.31268e-24)
(4.11168e-08 -5.75871e-08 0)
(2.82919e-07 3.22001e-07 0)
(-4.56843e-06 7.85217e-07 9.20318e-23)
(-8.04404e-06 -6.70196e-06 0)
(1.62372e-07 2.07049e-07 -2.4927e-25)
(4.40216e-08 -1.40018e-08 -4.80538e-23)
(1.24101e-06 1.34389e-06 0)
(-1.17656e-06 5.31004e-06 -1.14035e-22)
(-7.96364e-06 1.50622e-06 2.45543e-23)
(-4.29678e-06 -2.40972e-07 0)
(1.14733e-08 -9.15354e-08 0)
(-1.18872e-09 -4.83199e-07 -3.26598e-23)
(4.36765e-08 -1.3324e-08 0)
(-8.50848e-06 1.16795e-06 0)
(-4.82679e-06 -2.67912e-06 0)
(-1.56531e-06 6.28686e-06 6.30281e-25)
(-1.9685e-05 -8.01024e-06 9.24059e-23)
(-9.2241e-08 3.11785e-07 -7.8503e-23)
(-8.45631e-07 -2.03934e-06 -9.31877e-23)
(-5.82271e-07 6.16835e-06 -1.24273e-23)
(2.34093e-07 -4.93514e-07 -1.88532e-23)
(2.49241e-08 -7.09796e-08 2.58306e-23)
(-6.29029e-06 1.46766e-06 -3.3303e-22)
(7.1362e-09 7.23418e-08 -3.13495e-23)
(1.56584e-07 2.64711e-07 -1.30159e-23)
(5.39346e-08 -1.00826e-06 0)
(1.15593e-05 -3.48996e-06 -1.38233e-22)
(0.000401231 0.00062697 -8.58072e-22)
(-2.72076e-06 -4.91736e-06 0)
(2.60873e-06 1.13212e-06 -4.40408e-23)
(1.79301e-06 3.30547e-06 2.33346e-23)
(-7.7632e-07 -9.71461e-07 -2.38338e-23)
(-4.91961e-06 -2.67445e-06 0)
(4.33565e-06 2.21329e-06 1.51271e-23)
(-6.77881e-06 3.38665e-06 1.49217e-24)
(9.00157e-07 -2.01608e-06 0)
(-3.9619e-06 1.33374e-06 0)
(1.76763e-07 2.70684e-07 0)
(-5.40432e-05 3.41793e-05 0)
(1.71355e-06 8.24589e-07 0)
(-3.34149e-07 -1.04461e-06 -1.49575e-22)
(1.59664e-06 2.79901e-07 1.40194e-23)
(6.64962e-06 1.01877e-05 4.93678e-23)
(4.37014e-08 -8.18344e-09 4.2578e-23)
(2.87396e-06 -7.92024e-08 0)
(-2.99224e-07 3.14566e-07 3.4795e-23)
(-3.55251e-06 1.14629e-06 -3.62926e-23)
(1.71427e-06 1.18048e-06 1.20361e-23)
(4.69117e-08 7.50459e-08 0)
(-1.91196e-06 4.66306e-08 -5.61169e-24)
(-1.36799e-06 -1.39722e-06 1.47798e-23)
(-6.80359e-06 6.4166e-06 0)
(2.34623e-07 -3.38544e-07 3.79465e-23)
(-1.67225e-06 -2.35846e-06 0)
(9.62095e-06 2.75561e-07 2.01857e-23)
(1.55567e-07 4.95721e-06 -1.98366e-24)
(-4.20324e-06 2.4304e-06 -2.81899e-23)
(6.10677e-08 6.78141e-07 2.61084e-23)
(1.8448e-08 -7.56364e-09 9.57709e-23)
(1.42328e-07 3.45251e-08 0)
(-3.06807e-06 -5.92691e-06 -1.33766e-23)
(2.68099e-06 -2.50752e-07 6.69316e-24)
(1.21459e-07 -9.84207e-08 -7.15513e-23)
(-2.95703e-06 7.45777e-06 1.8154e-23)
(-4.23119e-07 5.64361e-07 3.20916e-23)
(-3.05498e-06 -1.61785e-06 0)
(-0.000339258 6.85266e-06 6.69041e-23)
(-3.83066e-06 1.03714e-06 3.39584e-23)
(-2.09629e-06 7.46596e-07 -7.01535e-23)
(5.73398e-06 8.62485e-06 -3.27422e-24)
(2.04714e-06 5.00528e-07 -4.55298e-24)
(-3.19293e-06 -4.03666e-06 2.02682e-23)
(1.78103e-06 1.63942e-06 0)
(4.24487e-07 -4.07756e-07 3.71785e-23)
(-9.05545e-07 -1.2214e-06 -7.54351e-24)
(-1.58853e-06 -1.19769e-06 8.1434e-24)
(5.80103e-08 -1.24206e-07 1.65968e-23)
(-1.00179e-06 -1.83553e-06 0)
(-2.15887e-06 2.71822e-06 4.18044e-23)
(-1.97562e-06 9.77064e-07 6.05861e-23)
(-4.04108e-06 2.31115e-06 -6.79575e-24)
(3.45328e-06 -2.91897e-05 0)
(5.21721e-06 5.65092e-06 2.19323e-22)
(-3.43028e-07 6.37385e-06 2.08949e-23)
(-5.03587e-07 3.33287e-07 -5.894e-23)
(2.85906e-07 4.67121e-07 2.28737e-24)
(1.79659e-07 2.72866e-07 -2.76154e-23)
(2.61397e-08 -8.24496e-08 6.21953e-23)
(3.34642e-06 -3.80041e-06 0)
(3.43447e-06 1.12232e-05 3.16976e-23)
(-5.69712e-06 1.83033e-06 1.17566e-23)
(-1.07593e-06 8.35278e-06 2.42195e-23)
(-6.28595e-06 -7.60567e-06 0)
(2.0919e-08 -9.0166e-08 -1.5323e-23)
(2.94697e-09 -9.19398e-10 5.38916e-23)
(1.63237e-08 1.50454e-09 0)
(-2.70842e-06 2.57447e-06 -7.77131e-22)
(-2.34559e-06 -3.7039e-06 -6.96249e-24)
(2.61773e-06 -4.55899e-07 0)
(-2.25849e-06 1.74267e-06 8.20585e-22)
(-1.50029e-06 3.63189e-06 -1.16914e-22)
(-8.15958e-06 2.61786e-06 -2.50324e-22)
(-6.16286e-08 2.57869e-07 2.0981e-23)
(-5.09644e-06 -2.49057e-07 0)
(-1.27418e-07 -2.80496e-07 0)
(4.92735e-08 1.03864e-07 0)
(-3.05735e-09 1.34329e-08 -1.41898e-22)
(2.24512e-06 2.16415e-06 -1.55497e-23)
(1.16672e-07 -8.47215e-08 0)
(-5.23477e-06 9.00055e-07 7.9223e-23)
(1.85738e-08 -1.71715e-09 0)
(-2.89345e-07 -2.07437e-07 -2.48449e-22)
(7.93344e-08 4.39954e-08 -7.30948e-23)
(2.22317e-06 -1.57402e-05 0)
(5.92123e-05 -0.00017621 -3.02742e-22)
(-2.33494e-09 1.86264e-09 -6.49615e-24)
(-1.30297e-07 3.13782e-07 0)
(3.37972e-07 1.32738e-06 4.66334e-23)
(-3.17015e-07 -1.11607e-06 0)
(-4.74602e-07 -1.49426e-07 3.5096e-22)
(1.66311e-06 9.20183e-07 -4.54492e-24)
(1.13757e-08 1.04128e-07 1.37291e-23)
(-9.5178e-07 7.89773e-06 -3.87299e-23)
(-5.05078e-08 2.41411e-07 1.07324e-22)
(3.09124e-07 -3.78417e-07 -2.76757e-23)
(1.59391e-07 2.86411e-07 8.17377e-24)
(8.9044e-08 -3.44272e-08 0)
(1.61428e-06 1.45392e-07 1.7599e-24)
(2.39477e-07 1.62769e-07 -3.38552e-23)
(4.41917e-07 -1.83605e-06 7.54926e-23)
(4.82363e-06 -1.08396e-05 1.35818e-22)
(4.01615e-08 -4.43848e-09 0)
(-3.5668e-09 1.86205e-08 0)
(7.22173e-07 5.59406e-07 3.86385e-23)
(-1.22263e-06 7.98689e-06 -2.97039e-25)
(2.73906e-07 -2.66004e-06 2.43178e-23)
(8.78487e-08 1.25073e-07 -2.86491e-23)
(2.04048e-07 5.52666e-07 8.11143e-24)
(5.15704e-08 7.92102e-08 -7.50212e-23)
(0.000256682 0.00020337 8.30315e-22)
(-3.3356e-06 -7.19812e-07 -8.53064e-23)
(2.81637e-09 -1.22245e-09 7.75481e-23)
(2.52132e-06 -5.75515e-07 4.87302e-24)
(-2.92404e-06 -7.38236e-07 0)
(-4.56176e-06 1.5536e-06 2.48249e-24)
(-3.93811e-06 -8.98059e-07 0)
(-6.69666e-08 -1.14451e-07 -1.09931e-22)
(2.20425e-06 2.03694e-06 -5.15685e-23)
(-1.209e-06 5.10299e-06 0)
(-4.62866e-06 9.46429e-07 -5.57832e-24)
(4.31083e-07 6.2791e-07 1.10131e-23)
(-6.79277e-08 2.52201e-07 0)
(3.19446e-06 7.80576e-06 3.16374e-23)
(-7.78958e-07 -3.31172e-06 2.33144e-22)
(-0.00022072 -5.86567e-05 3.07126e-23)
(-7.31424e-07 9.68892e-06 6.46413e-23)
(-1.20516e-06 -1.67261e-06 2.62295e-23)
(7.05207e-05 3.85903e-05 2.2807e-22)
(-1.86421e-06 -1.45734e-06 0)
(-5.32332e-06 7.27115e-07 0)
(-3.85098e-06 1.26765e-06 -4.61946e-23)
(1.26123e-06 -1.87701e-06 0)
(1.77851e-07 2.80728e-07 -6.02091e-24)
(4.17968e-08 5.13106e-08 0)
(6.69587e-07 6.86483e-07 -4.51762e-24)
(2.98016e-08 -3.49966e-09 7.14817e-23)
(5.47988e-06 5.93365e-06 3.05262e-22)
(3.85396e-07 1.15926e-06 6.24338e-23)
(0.000163518 1.38542e-05 -1.10375e-22)
(7.29828e-07 -2.10755e-08 7.25062e-24)
(2.31296e-07 3.8706e-07 1.15164e-23)
(-1.73858e-05 -3.49243e-05 -1.99843e-22)
(5.29063e-06 3.35314e-06 0)
(-1.45049e-06 -6.92718e-07 0)
(9.85054e-06 3.16518e-07 3.62659e-23)
(1.5472e-06 3.34689e-07 -5.79317e-23)
(1.25156e-05 -5.30233e-06 0)
(3.3287e-09 -2.9221e-09 -1.08768e-22)
(1.18768e-07 1.67973e-07 8.99248e-25)
(1.93179e-08 -8.35045e-09 -5.27339e-24)
(8.86133e-07 -5.08957e-07 0)
(5.03317e-06 3.69886e-06 -2.82593e-25)
(5.60847e-08 1.1845e-07 1.86209e-23)
(-4.71067e-08 2.19014e-07 0)
(2.23516e-09 1.35939e-06 1.06178e-23)
(-7.65257e-06 5.33269e-06 1.18855e-24)
(-4.7912e-06 -6.93139e-06 -5.33532e-24)
(-1.65689e-05 1.6799e-05 0)
(-1.67709e-06 3.24395e-06 -7.81869e-23)
(5.09593e-07 7.80946e-07 1.24003e-23)
(1.33026e-07 -1.03342e-07 -1.02545e-23)
(-5.13813e-08 -2.48321e-07 -6.81424e-23)
(-2.4562e-09 2.02857e-08 4.62499e-23)
(1.93149e-07 -1.37878e-06 -4.70747e-23)
(-5.18445e-06 7.46995e-07 -5.29675e-22)
(7.21539e-07 6.50856e-07 0)
(-6.85431e-06 5.43883e-06 -3.28015e-23)
(8.37155e-08 -2.70753e-08 0)
(1.75314e-07 2.06884e-07 0)
(-4.5702e-06 9.519e-07 2.29281e-23)
(5.91001e-08 1.10786e-07 0)
(1.51297e-06 -4.70948e-07 0)
(-1.71612e-06 -1.51858e-06 4.70583e-23)
(-1.8396e-06 1.50235e-06 6.34343e-23)
(1.29238e-06 4.06967e-07 0)
(-3.36065e-08 -8.14592e-08 -1.4366e-22)
(2.77108e-07 3.50927e-07 1.46684e-25)
(-3.02242e-07 -2.43936e-07 1.19175e-22)
(1.6531e-06 1.53818e-06 0)
(1.23043e-05 -1.61226e-06 7.11102e-23)
(8.72465e-07 1.89775e-08 -1.59185e-23)
(1.57144e-08 -1.83244e-09 7.33084e-23)
(3.30164e-08 -1.98868e-09 -6.51794e-23)
(-3.26485e-09 1.85637e-08 1.53812e-22)
(6.7057e-06 7.57333e-06 4.02753e-23)
(-2.0025e-06 3.96741e-06 2.44209e-23)
(-3.97699e-06 -5.93647e-06 -2.73068e-22)
(-1.84872e-06 -1.50805e-06 3.40791e-23)
(2.09201e-07 2.876e-07 -4.85138e-23)
(-1.34404e-05 3.84704e-06 0)
(-6.07744e-08 2.93002e-07 3.39032e-23)
(2.05544e-07 2.69673e-07 3.02312e-23)
(5.33067e-07 9.76641e-07 1.44722e-22)
(9.13893e-08 -9.7819e-08 0)
(8.3292e-08 1.14794e-07 3.55344e-23)
(-5.02913e-06 -5.468e-07 2.1745e-23)
(7.57743e-08 1.64847e-08 1.06803e-22)
(-0.000199702 -1.47653e-05 0)
(-3.19691e-06 -6.67039e-07 6.86726e-23)
(6.01492e-08 -2.10236e-06 1.66397e-22)
(1.06735e-06 -2.84395e-06 -7.81644e-24)
(-4.41686e-06 -2.75845e-06 4.72488e-24)
(-5.19747e-07 5.52013e-06 0)
(1.9675e-07 4.61924e-07 -3.5723e-24)
(3.84276e-06 8.00111e-06 -3.06032e-24)
(1.28119e-06 4.6102e-06 1.00909e-22)
(4.73727e-07 -8.87905e-08 0)
(-8.65424e-09 -1.21513e-07 0)
(7.34476e-07 6.79503e-07 -6.74535e-25)
(-2.07194e-06 -7.92091e-08 0)
(7.34448e-07 5.36555e-07 -4.73598e-23)
(2.33325e-07 1.71249e-07 0)
(1.59837e-09 9.68453e-11 0)
(0.000232112 0.000761183 1.22639e-21)
(2.97277e-08 -6.53534e-08 3.99621e-23)
(2.64009e-08 1.21878e-07 -4.81231e-24)
(-4.50767e-06 9.25929e-07 9.10762e-23)
(9.73714e-07 6.12406e-07 0)
(-4.50689e-07 1.51843e-06 5.30174e-26)
(-2.81398e-06 2.22226e-07 0)
(3.05638e-08 1.10869e-07 3.94959e-23)
(3.70067e-08 -4.01241e-08 6.4198e-24)
(1.9424e-08 -1.04257e-08 6.68997e-23)
(6.43032e-07 -8.48069e-07 0)
(1.61412e-09 5.61608e-10 -7.80256e-23)
(-1.47995e-06 -2.23436e-06 0)
(2.38331e-07 2.53321e-07 1.31584e-23)
(6.19119e-07 1.64827e-06 0)
(-3.19032e-07 1.26639e-06 -4.26966e-23)
(4.07989e-08 2.11318e-08 0)
(2.51372e-07 3.00965e-07 0)
(8.27348e-09 1.04383e-06 0)
(5.51835e-07 -9.26044e-07 3.63227e-23)
(-6.47235e-06 -4.3518e-06 -1.96871e-22)
(-3.4511e-06 -3.13188e-06 7.54198e-23)
(2.2486e-07 -8.37219e-08 5.29273e-23)
(1.87226e-06 2.80551e-06 -2.53907e-23)
(2.36534e-09 -4.62023e-08 0)
(-9.60894e-07 6.24053e-06 -2.71142e-23)
(-3.02252e-06 -4.39324e-06 0)
(-3.18632e-06 -5.42351e-07 1.07727e-24)
(6.17645e-07 4.97106e-06 0)
(-6.15447e-06 -1.98998e-06 8.72121e-23)
(2.61401e-06 4.43661e-07 -3.32676e-24)
(-3.91254e-07 -5.6096e-06 0)
(-5.60097e-06 -1.30853e-05 8.92093e-24)
(1.94672e-08 -1.47006e-08 0)
(-2.1711e-06 5.7347e-08 3.51906e-24)
(-4.43383e-06 -5.9013e-06 4.97636e-22)
(-0.00056963 -0.000532147 1.52232e-21)
(-1.50918e-07 -2.30897e-07 1.66833e-22)
(-2.53227e-07 8.73731e-07 -1.67814e-22)
(4.73495e-08 -7.80236e-08 3.49057e-23)
(1.00497e-05 7.86821e-06 5.71847e-23)
(1.56739e-07 2.79955e-07 2.79187e-23)
(-2.364e-06 9.31331e-06 3.68481e-24)
(6.56034e-08 8.03842e-08 0)
(6.3263e-08 1.33004e-07 -6.50929e-23)
(4.09775e-06 6.78313e-07 1.38494e-22)
(1.00817e-06 3.7079e-06 0)
(-7.12426e-08 -9.59413e-09 0)
(-1.47147e-07 3.46382e-07 8.43345e-23)
(6.34678e-08 1.33924e-07 -2.11445e-23)
(-4.0618e-06 3.01821e-05 -6.68836e-23)
(-2.24284e-05 1.87249e-05 0)
(8.07762e-07 -7.02176e-08 1.5104e-23)
(-1.09143e-06 5.65148e-07 -4.82217e-23)
(-0.000318585 0.000405682 0)
(-5.35179e-06 6.20975e-07 -8.30836e-24)
(-2.60271e-09 -4.39466e-08 1.78446e-25)
(-5.3623e-07 -9.15614e-07 0)
(1.70082e-07 -3.50726e-07 5.62481e-23)
(5.55376e-08 -1.96229e-09 -2.84456e-23)
(-2.79569e-06 6.37622e-07 0)
(4.45651e-07 -7.82705e-07 0)
(-6.74795e-08 -6.5601e-07 1.86514e-22)
(-4.10616e-06 1.77327e-06 0)
(7.68429e-08 1.13624e-07 -2.30966e-25)
(7.85913e-07 -8.74871e-07 -3.81882e-23)
(-9.14205e-07 -8.24529e-07 -1.36298e-22)
(4.41628e-08 -1.33433e-07 -1.14655e-22)
(3.74659e-08 2.74294e-08 -4.51391e-23)
(-1.19722e-06 5.95007e-06 3.46059e-23)
(2.08197e-06 6.95917e-06 7.21244e-23)
(6.15511e-08 1.85448e-08 2.51642e-23)
(5.76618e-08 2.43338e-09 4.06536e-23)
(2.37546e-06 -1.468e-06 -6.54683e-23)
(6.58601e-08 -5.18852e-08 7.45216e-23)
(2.6488e-07 6.62615e-07 0)
(1.6016e-06 -2.2672e-07 1.98359e-23)
(-7.41223e-06 1.13233e-06 8.67778e-23)
(-4.27894e-06 -3.55703e-06 0)
(1.1333e-07 -8.33107e-08 0)
(1.03175e-06 8.3395e-07 9.99783e-24)
(7.577e-06 1.77404e-06 2.93009e-24)
(1.82813e-07 5.93058e-07 0)
(-1.39749e-09 3.77694e-09 1.38535e-22)
(1.89229e-06 -4.1124e-06 1.38699e-22)
(1.97748e-07 1.61363e-07 1.526e-24)
(6.57253e-08 -7.74251e-08 0)
(0.000546931 0.000512723 -4.71173e-24)
(-4.16007e-06 1.64581e-06 0)
(1.65965e-07 2.48438e-07 0)
(-7.18256e-06 1.33458e-05 0)
(-2.56244e-07 -3.62265e-06 0)
(1.43736e-07 2.61821e-07 2.97721e-23)
(2.40332e-08 -1.60467e-07 1.64273e-23)
(3.17395e-06 -1.40569e-06 0)
(2.93641e-08 -1.59998e-07 -2.10071e-23)
(2.89819e-07 3.29943e-07 2.53676e-25)
(-3.10319e-06 1.49623e-06 0)
(2.60737e-09 -4.53776e-10 0)
(6.09369e-08 1.25445e-07 -4.35397e-23)
(-2.42782e-06 2.1665e-06 -1.15972e-23)
(2.02955e-05 -1.70651e-05 0)
(-9.36752e-06 1.93379e-06 -4.33602e-22)
(-1.67088e-06 -1.63535e-06 -8.08335e-23)
(3.8345e-06 1.18859e-05 0)
(3.07755e-09 -5.53707e-08 0)
(-3.25642e-06 -1.13165e-06 -3.03129e-24)
(3.64729e-05 2.68463e-05 -2.17406e-22)
(8.37517e-08 2.61432e-07 2.86049e-23)
(-3.06876e-05 8.44482e-06 -1.41378e-22)
(2.32258e-06 1.50969e-06 2.72136e-23)
(-6.14604e-06 -9.23631e-06 0)
(-9.02121e-06 -6.76272e-06 -2.38054e-24)
(1.01294e-07 5.13168e-07 3.31755e-23)
(6.10557e-07 2.1196e-06 0)
(-1.78288e-06 -8.06241e-08 -4.59441e-22)
(-5.85578e-05 -5.0694e-05 0)
(1.63927e-06 -3.70571e-06 -9.95558e-23)
(2.89192e-07 4.9747e-07 0)
(1.93253e-06 -8.36138e-06 -4.37378e-23)
(2.67577e-06 1.04746e-06 -1.52095e-22)
(-0.000219954 0.000401828 -7.45794e-22)
(2.85012e-10 1.76808e-07 2.43377e-25)
(1.82123e-06 1.53195e-06 0)
(-2.66782e-06 -7.61679e-07 0)
(-4.60661e-07 4.06079e-08 -4.45773e-22)
(1.49623e-07 2.09123e-07 -1.99855e-24)
(9.88789e-06 1.70544e-07 -2.70628e-23)
(-1.11474e-05 3.62216e-06 5.68277e-22)
(9.45595e-06 -1.47484e-07 1.68061e-23)
(1.70399e-08 -1.66175e-07 -7.41196e-23)
(-2.292e-06 -1.55585e-05 0)
(1.1419e-06 -7.40838e-07 0)
(3.90777e-06 5.39611e-06 -3.0667e-23)
(2.13173e-06 3.94582e-07 -2.56465e-23)
(1.14664e-07 2.16735e-07 -4.37163e-23)
(-9.53286e-08 3.38717e-07 7.1156e-23)
(-1.4949e-05 -8.90508e-06 -4.01147e-23)
(9.45673e-06 4.26446e-07 0)
(8.34604e-06 -3.86322e-07 0)
(1.4921e-07 1.23872e-07 -1.30326e-24)
(8.04796e-07 1.84758e-06 6.83468e-24)
(3.60555e-08 -1.59509e-09 -7.26088e-23)
(-8.20175e-06 -2.80607e-05 0)
(-1.50516e-07 3.56697e-07 0)
(4.6913e-07 -8.28803e-08 4.06054e-23)
(-1.77406e-06 8.41428e-07 8.84448e-23)
(7.05527e-08 4.65136e-08 -2.73641e-23)
(1.21252e-06 -1.65603e-06 0)
(5.8437e-08 1.10165e-07 -2.30635e-23)
(3.44932e-06 -4.957e-06 0)
(-3.63044e-07 -8.10166e-07 -1.74141e-23)
(-7.85345e-07 -8.04158e-07 1.66855e-24)
(-8.12092e-06 -9.19909e-09 -3.56869e-22)
(-1.5113e-08 -9.57135e-08 0)
(1.3039e-07 -1.12852e-07 0)
(-4.99874e-05 -1.1418e-05 5.39571e-22)
(-3.79693e-06 -3.53005e-07 7.01941e-23)
(-5.76045e-08 2.32427e-07 -2.60326e-23)
(4.5705e-08 -7.16021e-09 0)
(4.97163e-07 -6.17221e-07 3.40099e-24)
(-4.78018e-06 -3.18775e-07 -8.37514e-23)
(-2.92466e-08 2.05161e-06 -2.10912e-23)
(-2.91047e-06 1.77457e-08 -4.51419e-23)
(-3.88928e-06 -3.74344e-06 0)
(1.80753e-07 2.24764e-07 5.23529e-23)
(-5.22111e-09 1.85215e-08 2.52571e-24)
(-6.81066e-06 1.60609e-06 0)
(2.2678e-06 -7.21607e-06 -1.16157e-23)
(-1.55376e-06 -1.7006e-06 6.59586e-23)
(4.10813e-08 1.02009e-07 -7.60893e-26)
(-9.81054e-07 -6.24898e-07 0)
(-3.88196e-07 1.96616e-06 -2.12301e-23)
(6.11822e-08 -1.03274e-07 6.26368e-23)
(1.52967e-08 1.01239e-09 6.6281e-23)
(1.13504e-07 1.45682e-07 -1.79045e-23)
(-2.66262e-05 -2.99658e-05 0)
(-6.40251e-06 -4.17667e-06 -2.82998e-22)
(-2.89223e-06 1.87309e-06 -3.13634e-23)
(5.08641e-08 -3.69696e-10 -8.57442e-24)
(5.34497e-07 5.1105e-07 -4.80801e-23)
(5.72921e-06 7.80097e-06 0)
(-8.15445e-08 -9.29215e-08 5.2299e-23)
(9.79043e-08 -7.70557e-08 0)
(-4.52842e-07 -8.94423e-07 2.22131e-23)
(3.89553e-08 -6.27797e-08 6.63209e-23)