/*--------------------------------*- C++ -*----------------------------------*\
| =========                 |                                                 |
| \\      /  F ield         | OpenFOAM: The Open Source CFD Toolbox           |
|  \\    /   O peration     | Version:  v2012                                 |
|   \\  /    A nd           | Website:  www.openfoam.com                      |
|    \\/     M anipulation  |                                                 |
\*---------------------------------------------------------------------------*/
FoamFile
{
    version     2.0;
    format      ascii;
    class       volScalarField;
    location    "300";
    object      k;
}
// * * * * * * * * * * * * * * * * * * * * * * * * * * * * * * * * * * * * * //

dimensions      [0 2 -2 0 0 0 0];


internalField   nonuniform List<scalar> 
15335
(
0.0191373
0.000237662
0.0140365
0.00016186
0.0178521
0.000149164
0.000203245
0.00024533
0.000163836
0.0249756
0.0172291
0.000156208
0.0189772
0.0123662
0.0898725
0.0102029
0.000172716
0.061698
0.000146053
0.0115805
0.0642945
0.0656438
0.000203205
0.000146157
0.000219544
0.000184162
0.00484863
0.000183998
0.0340427
0.000153443
0.0057289
0.0902772
0.000149756
0.000149848
0.000149293
0.000393717
0.000345195
0.00230275
0.0245946
0.000207255
0.000227024
0.00554147
0.000149076
0.000161408
0.0204086
0.000146708
0.00659477
0.0769988
0.021273
0.000155073
0.000146158
0.0921288
0.00560645
0.000149853
0.000150229
0.000199936
0.000178133
0.0921409
0.00579205
0.0174694
0.0464059
0.077165
0.000163592
0.000156463
0.000149097
0.000155747
0.0245486
0.0912125
0.000148884
0.000145232
0.000169511
0.00015388
0.000219636
0.0510044
0.0365153
0.0537674
0.000231732
0.000198393
0.0736548
0.00014972
0.0321736
0.00310311
0.0326809
0.000220651
0.00521637
0.000147114
0.000145949
0.000161197
0.000153462
0.000245034
0.0297538
0.000193124
0.00015573
0.000495051
0.00815687
0.000155533
0.000146697
0.000164776
0.000146694
0.000149803
0.000149004
0.0560676
0.000626089
0.000188885
0.000153699
0.000163368
0.00015
0.000161098
0.000477689
0.000167352
0.0386123
0.000197394
0.000148477
0.000156414
0.00493699
0.00015335
0.000169516
0.000437375
0.0274966
0.00273562
0.0308882
0.0159443
0.0506777
0.0512594
0.000148944
0.000148885
0.000175458
0.000149243
0.000188601
0.000150163
0.0485851
0.0239245
0.000147439
0.000168904
0.000195583
0.00014717
0.0345163
0.0456466
0.000163566
0.000242557
0.000192755
0.00024689
0.000170866
0.0001731
0.0604084
0.00810072
0.0490768
0.000460099
0.00019503
0.0362861
0.000156467
0.0911418
0.000148894
0.000155166
0.0455778
0.000149758
0.0822149
0.020471
0.000446488
0.0842432
0.000149678
0.000158455
0.0565326
0.000174485
0.0252253
0.0185576
0.0234676
0.000146175
0.00062132
0.00884711
0.0143646
0.002614
0.076252
0.000168181
0.000205992
0.000149727
0.000149528
0.0509689
0.0366543
0.0112259
0.000207549
0.000625509
0.0501197
0.000166331
0.000166348
0.0277637
0.000160534
0.000161015
0.0486675
0.050743
0.0151784
0.000225788
0.000160536
0.000212285
0.0015064
0.028288
0.000148583
0.0236475
0.000149157
0.0222466
0.000164451
0.000168821
0.00016638
0.0163396
0.0185247
0.000199653
0.00014959
0.000168574
0.00015975
0.000158029
0.000174721
0.000148969
0.0476621
0.000153073
0.000209796
0.00016887
0.0141815
0.0916222
0.000197894
0.000219011
0.000148916
0.000148301
0.000161641
0.000159876
0.000201836
0.00653989
0.000147205
0.00774132
0.00017379
0.0517793
0.000147274
0.000146313
0.0240445
0.000215186
0.0231458
0.000172505
0.000212415
0.000197524
0.000149415
0.00507941
0.0743075
0.000167509
0.0484983
0.000166985
0.0200685
0.000147084
0.000151419
0.0185599
0.0711064
0.0707583
0.0144668
0.0180018
0.000147065
0.000146204
0.000174069
0.0195546
0.000192743
0.0495124
0.000145037
0.000201985
0.0081125
0.000149782
0.000146666
0.000149088
0.000149236
0.000144966
0.0861384
0.0244569
0.0210832
0.000149141
0.0878544
0.0219207
0.0209097
0.000147268
0.0189817
0.000152631
0.000149832
0.000210156
0.000156034
0.000173479
0.00680439
0.0560724
0.000147829
0.000192417
0.000159089
0.0395394
0.0804882
0.000157696
0.000151872
0.000150919
0.0201274
0.000155858
0.00016825
0.000232297
0.000156737
0.00211397
0.000146743
0.000223586
0.000149273
0.0473489
0.000148997
0.0758357
0.000187428
0.051338
0.000147338
0.07271
0.023688
0.000149439
0.0357438
0.000154772
0.0482952
0.000149604
0.000221532
0.0473235
0.0445831
0.000148794
0.000149637
0.0765913
0.00871853
0.000203408
0.000233894
0.000148813
0.00347517
0.0474804
0.00016335
0.0461853
0.0486709
0.0479393
0.000158121
0.000156278
0.000149723
0.000187403
0.000151079
0.000240024
0.000170212
0.000652787
0.000167117
0.02351
0.00438641
0.0236974
0.00019981
0.000208668
0.000148499
0.000208208
0.000163474
0.000154704
0.000149868
0.00023291
0.000146469
0.0286849
0.05715
0.0459982
0.000154162
0.00995968
0.0187281
0.000148316
0.000159614
0.000166257
0.00017931
0.000189991
0.000157451
0.000183168
0.000159066
0.0288787
0.00015944
0.0145169
0.000410721
0.000182786
0.000155565
0.000147076
0.0462237
0.000155606
0.000167012
0.0911598
0.00014884
0.00518933
0.090662
0.000159904
0.000242751
0.0479894
0.000148452
0.00015657
0.0299387
0.0287433
0.000161021
0.000147186
0.000198136
0.000168476
0.000249002
0.0192874
0.000148832
0.000152872
0.000147175
0.000244865
0.0373917
0.000199565
0.00023381
0.000162886
0.000167375
0.0708766
0.000188975
0.000189537
0.0281609
0.000157712
0.000152683
0.000189661
0.040955
0.0273684
0.000213722
0.000226064
0.000221681
0.000158827
0.0444106
0.0398432
0.000232831
0.0795009
0.0457458
0.000154835
0.000221354
0.000170421
0.000158376
0.0183248
0.0545139
0.000146631
0.000231774
0.046765
0.000208294
0.0746897
0.000158108
0.00515956
0.0842217
0.00538373
0.0155848
0.0845074
0.023609
0.000195444
0.0736923
0.0153614
0.000145116
0.000150002
0.00438064
0.0494753
0.000149298
0.000237175
0.00017772
0.000167592
0.016064
0.000208955
0.000197634
0.0301445
0.0160116
0.0230772
0.00017322
0.000155111
0.0838217
0.0812036
0.000149251
0.0633833
0.0498468
0.000197287
0.0754575
0.000270204
0.000199775
0.0719067
0.000178727
0.000162567
0.00015913
0.000149173
0.000171842
0.0542021
0.000227538
0.000231286
0.0318477
0.000148862
0.000149644
0.000149724
0.000402386
0.0915846
0.0497075
0.000505731
0.000198364
0.00027447
0.000164149
0.0304296
0.000151636
0.000148191
0.00014971
0.0242693
0.000149063
0.0525377
0.000145395
0.000151526
0.000147399
0.0466331
0.000235404
0.000149771
0.000162841
0.000199994
0.000158615
0.000156572
0.0772148
0.000158758
0.000229617
0.000155565
0.0194504
0.000152971
0.000148454
0.0149689
0.000152391
0.000163711
0.0462405
0.000147012
0.000149705
0.0178095
0.000364701
0.00259828
0.000154742
0.000164711
0.000151401
0.0345608
0.0520374
0.000149699
0.0477835
0.0472675
0.0520609
0.054101
0.000149444
0.0329868
0.0814266
0.0353453
0.0178687
0.000164397
0.0748338
0.000167843
0.00622536
0.000243904
0.0611902
0.00920912
0.0589405
0.0525765
0.0443617
0.000170003
0.000152807
0.000158664
0.000167366
0.000148137
0.000195828
0.000183292
0.0208717
0.00019813
0.000190511
0.000313674
0.0713242
0.0834217
0.0458941
0.000221991
0.000199728
0.000149744
0.0001573
0.000145094
0.000161647
0.0717293
0.0001511
0.000163777
0.000185337
0.000243791
0.0301865
0.0102793
0.000205731
0.0240877
0.000149324
0.000150959
0.000149683
0.000160775
0.0240342
0.000168086
0.000212119
0.000148344
0.00016834
0.0400324
0.000147659
0.000167537
0.081442
0.0647434
0.0179819
0.000148852
0.000155967
0.000153101
0.0898303
0.0186632
0.000162293
0.000145466
0.000147212
0.000149621
0.0502184
0.000212222
0.000404373
0.0611242
0.000153578
0.000230236
0.000160791
0.000154625
0.0843163
0.000149145
0.000161008
0.0543421
0.000147436
0.0162579
0.0483316
0.000163768
0.000243427
0.0917749
0.08082
0.000166674
0.0731551
0.000184455
0.000155653
0.000149192
0.000166973
0.00019774
0.0838931
0.000170769
0.000149591
0.0257312
0.000148613
0.000158823
0.038603
0.000197202
0.000185889
0.0292561
0.000163278
0.000148362
0.000149686
0.000160003
0.000149589
0.0813717
0.000152663
0.000190038
0.0300051
0.000145905
0.000155258
0.0283365
0.000159999
0.000176224
0.092064
0.000150965
0.000222242
0.000149217
0.0722714
0.000216356
0.0547819
0.000195202
0.0269138
0.0466635
0.000168169
0.0176075
0.000145707
0.000198258
0.000177208
0.00284136
0.000151668
0.0717792
0.000148544
0.0409781
0.000158648
0.000303237
0.000147322
0.00015096
0.000192804
0.000201224
0.000149092
0.000166474
0.000150768
0.00022149
0.00829822
0.000161972
0.0169905
0.00897539
0.050449
0.000149278
0.0848579
0.000151656
0.000146261
0.000202538
0.000158112
0.000154389
0.0425861
0.000160432
0.000160172
0.000159146
0.000149397
0.00014586
0.070867
0.0454769
0.000146719
0.000146407
0.000206824
0.000147215
0.0202772
0.000167345
0.0286586
0.0910739
0.000149202
0.000169068
0.0642421
0.000183745
0.000149781
0.000168716
0.000168882
0.000149011
0.0277657
0.0420677
0.000167096
0.0226135
0.00343665
0.000166477
0.000148877
0.0811528
0.000148835
0.000155791
0.00020815
0.000149342
0.000151367
0.000203244
0.000420477
0.00312948
0.0587908
0.0485451
0.000149256
0.0538739
0.00803323
0.000172285
0.00369718
0.00144178
0.000234622
0.000237585
0.000183143
0.0457417
0.000161593
0.00950365
0.000168881
0.00016414
0.000177491
0.000192578
0.000326483
0.000153567
0.00017568
0.07791
0.000157217
0.000159999
0.0441582
0.00713146
0.0232447
0.000149658
0.00127643
0.0485801
0.0687915
0.0190847
0.000150775
0.000163354
0.000229577
0.0206219
0.0234491
0.000164502
0.0436294
0.000147161
0.000211661
0.000166155
0.000155204
0.0646717
0.000147267
0.0566368
0.000163276
0.000171608
0.000156836
0.000158397
0.00361747
0.000149234
0.000149235
0.00343857
0.0197366
0.000164087
0.000147063
0.000157217
0.0232627
0.000192042
0.00843078
0.0912056
0.000161746
0.000149552
0.0322771
0.000178283
0.0608863
0.000162586
0.000159741
0.000192998
0.000149152
0.00014751
0.000164213
0.00871247
0.000176497
0.000207588
0.00014689
0.0143314
0.0479048
0.00014948
0.000149044
0.00015807
0.000148473
0.0386335
0.000145261
0.000148574
0.000148894
0.000149299
0.00014986
0.00014862
0.000145442
0.0898886
0.000171101
0.000161828
0.00572946
0.000149176
0.000155845
0.000154535
0.0659917
0.000371224
0.0653949
0.000159132
0.000149351
0.00464334
0.000149702
0.0472292
0.000158157
0.000181467
0.00438049
0.0385791
0.000149249
0.000146912
0.0447199
0.070613
0.000161533
0.000160724
0.000145799
0.000223836
0.000166741
0.000161844
0.000152805
0.000145257
0.0364363
0.000160593
0.000146352
0.000363076
0.00500366
0.00551349
0.0156518
0.000197885
0.000145748
0.0234982
0.000212069
0.00112092
0.000161757
0.000159117
0.000193593
0.000159995
0.00430179
0.000585526
0.000147294
0.000184003
0.000193178
0.000149418
0.00047621
0.000154465
0.000153302
0.0797166
0.0815353
0.000149373
0.0482502
0.00312465
0.00014847
0.000150951
0.000221256
0.000309944
0.000177191
0.000146632
0.000175271
0.000169421
0.0701962
0.0547142
0.0151071
0.000168834
0.000150708
0.0331451
0.000155103
0.000164148
0.000153007
0.0702923
0.000248672
0.000152806
0.000147961
0.000163026
0.0721837
0.0491242
0.000149239
0.000149018
0.0476039
0.000148433
0.000204262
0.000216718
0.000146552
0.000148577
0.0810405
0.000159464
0.0841359
0.00990764
0.000149921
0.000155255
0.000209179
0.000155591
0.000185601
0.00020853
0.00016176
0.000148565
0.000146605
0.0530133
0.000161301
0.000148646
0.0544997
0.0156089
0.000149805
0.000222939
0.000148261
0.000155301
0.000149528
0.0285746
0.0430781
0.000149487
0.00015106
0.0732223
0.000158584
0.000184296
0.000153864
0.000168304
0.00014929
0.000165426
0.00014921
0.00138389
0.0496783
0.000152794
0.00016586
0.0508216
0.000155056
0.0656798
0.012371
0.000163311
0.000148928
0.0753981
0.000234947
0.000148535
0.000243246
0.000149503
0.000337016
0.0248705
0.000149596
0.0820733
0.000148524
0.00640291
0.000182248
0.0395532
0.000166558
0.0202545
0.00014578
0.0770984
0.000148692
0.000158589
0.000527854
0.0470427
0.000163565
0.0909906
0.028085
0.000229459
0.0208336
0.0844081
0.00016351
0.0844929
0.0126885
0.000152944
0.000192595
0.000220602
0.000147431
0.000163002
0.000165131
0.000161973
0.00839108
0.000195634
0.000150551
0.000208685
0.000148945
0.000288481
0.000148512
0.0621106
0.000147086
0.0217875
0.0473808
0.000230101
0.000222319
0.0731797
0.000161517
0.000146674
0.000173803
0.00959776
0.000179501
0.000147165
0.000167455
0.000153726
0.000162055
0.000171387
0.0440637
0.0817614
0.000149763
0.0357768
0.000165647
0.0002297
0.0429746
0.0821036
0.000261195
0.000147205
0.000169677
0.0917657
0.000153272
0.00745896
0.00014733
0.00014888
0.000148608
0.000148423
0.000160311
0.000198027
0.000158408
0.0169793
0.00015641
0.000148708
0.000149352
0.0455937
0.000346774
0.000153489
0.00019699
0.0200462
0.0177133
0.0850086
0.000160041
0.000175002
0.0217128
0.000148529
0.000153638
0.000432135
0.000149683
0.0229504
0.000146733
0.000147937
0.0226731
0.000165146
0.000207867
0.0543287
0.000157499
0.000145871
0.000151537
0.000160164
0.0507066
0.0424332
0.0242016
0.000145129
0.000148595
0.000154326
0.000149424
0.000153119
0.000149427
0.000146308
0.000149241
0.000186814
0.000148612
0.000149339
0.000454452
0.0447841
0.000153946
0.0477334
0.000150137
0.000153868
0.0249407
0.000231809
0.000157437
0.0500786
0.0200818
0.000196071
0.00014672
0.00245346
0.0138667
0.000164772
0.0727037
0.0501108
0.059856
0.000302558
0.000167248
0.000164792
0.0598103
0.000178556
0.000151915
0.000146747
0.0257151
0.000190099
0.0774878
0.000149387
0.000149227
0.0710792
0.000168454
0.0773523
0.000174077
0.000148446
0.000234591
0.0919833
0.000153718
0.000253574
0.00150537
0.000283318
0.00380431
0.000151078
0.000166407
0.000190573
0.0268952
0.000205888
0.0173541
0.000149174
0.000203155
0.0453543
0.00521232
0.000149259
0.000148414
0.000235714
0.000187331
0.000149579
0.0189074
0.00015304
0.000149876
0.000144188
0.0444378
0.00976529
0.0616378
0.000149796
0.000149592
6.72774e-05
0.000196615
0.000192367
0.00020752
0.000183445
0.000165933
0.000148697
0.0475697
0.000243901
0.080163
0.0244817
0.000170808
0.00026579
0.000166713
0.0825186
0.000163958
0.0467033
0.0219446
0.000149943
0.000177427
0.000183309
0.0748682
0.000151899
0.000148949
0.00689033
0.000166127
0.0849063
0.0412124
0.018241
0.000162216
0.0524469
0.0723913
0.00016677
0.0415864
0.00342467
0.00015126
0.0238955
0.0216648
0.000212536
0.0540607
0.0455962
0.000150064
0.0220262
0.000163085
0.01401
0.000188322
0.0525556
0.00023413
0.000276738
0.000162653
0.00014882
0.000148659
0.000149651
0.000149892
0.0204193
0.000224137
0.000146533
0.000148708
0.0816229
0.000147212
0.01098
0.0508135
0.00423735
0.000222298
0.000149797
0.0501347
0.000150215
0.01963
0.000147504
0.0675522
0.0139652
0.000192604
0.0544153
0.000152693
0.0605443
0.0599487
0.011956
0.0432486
0.0258326
0.055489
0.049833
0.0235593
0.00016317
0.0119069
0.000151037
0.000149608
0.000208721
0.0211094
0.056274
0.000150193
0.000150653
0.00014628
0.000177653
0.000221691
0.000165308
0.000148489
0.000272265
0.000166494
0.00014837
0.000149183
0.000182052
0.000367475
0.0806287
0.000149902
0.000221535
0.000147673
0.00015749
0.0269047
0.000149057
0.063447
0.029177
0.000166212
0.000174467
0.000176321
0.000149222
0.000149461
0.000200057
0.000201917
0.000178559
0.000145094
0.000166646
0.0147881
0.0199006
0.006042
0.000153469
0.00015966
0.000237785
0.000177745
0.0455244
0.000149535
0.000148298
0.000182404
0.0818036
0.000164677
0.0315996
0.000208635
0.000163661
0.000151292
0.000147111
0.000197875
0.000152307
0.000159944
0.000195077
0.000149703
0.0597469
0.00014838
0.000148893
0.000160382
0.000149544
0.0807408
0.0353797
0.0194095
0.0198151
0.01917
0.000192524
0.000172726
0.000154542
0.021482
0.00024216
0.000147388
0.020739
0.00351376
0.000332248
0.0455788
0.0324405
0.0511953
0.000149622
0.000333311
0.0868878
0.000181413
0.000153759
0.0447815
0.000171778
0.000159322
0.000165973
0.000155903
0.0311361
0.0527226
0.00612389
0.0816017
0.000187264
0.000352949
0.0146288
0.000217111
0.000182442
0.000149488
0.0220639
0.000149505
0.0620064
0.00129024
0.00825486
0.0518099
0.000182652
0.000228157
0.00014774
0.0503298
0.00016337
0.000171727
0.073381
0.000146756
0.000205329
0.000149758
0.0133518
0.00751876
0.000147449
0.000159507
0.00696087
0.000160066
0.000219417
0.00016567
0.000174374
0.000147322
0.000167177
0.000148475
0.000161669
0.000458691
0.0531513
0.00709542
0.000476553
0.0193571
0.000158242
0.0521224
0.000149264
0.000161434
0.000180901
0.0598462
0.0144735
0.0555858
0.000147233
0.0446693
0.000182941
0.000147382
0.00014836
0.053116
0.0549315
0.000398015
0.00016872
0.0167693
0.0196625
0.0001484
0.074638
0.0794826
0.000161091
0.0461069
0.000228706
0.000192909
0.00410113
0.0123693
0.000148828
0.000149575
0.000161209
0.000148543
0.00908775
0.000149715
0.0119807
0.000146879
0.0819075
0.000161443
0.0540279
0.080152
0.000172811
0.0580441
0.000149806
0.000309593
0.0188828
0.0281614
0.000159483
0.000148778
0.0203001
0.0455078
0.081744
0.000171731
0.000149698
0.000157118
0.0106426
0.00559753
0.00015322
0.0001727
0.0223795
0.000148513
0.00504137
0.000184119
0.0295648
0.00021686
0.000269593
0.0626034
0.000165623
0.000175023
0.0765513
0.000148156
0.000428044
0.000174666
0.0464884
0.000155032
0.0753729
0.000152847
0.00017771
0.000159316
0.0476961
0.000157783
0.0147967
0.000159559
0.0233465
0.000162486
0.00017201
0.000194053
0.0148887
0.0193672
0.00032885
0.000171803
0.0671593
0.000167297
0.000163626
0.000147486
0.0542594
0.000150199
0.0266373
0.000159636
0.000157245
0.0610441
0.000148902
0.000145038
0.000149751
7.65975e-05
0.000150029
0.0795108
0.000158828
0.00608218
0.0657786
0.00019875
0.00014854
0.0783228
0.000159506
0.000157308
0.000150823
0.0289115
0.000148848
0.000205068
0.000147838
0.0108659
0.0653386
0.000157663
0.0343221
0.0579416
0.0433469
0.000157918
0.0857109
0.000179141
0.0279917
0.000158947
0.000155267
0.00019262
0.0578871
0.000148829
0.0216297
0.000235174
0.0001554
0.000256078
0.000153951
0.000188074
0.000156888
0.00014623
0.000156293
0.000154954
0.00017489
0.000149223
0.000169329
0.00017643
0.0172952
0.000162538
0.0782304
0.000191472
0.000148605
0.000168937
0.000233145
0.000147343
0.000191569
0.00014921
0.0790488
0.000157032
0.000610493
0.000149382
0.000201076
0.000148315
0.000160141
0.0876653
0.0693852
0.0189672
0.0189158
0.000197991
0.000176977
0.000151758
0.000165974
0.0854744
0.00835306
0.0242817
0.0103288
0.000148107
0.000374322
0.000148328
0.000157813
0.000156987
0.000172376
0.000152205
0.0482597
0.000301265
0.000190795
0.013477
0.000189485
0.0781816
0.000204806
0.000158039
0.00014956
0.000151943
0.000157171
0.000159879
0.000177388
0.00018413
0.000151163
0.000149746
0.0141435
0.000201909
0.065912
0.0727594
0.00794432
0.00285235
0.000161006
0.000162067
0.0237122
0.000163692
0.000150632
0.00015596
0.000196224
0.000154163
0.0168002
0.000186178
0.0181376
0.00014881
0.000167841
0.0769299
0.000160772
0.000211539
0.000148839
0.000157865
0.045293
0.0352188
0.061237
0.000159911
0.000147243
0.0780709
0.000148682
0.0610813
0.0542801
0.000164998
0.048313
0.000158386
0.000198402
0.000155134
0.000152375
0.000155512
0.0495753
0.00819903
0.000148417
0.000197986
0.000600757
0.000148016
0.000146249
0.000178987
0.029813
0.0603216
0.05348
0.000154466
0.000151677
0.000167341
0.000208286
0.0608857
0.000167783
0.00015061
0.000153474
0.000222183
0.000167064
0.0633202
0.000785315
0.000149613
0.0226819
0.000149711
0.0117046
0.000167407
0.000171279
0.0371235
0.00016862
0.0913401
0.000168099
0.000191217
0.000199567
0.00015676
0.000147967
0.000150095
0.000163222
0.0315278
0.000172584
0.0910827
0.000152688
0.000149882
0.000158835
0.0656871
0.000150691
0.000191143
0.000485922
0.0535664
0.077793
0.0552995
0.00015071
0.000172892
0.000173371
0.000145578
0.000150451
0.000167437
0.00015235
0.00017287
0.00018613
0.000148226
0.000175937
0.0128806
0.000149876
0.0478265
0.000149434
0.00014996
0.000152426
0.000188822
0.000488059
0.0252303
0.00016556
0.000172799
0.000157414
0.000149547
0.0378097
0.000161436
0.011831
0.0922813
0.00202288
0.000171581
0.000178786
0.00015165
0.0190413
0.000211684
0.00720006
0.0713148
0.000223494
0.000152226
0.0760952
0.0686531
0.000190362
0.000304377
0.0880971
0.0617965
0.061136
0.000169517
0.0502289
0.000159856
0.0764254
0.0535357
0.000168844
0.000148722
0.000195633
0.0558224
0.000156426
0.000152296
0.06457
0.000149319
0.000215652
0.0513892
0.00018826
0.000202345
0.000174507
0.000149353
0.000166428
0.0498835
0.00014886
0.0274574
0.000203907
0.000371666
0.000153052
0.0186532
0.000148208
0.0650144
0.000151873
0.0504275
0.000151875
0.000167627
0.000147111
0.0280613
0.000194027
0.0720188
0.00988784
0.000204309
0.000149216
0.000189488
0.0922943
0.0167822
0.0174006
0.0535668
0.000149209
0.000147609
0.000190822
0.000148866
0.0188933
0.0570245
0.000178618
0.0310045
0.069673
0.000155611
0.054948
0.000157246
0.000193263
0.0469667
0.00015359
0.000165267
0.000208099
0.000156237
0.000147076
0.000152278
0.000165062
0.000147387
0.000151195
0.000411766
0.000148662
0.000149949
0.000160609
0.000148203
0.000163333
0.000149733
0.0503042
0.0607493
0.0770107
0.000146153
0.000200692
0.000539372
0.000150284
0.00934344
0.000161652
0.000159248
0.000169303
0.000159676
0.0568438
0.00619318
0.000161105
0.000152463
0.0317766
0.000192027
0.0622522
0.000157098
0.0398083
0.0219656
0.000862559
0.0143335
0.000150726
0.00044214
0.0143229
0.000151014
0.000162296
0.000153509
0.000154971
0.00225588
0.0160718
0.027885
0.000148228
0.00385052
0.000174208
0.000207784
0.000174987
0.000146727
0.000149684
0.000165568
0.000154851
0.0733401
0.000166004
0.0143848
0.0513003
0.000148944
0.000166271
0.000149699
0.0211568
0.000165126
0.00920885
0.000244489
0.000147249
0.000149585
0.000175593
0.0625143
0.0844383
0.000168757
0.0167477
0.000149235
0.000241777
0.000183707
0.000148007
0.000144961
0.000169166
0.000148856
0.0534419
0.000195911
0.000145735
0.000151299
0.0734083
0.000146427
0.00962147
0.000167482
0.000166353
0.0491011
0.00014944
0.000162299
0.000148834
0.0551429
0.000152453
0.000156083
0.000157665
0.00017096
0.000144404
0.0649488
0.0274988
0.000160685
0.000149764
0.0161459
0.00200509
0.000209222
0.0555635
0.000167263
0.000150697
0.000148991
0.000205972
0.000204995
0.000229981
0.00018933
0.000169532
0.000167399
0.0763866
0.000149198
0.0464169
0.000153384
0.000192238
0.000148783
0.000147954
0.000156915
0.000151557
0.000196835
0.00015649
9.57799e-05
0.000208354
0.028185
0.0409047
0.000153225
0.000159355
0.000148982
0.0216891
0.000151427
0.000171677
0.000147057
0.000169118
0.000181834
0.0586915
0.0576892
0.0577625
0.0134705
0.000159477
0.000167858
0.000215772
0.0350443
0.000190511
0.000149351
0.000160891
0.0525991
0.000151597
0.000157569
0.000149766
0.000172832
0.000159512
0.00366423
0.000153704
0.000148728
0.0547566
0.0269352
0.000223301
0.000151822
0.000149284
0.000179219
0.0634429
0.000171073
0.000215245
0.000159956
0.000156577
0.000209355
0.000173258
0.000155762
0.0751792
0.011982
0.000177356
0.0365407
0.0292658
0.000293085
0.0590126
0.000194052
0.0347896
0.0571448
0.000174722
0.000223165
0.000148158
0.000159593
0.0198751
0.000197539
0.0594227
0.000149568
0.022916
0.000219495
0.0591844
0.000184879
0.000193839
0.00015261
0.0900397
0.076541
0.000164811
0.087761
0.000164114
0.000150779
0.0094699
0.00017296
0.0574219
0.000166384
0.000337793
0.0591476
0.0866451
0.00017944
0.011651
0.000149218
0.000151131
0.000204457
0.000156312
0.000150914
0.000160849
0.000171607
0.000190139
0.000232915
0.0581504
0.0149047
0.000166908
0.000148777
0.0909487
0.000165945
0.00014887
0.0555266
0.00118143
0.000147879
0.000149228
0.000156329
0.000178115
0.00017826
0.086973
7.96373e-05
0.000209595
0.000154798
0.0157186
0.000154072
0.000169435
0.0298749
0.000149691
0.000195256
0.000196012
0.000149512
0.000317333
0.0603418
0.000155335
0.000145588
0.000161902
0.000148101
0.000157131
0.0238515
0.000149575
0.000203479
0.0319879
0.000148162
0.056391
0.000153345
0.0360756
0.000294929
0.0898299
0.0196665
0.0824588
0.000180178
0.0242444
0.000147314
0.00983954
0.000150712
0.000169734
0.000214156
0.000160462
0.0827468
0.000157634
0.000333625
0.0194794
0.000149862
0.000209473
0.0345035
0.000149162
0.0748819
0.000171017
0.0562137
0.000279517
0.000162309
0.000175119
0.0169304
0.0447603
0.000186737
0.00019399
0.00015054
0.000187554
0.0505256
0.0411988
0.000171983
0.000149196
0.000167617
0.000489669
0.000152922
0.0277228
0.000149374
0.000164847
0.000173523
0.0625555
0.000148969
0.000148784
0.000158446
0.0123218
0.000145231
0.000149715
0.000212643
0.000148217
0.000195112
0.000189623
0.000165283
0.0474772
0.00023257
0.0755276
0.0505072
0.00019143
0.000220661
0.0796968
0.000153757
0.000157029
0.000183103
0.000148102
0.0149702
0.000627629
0.000151396
0.000150701
0.0418434
0.0523638
0.0838952
0.000236049
0.00014807
0.0625221
0.0521819
0.000150824
0.0555538
0.0837749
0.0253379
0.0485856
0.000149296
0.000155408
0.000148737
0.000156219
0.000157081
0.000149526
0.000183346
0.000177371
0.0482705
0.000151877
0.000168032
0.000146359
0.00014968
0.0422994
0.000156481
0.0786769
0.0859205
0.000159534
0.000149168
0.000190245
0.000321184
0.000756735
0.000166601
0.0140401
0.00019694
0.0443195
0.000155984
0.000165821
0.0590035
0.000147962
0.0257446
0.000198915
0.0112798
0.0518008
0.0172352
0.000151034
0.0517037
0.000168605
0.0370447
0.0120774
0.0527675
0.0212533
0.000196638
0.000186092
0.0617669
0.000149895
0.0260634
0.0220426
0.0580034
0.0188472
0.0263171
0.000157276
0.0380807
0.000169964
0.000166436
0.000165555
0.0579304
0.000148799
0.0002911
0.00014893
0.000182378
0.000643248
0.00014874
0.0530654
0.0201566
0.000148856
0.000146661
0.000150367
0.0559628
0.0824971
0.000160782
0.000195206
0.000158294
0.038639
0.0628934
0.0572726
0.0239929
0.000172789
0.0291139
0.0628501
0.0806856
0.000159227
0.0902799
0.091723
0.0433333
0.000145491
0.0516654
0.000180373
0.0819793
0.011153
0.00015097
0.000148879
0.00017023
0.000150415
0.0819116
0.000149229
0.0627596
0.000151575
0.026649
0.0220692
0.0299649
0.000227183
0.00714453
0.000171953
0.000153672
0.000171923
0.0267574
0.00014856
0.000169495
0.0230701
0.0237011
0.0811201
0.0301188
0.000155375
0.000178086
0.0395307
0.0618171
0.00521671
0.0812632
0.0713032
0.0626929
0.0674824
0.0214242
0.000150672
0.000154162
0.000147975
0.071938
0.0486377
0.000147602
0.000159839
0.0322175
0.0650868
0.000229478
0.0103654
0.000515729
0.000211734
0.000198915
0.000226825
0.000150692
0.0272957
0.0573762
0.030549
0.000153714
0.0311068
0.000156152
0.0196917
0.0564865
0.000255943
0.0393824
0.021154
0.0207492
0.000213554
0.0282187
0.0278814
0.00446304
0.000150857
0.0593623
0.0479808
0.000155551
0.000190827
0.000153016
0.000159714
0.000151855
0.0272382
0.00018169
0.000156421
0.000190062
0.000148562
0.000207621
0.0115669
0.0152138
0.0271778
0.000212324
0.000155673
0.000176208
0.0620298
0.0001592
0.000147956
0.0505375
0.00294961
0.000206972
0.00296463
0.000156443
0.0334224
0.000161164
0.000175605
0.000157241
0.000156696
0.0827683
0.0616159
0.000189469
0.000343431
0.00020276
0.00015687
0.0718018
0.031609
0.0270029
0.0829655
0.000149893
0.000149065
0.00018659
0.0319228
0.000173656
0.000160371
0.000188348
0.0001496
0.0595055
0.000148915
0.000149835
0.000145848
0.000153626
0.0785346
0.000191879
0.000149212
0.000154095
0.000166485
0.000188454
0.000184141
0.0524992
0.000158868
0.087481
0.000149335
0.0835539
0.00017823
0.0296705
0.0503966
0.000149475
0.000145442
0.00014943
0.000149644
0.0408026
0.000155147
0.00016119
0.00395377
0.000228853
0.00014995
0.000154447
0.000150453
0.000189483
0.00020619
0.0542425
0.000330951
0.0502601
0.000178466
0.0893903
0.00194867
0.000148878
0.000147213
0.0675966
0.000204318
0.033486
0.000149538
0.00212922
0.0171674
0.000227775
0.0595767
0.019684
0.0721004
0.000152068
0.0391128
0.000192654
0.000163863
0.000159768
0.000148782
0.000251284
0.000215693
0.000241146
0.0297198
0.000279765
0.000156818
0.0585533
0.000155469
0.0551446
0.000153067
0.0364372
0.000217542
0.0565062
0.0553514
0.000164937
0.000164338
0.000160519
0.0196095
0.000152025
0.026026
0.0293102
0.0286797
0.0193211
0.00016207
0.000170107
0.000201151
0.0359275
0.000155957
0.000203125
0.000170169
0.000156229
0.000185903
0.0304692
0.000167456
0.0203105
0.0137054
0.000210431
0.000148853
0.000215429
0.000153061
0.0290076
0.000151236
0.000144969
0.0001604
0.0563869
0.000159965
0.0801729
0.0370673
0.000223581
0.000179153
0.000265978
0.0478681
0.000147752
0.000187451
0.0705471
0.000145616
0.000148645
0.0298809
0.0165309
0.000151368
0.000161199
0.000173533
0.0301434
0.0575015
0.000162467
0.0503596
0.024117
0.000151836
0.00031751
0.000157221
0.00968115
0.000223091
0.000217451
0.000166627
0.000300921
0.046459
0.000149413
0.000153236
0.00015679
0.000200409
0.000159944
0.000158466
0.0211921
0.000234283
0.0658072
0.00016026
0.0534813
0.0303258
0.000196539
0.0309406
0.0310306
0.000152166
0.0307453
0.0756985
0.00019925
0.000205298
0.0313546
0.0876693
0.0583791
0.0311364
0.000184999
0.000163156
0.000198132
0.0266466
0.0294872
0.0315786
0.070376
0.0187342
0.000149819
0.0247487
0.00018448
0.0719911
0.00016044
0.000147099
0.000223349
0.000261064
0.085235
0.000231181
0.0133783
0.000174435
0.000241479
0.000162915
0.000159784
0.000153533
0.000151632
0.000171025
0.000223444
0.000225159
0.0593261
0.0318544
0.0374913
0.000148127
0.000158986
0.00016315
0.000166093
0.000150596
0.0250957
0.000167085
0.00385457
0.0272494
0.000147915
0.076456
0.0312364
0.0345617
0.000147046
0.000200001
0.0310959
0.0810448
0.000179629
0.000163775
0.000196802
0.00017062
0.000203778
0.000202333
0.000164469
0.000188867
0.0321284
0.031782
0.0333745
0.000171911
0.000149609
0.000148993
0.0544504
0.0307286
0.0316524
0.000156108
0.0319424
0.059892
0.0614969
0.00015321
0.0376514
0.0349984
0.0353371
0.000196503
0.0815491
0.033886
0.000147882
0.0364148
0.0341102
0.000147952
0.0628391
0.0342043
0.0357525
0.0607632
0.0367385
0.000147714
0.000195576
0.000209353
0.000208333
0.000199848
0.000217614
0.00016005
0.0849323
0.000205455
0.0419057
0.000208315
0.0318943
0.0781876
0.000207354
0.0180967
0.091733
0.0327553
0.000149255
0.0344953
0.0877597
0.000208349
0.0321061
0.000156404
0.057325
0.085528
0.000181956
0.00669126
0.000175366
0.000148536
0.000159891
0.0796238
0.0873782
0.0661901
0.0651657
0.000195251
0.000163851
0.0661514
0.00015105
0.000155152
0.056729
0.000159035
0.000182874
0.0862597
0.0865778
0.000152229