/*--------------------------------*- C++ -*----------------------------------*\
| =========                 |                                                 |
| \\      /  F ield         | OpenFOAM: The Open Source CFD Toolbox           |
|  \\    /   O peration     | Version:  v2012                                 |
|   \\  /    A nd           | Website:  www.openfoam.com                      |
|    \\/     M anipulation  |                                                 |
\*---------------------------------------------------------------------------*/
FoamFile
{
    version     2.0;
    format      ascii;
    class       volScalarField;
    location    "300";
    object      k_0;
}
// * * * * * * * * * * * * * * * * * * * * * * * * * * * * * * * * * * * * * //

dimensions      [0 2 -2 0 0 0 0];


internalField   nonuniform List<scalar> 
15335
(
0.0191373
0.000237661
0.0140365
0.00016186
0.0178521
0.000149164
0.000203245
0.000245367
0.000163836
0.0249756
0.0172291
0.000156208
0.0189772
0.0123662
0.0898725
0.0102036
0.000172716
0.061698
0.000146053
0.0115808
0.0642945
0.0656438
0.000203206
0.000146157
0.000219548
0.000184168
0.00484863
0.000183999
0.0340427
0.000153443
0.0057289
0.0902772
0.000149756
0.000149848
0.000149293
0.000393765
0.000345243
0.00218814
0.0245946
0.000207251
0.000227024
0.00554151
0.000149076
0.000161408
0.0204086
0.000146708
0.00659478
0.0769988
0.021273
0.000155073
0.000146158
0.0921288
0.00560545
0.000149854
0.000150229
0.000199937
0.000178128
0.0921409
0.00579205
0.0174694
0.0464059
0.077165
0.000163591
0.000156463
0.000149097
0.000155747
0.0245486
0.0912125
0.000148884
0.000145232
0.000169511
0.00015388
0.000219639
0.0510044
0.0365152
0.0537674
0.000231734
0.000198392
0.0736548
0.00014972
0.0321736
0.00310311
0.0326809
0.000220658
0.00521637
0.000147114
0.000145949
0.000161197
0.000153462
0.000245034
0.0297538
0.000193124
0.00015573
0.000495001
0.00815687
0.000155533
0.000146697
0.000164776
0.000146694
0.000149803
0.000149004
0.0560676
0.00062606
0.000188885
0.000153699
0.000163368
0.00015
0.000161105
0.000477688
0.000167351
0.0386123
0.000197394
0.000148477
0.000156414
0.00493693
0.00015335
0.000169516
0.000437472
0.0274966
0.00273556
0.0308882
0.0159443
0.0506777
0.0512594
0.000148944
0.000148885
0.000175459
0.000149243
0.000188601
0.000150163
0.0485851
0.0239245
0.000147439
0.000168905
0.000195583
0.00014717
0.0345163
0.0456466
0.000163568
0.000242602
0.000192755
0.00024689
0.000170869
0.0001731
0.0604084
0.00809474
0.0490768
0.000460099
0.000195041
0.0362861
0.000156467
0.0911418
0.000148894
0.000155166
0.0455778
0.000149758
0.0822149
0.020471
0.000446488
0.0842432
0.000149678
0.000158455
0.0565327
0.000174485
0.0252252
0.0185576
0.0234676
0.000146175
0.000618623
0.00884712
0.0145018
0.00261387
0.076252
0.000168176
0.00020599
0.000149727
0.000149528
0.0509689
0.0366437
0.0112259
0.000207545
0.000632085
0.0501196
0.000166331
0.000166348
0.0277637
0.000160534
0.000161015
0.0486675
0.050743
0.0151784
0.000225814
0.000160536
0.000212285
0.00150634
0.0282881
0.000148583
0.0236475
0.000149157
0.0222466
0.00016445
0.000168822
0.000166379
0.0163396
0.0185247
0.000199653
0.00014959
0.000168577
0.00015975
0.000158029
0.000174715
0.000148969
0.0476621
0.000153073
0.000209795
0.000168866
0.0141815
0.0916222
0.000197894
0.000218984
0.000148916
0.000148301
0.000161641
0.000159876
0.000201854
0.00653977
0.000147205
0.00774132
0.00017379
0.0517793
0.000147274
0.000146313
0.0240445
0.000215182
0.0231457
0.000172505
0.000212414
0.000197524
0.000149415
0.0050793
0.0743075
0.00016751
0.0484983
0.000166984
0.0200685
0.000147084
0.000151419
0.0185599
0.0711064
0.0707583
0.0144668
0.0180017
0.000147065
0.000146204
0.000174069
0.0195546
0.000192743
0.0495124
0.000145037
0.000201985
0.0081125
0.000149782
0.000146666
0.000149088
0.000149236
0.000144966
0.0861384
0.0244569
0.0210832
0.000149141
0.0878544
0.0219207
0.0209097
0.000147268
0.0189817
0.000152631
0.000149832
0.000210158
0.000156033
0.000173479
0.00680439
0.0560724
0.000147829
0.000192417
0.000159089
0.0395394
0.0804882
0.000157696
0.000151872
0.000150919
0.0201274
0.000155858
0.000168247
0.000232302
0.000156737
0.00209146
0.000146743
0.000223585
0.000149273
0.0473489
0.000148997
0.0758357
0.000187425
0.051338
0.000147338
0.07271
0.0236879
0.000149439
0.0357438
0.000154772
0.0482952
0.000149604
0.000221532
0.0473236
0.0445831
0.000148794
0.000149637
0.0765913
0.00871926
0.000203396
0.00023391
0.000148813
0.00347518
0.0474804
0.00016335
0.0461853
0.0486709
0.0479393
0.000158121
0.000156278
0.000149723
0.000187399
0.000151079
0.000240023
0.000170219
0.000652696
0.000167113
0.02351
0.00438641
0.0236974
0.00019981
0.000208668
0.000148499
0.000208207
0.000163474
0.000154704
0.000149868
0.0002329
0.000146469
0.0286849
0.05715
0.0459982
0.000154162
0.0100366
0.0187281
0.000148316
0.000159613
0.000166258
0.00017931
0.00018999
0.000157451
0.000183168
0.000159066
0.0288786
0.00015944
0.0145168
0.00041072
0.000182786
0.000155565
0.000147076
0.0462237
0.000155606
0.000167012
0.0911598
0.00014884
0.00518927
0.090662
0.000159904
0.000243002
0.0479894
0.000148452
0.00015657
0.0299387
0.0287433
0.000161021
0.000147186
0.000198136
0.000168461
0.000249002
0.0192874
0.000148832
0.000152872
0.000147175
0.000244864
0.0373917
0.000199558
0.000233824
0.000162886
0.000167387
0.0708766
0.000188975
0.000189537
0.0281609
0.000157712
0.000152683
0.00018966
0.0409551
0.0273659
0.000213775
0.000226069
0.000221679
0.000158827
0.0444105
0.0398432
0.000232831
0.0795009
0.0457458
0.000154835
0.000221341
0.000170423
0.000158376
0.0183248
0.054514
0.000146631
0.000231773
0.046765
0.000208294
0.0746897
0.000158108
0.00515956
0.0842217
0.00538377
0.0155848
0.0845074
0.023609
0.000195449
0.0736923
0.0153614
0.000145116
0.000150002
0.00438065
0.0494753
0.000149298
0.000237174
0.00017772
0.000167595
0.0160652
0.000208955
0.000197634
0.0301446
0.0160116
0.0230772
0.000173219
0.000155111
0.0838217
0.0812036
0.000149251
0.0633833
0.0498467
0.000197287
0.0754575
0.00026975
0.000199799
0.0719067
0.000178727
0.000162567
0.00015913
0.000149173
0.000171839
0.0542021
0.000227538
0.000231284
0.0318477
0.000148862
0.000149644
0.000149724
0.000402392
0.0915846
0.0497075
0.000505731
0.000198386
0.000274486
0.000164149
0.0304296
0.000151636
0.000148191
0.00014971
0.0242693
0.000149063
0.0525377
0.000145395
0.000151526
0.000147399
0.046633
0.000229887
0.000149771
0.000162841
0.000199994
0.000158615
0.000156571
0.0772148
0.000158758
0.000229617
0.000155565
0.0194504
0.000152971
0.000148454
0.0149689
0.000152391
0.000163712
0.0462406
0.000147012
0.000149705
0.0178095
0.000364723
0.00259831
0.000154742
0.000164711
0.000151401
0.0345584
0.0520374
0.000149699
0.0477835
0.0472674
0.0520609
0.054101
0.000149444
0.0329868
0.0814266
0.0353453
0.0178687
0.000164397
0.0748338
0.000167852
0.00621968
0.000243903
0.0611902
0.0092091
0.0589405
0.0525765
0.0443617
0.000170004
0.000152807
0.000158664
0.000167367
0.000148137
0.000195838
0.000183291
0.0208717
0.000198131
0.000190512
0.000313492
0.0713242
0.0834217
0.0458941
0.000221984
0.000199726
0.000149744
0.0001573
0.000145094
0.000161647
0.0717293
0.0001511
0.000163777
0.000185337
0.000243793
0.0301865
0.0102793
0.00020574
0.0240877
0.000149324
0.000150959
0.000149683
0.000160775
0.0240342
0.000168086
0.000212048
0.000148344
0.00016834
0.0400324
0.000147659
0.000167541
0.0814419
0.0647434
0.0179819
0.000148852
0.000155967
0.000153101
0.0898303
0.018663
0.000162293
0.000145466
0.000147212
0.000149621
0.0502184
0.000212223
0.000404373
0.0611242
0.000153578
0.000230254
0.000160791
0.000154625
0.0843163
0.000149145
0.000161008
0.0543421
0.000147436
0.0162578
0.0483316
0.000163769
0.000243453
0.0917749
0.08082
0.000166674
0.0731551
0.000184461
0.000155653
0.000149192
0.000166973
0.00019774
0.0838931
0.000170769
0.000149591
0.0257301
0.000148613
0.000158823
0.038603
0.000197202
0.000185891
0.0292561
0.000163278
0.000148362
0.000149686
0.000160003
0.000149589
0.0813717
0.000152663
0.000190038
0.0300051
0.000145905
0.000155258
0.0283365
0.000159999
0.000176221
0.092064
0.000150965
0.000222239
0.000149217
0.0722714
0.000216347
0.0547819
0.000195193
0.0269138
0.0466635
0.000168173
0.0176079
0.000145707
0.000198258
0.000177205
0.00284143
0.000151668
0.0717792
0.000148544
0.0409783
0.000158648
0.000303254
0.000147322
0.00015096
0.000192796
0.000201226
0.000149092
0.000166474
0.000150768
0.00022146
0.00829822
0.000161972
0.0169905
0.00897535
0.050449
0.000149278
0.0848579
0.000151656
0.000146261
0.000202536
0.000158112
0.000154389
0.0425861
0.000160432
0.000160172
0.000159146
0.000149397
0.00014586
0.070867
0.0454768
0.000146719
0.000146407
0.000206825
0.000147215
0.0202772
0.000167349
0.0286586
0.0910739
0.000149202
0.000169068
0.0642421
0.000183745
0.000149781
0.000168704
0.000168882
0.000149011
0.0276921
0.0420677
0.000167096
0.0226135
0.00343666
0.000166477
0.000148877
0.0811527
0.000148835
0.000155791
0.00020815
0.000149342
0.000151367
0.000203243
0.000421102
0.00312948
0.0587908
0.0485451
0.000149256
0.0538739
0.00803319
0.000172285
0.00369718
0.0014418
0.000234623
0.000237585
0.000183143
0.0457417
0.000161604
0.00950366
0.000168875
0.00016414
0.000177481
0.000192569
0.000323576
0.000153567
0.000175681
0.07791
0.000157217
0.000159999
0.0441582
0.00713146
0.0232447
0.000149658
0.00127666
0.0485801
0.0687915
0.0190847
0.000150775
0.000163354
0.000229599
0.0206219
0.0234491
0.000164502
0.0436294
0.000147161
0.000211723
0.000166155
0.000155204
0.0646717
0.000147267
0.0566368
0.000163276
0.000171609
0.000156837
0.000158397
0.00361747
0.000149234
0.000149235
0.00343857
0.0197366
0.000164087
0.000147063
0.000157217
0.0232627
0.000192042
0.00843078
0.0912056
0.000161746
0.000149552
0.0322771
0.000178266
0.0608863
0.000162586
0.00015974
0.000192998
0.000149152
0.00014751
0.000164213
0.00871282
0.000176488
0.000207588
0.00014689
0.0143314
0.0479048
0.00014948
0.000149044
0.000158069
0.000148473
0.0386335
0.000145265
0.000148574
0.000148894
0.000149299
0.00014986
0.00014862
0.000145442
0.0898886
0.000171102
0.000161828
0.00572946
0.000149176
0.000155845
0.000154535
0.0659917
0.000371248
0.0653949
0.000159132
0.000149351
0.00464334
0.000149702
0.0472292
0.000158157
0.000181469
0.00438053
0.0385791
0.000149249
0.000146912
0.0447199
0.070613
0.000161533
0.000160723
0.000145799
0.000223831
0.000166741
0.000161844
0.000152805
0.000145257
0.0364363
0.000160593
0.000146352
0.000362915
0.00500366
0.00551344
0.0156518
0.000197884
0.000145748
0.0234981
0.000212072
0.00112392
0.000161757
0.000159117
0.000193593
0.000159995
0.00430179
0.000585501
0.000147294
0.000184003
0.000193178
0.000149418
0.00047621
0.000154465
0.000153302
0.0797166
0.0815354
0.000149373
0.0482502
0.0031246
0.00014847
0.000150951
0.000221256
0.000310014
0.000177189
0.000146632
0.000175271
0.000169421
0.0701963
0.0547142
0.0151071
0.000168839
0.000150708
0.0331451
0.000155103
0.000164152
0.000153007
0.0702923
0.000248766
0.000152806
0.000147961
0.000163026
0.0721837
0.0491238
0.000149239
0.000149018
0.0476039
0.000148433
0.000204218
0.000216765
0.000146552
0.000148577
0.0810405
0.000159464
0.0841359
0.00933203
0.000149921
0.000155255
0.000209179
0.000155591
0.000185601
0.00020853
0.000161759
0.000148565
0.000146605
0.0530133
0.000161301
0.000148646
0.0544997
0.0156089
0.000149805
0.000223154
0.000148261
0.000155301
0.000149528
0.0285746
0.0430781
0.000149487
0.00015106
0.0732223
0.000158584
0.000184296
0.000153864
0.000168306
0.00014929
0.000165427
0.00014921
0.00138374
0.0496783
0.000152794
0.00016586
0.0508216
0.000155056
0.0656798
0.0123706
0.000163311
0.000148928
0.0753981
0.000234808
0.000148535
0.000243245
0.000149503
0.000337227
0.0248705
0.000149596
0.0820733
0.000148524
0.00640291
0.000182264
0.0395533
0.000166558
0.0202545
0.00014578
0.0770984
0.000148692
0.000158589
0.000527854
0.0470427
0.000163567
0.0909906
0.028085
0.000229433
0.0208336
0.0844081
0.00016351
0.0844929
0.0126886
0.000152944
0.000192511
0.000220609
0.000147431
0.000163015
0.000165132
0.000161971
0.00839108
0.000195579
0.000150551
0.000208734
0.000148945
0.000288488
0.000148512
0.0621106
0.000147086
0.0217875
0.0473808
0.000230103
0.000222319
0.0731797
0.000161523
0.000146674
0.000173796
0.00959776
0.000179533
0.000147165
0.000167455
0.000153726
0.000162054
0.000171392
0.0440637
0.0817614
0.000149763
0.0357768
0.000165649
0.000229701
0.0429746
0.0821036
0.00026133
0.000147205
0.00016967
0.0917657
0.000153272
0.00745896
0.00014733
0.00014888
0.000148608
0.000148423
0.000160311
0.000197897
0.000158409
0.0169793
0.000156411
0.000148708
0.000149352
0.0455937
0.000346765
0.000153489
0.000196991
0.0200462
0.0177134
0.0850086
0.000160041
0.000175001
0.0217127
0.000148529
0.000153638
0.00043212
0.000149683
0.0229504
0.000146733
0.000147937
0.0226731
0.000165145
0.000207878
0.0543287
0.000157499
0.000145871
0.000151537
0.000160164
0.0507066
0.0424332
0.0242016
0.000145129
0.000148595
0.000154326
0.000149424
0.000153119
0.000149427
0.000146308
0.000149241
0.000186814
0.000148612
0.000149339
0.000454453
0.0447841
0.000153946
0.0477334
0.000150137
0.000153868
0.0249407
0.000231764
0.000157437
0.0500786
0.0200818
0.000196045
0.00014672
0.00245311
0.0138667
0.00016478
0.0727037
0.0501108
0.059856
0.000301853
0.000167248
0.000164792
0.0598103
0.000178579
0.000151915
0.000146747
0.0257151
0.000190099
0.0774878
0.000149387
0.000149227
0.0710792
0.000168455
0.0773523
0.000174077
0.000148446
0.000234592
0.0919833
0.000153718
0.000252412
0.00150717
0.000283322
0.00380432
0.000151078
0.000166407
0.000190572
0.0268964
0.000205891
0.0173541
0.000149174
0.000203157
0.0453543
0.00521232
0.000149259
0.000148414
0.000235719
0.000187331
0.000149579
0.0189074
0.00015304
0.000149876
0.000144188
0.0444378
0.00976529
0.0616378
0.000149796
0.000149592
6.72765e-05
0.00019658
0.000192367
0.000207506
0.000183445
0.000165933
0.000148697
0.0475697
0.000243888
0.080163
0.0244817
0.000170809
0.000266436
0.000166713
0.0825187
0.000163959
0.0467033
0.0219446
0.000149943
0.000177427
0.000183309
0.0748682
0.000151899
0.000148949
0.00689033
0.000166127
0.0849063
0.0412124
0.018241
0.000162216
0.0524469
0.0723914
0.00016677
0.0415864
0.00342468
0.00015126
0.0238955
0.0216648
0.00021277
0.0540607
0.0455962
0.000150064
0.0220262
0.000163086
0.0140093
0.000188323
0.0525556
0.000234136
0.00027664
0.000162653
0.00014882
0.000148659
0.000149651
0.000149892
0.0204192
0.000224136
0.000146533
0.000148708
0.081623
0.000147212
0.01098
0.0508135
0.00423737
0.000222297
0.000149797
0.0501347
0.000150215
0.01963
0.000147504
0.0675522
0.0139652
0.000192607
0.0544153
0.000152693
0.0605443
0.0599487
0.011956
0.0432486
0.0258406
0.055489
0.049833
0.0235593
0.00016317
0.0119069
0.000151037
0.000149608
0.000208721
0.0211095
0.056274
0.000150193
0.000150653
0.00014628
0.00017765
0.000221688
0.000165308
0.000148489
0.000272287
0.000166494
0.00014837
0.000149183
0.000182052
0.000364492
0.0806287
0.000149902
0.000221571
0.000147673
0.00015749
0.0269047
0.000149057
0.063447
0.029177
0.000166212
0.000174467
0.000176321
0.000149222
0.000149461
0.000200055
0.000201924
0.000178559
0.000145094
0.000166646
0.0147881
0.0199005
0.006042
0.000153469
0.00015966
0.000237786
0.000177745
0.0455244
0.000149535
0.000148298
0.000182404
0.0818036
0.000164677
0.0315996
0.000208635
0.000163661
0.000151292
0.000147111
0.000197876
0.000152307
0.000159944
0.000194991
0.000149703
0.0597469
0.00014838
0.000148893
0.000160382
0.000149544
0.0807408
0.0353791
0.0194095
0.019815
0.01917
0.000192524
0.000172725
0.000154542
0.021482
0.00024211
0.000147388
0.020739
0.0035152
0.000332252
0.0455788
0.0324405
0.0511953
0.000149622
0.000333327
0.0868878
0.000181438
0.000153759
0.0447815
0.000171779
0.000159322
0.000165974
0.000155903
0.0311361
0.0527226
0.00612389
0.0816017
0.000187264
0.000352998
0.0146288
0.000217109
0.000182439
0.000149488
0.0220639
0.000149505
0.0620064
0.00116456
0.00825486
0.0518099
0.000182653
0.000228163
0.00014774
0.0503298
0.000163371
0.000171727
0.073381
0.000146756
0.000205329
0.000149758
0.0133518
0.00751933
0.000147449
0.000159507
0.00696087
0.000160066
0.00021932
0.00016567
0.000174372
0.000147322
0.00016718
0.000148475
0.000161669
0.000458691
0.0531513
0.00709542
0.000476553
0.0193571
0.000158242
0.0521224
0.000149264
0.000161434
0.000180899
0.0598462
0.0144735
0.0555858
0.000147233
0.0446693
0.000182941
0.000147382
0.00014836
0.053116
0.0549315
0.000396422
0.000168723
0.0167693
0.0196625
0.0001484
0.074638
0.0794826
0.000161091
0.0461069
0.000228693
0.000192904
0.00408857
0.0123693
0.000148828
0.000149575
0.000161209
0.000148543
0.00908775
0.000149715
0.0119807
0.000146879
0.0819075
0.000161444
0.0540279
0.080152
0.000172811
0.0580441
0.000149806
0.00030966
0.0188828
0.0281614
0.000159483
0.000148778
0.0202961
0.0455078
0.081744
0.00017173
0.000149698
0.000157118
0.0106448
0.00559538
0.00015322
0.0001727
0.0223795
0.000148513
0.00504137
0.000184119
0.0295648
0.000216859
0.000269593
0.0626034
0.000165623
0.000175023
0.0765513
0.000148156
0.000428064
0.000174666
0.0464884
0.000155032
0.0753729
0.000152847
0.000177711
0.000159316
0.0476961
0.000157783
0.0147967
0.000159559
0.0233465
0.000162486
0.000172011
0.000194053
0.0148887
0.0193681
0.000348236
0.000171803
0.0671593
0.000167297
0.000163626
0.000147486
0.0542594
0.000150199
0.0266373
0.000159636
0.000157245
0.0610441
0.000148902
0.000145038
0.000149751
8.36752e-05
0.000150029
0.0795108
0.000158828
0.00608214
0.0657786
0.00019875
0.00014854
0.0783229
0.000159506
0.000157308
0.000150823
0.0289115
0.000148848
0.000205057
0.000147838
0.0108659
0.0653386
0.000157663
0.0343221
0.0579417
0.0433469
0.000157918
0.0857109
0.000179142
0.0279919
0.000158947
0.000155267
0.000192636
0.0578871
0.000148829
0.0216297
0.000235179
0.0001554
0.000256083
0.000153951
0.000188074
0.000156888
0.00014623
0.000156293
0.000154954
0.000174889
0.000149223
0.000169329
0.000176415
0.0172952
0.000162511
0.0782304
0.000191472
0.000148605
0.000168927
0.000233314
0.000147343
0.000191569
0.00014921
0.0790488
0.000157031
0.000610465
0.000149382
0.000200985
0.000148315
0.000160137
0.0876653
0.0693852
0.0189672
0.0189158
0.000197987
0.000176977
0.000151758
0.000165974
0.0854744
0.00835306
0.0242817
0.0103288
0.000148107
0.000374325
0.000148328
0.000157813
0.000156987
0.00017237
0.000152205
0.0482597
0.000301267
0.000190795
0.013477
0.000189485
0.0781816
0.000204806
0.000158039
0.00014956
0.000151943
0.000157171
0.000159879
0.000177392
0.00018413
0.000151163
0.000149746
0.0141435
0.000201909
0.065912
0.0727594
0.00794432
0.00306231
0.000161015
0.00016206
0.0237122
0.000163692
0.000150632
0.000155963
0.000196224
0.000154163
0.0167987
0.000186178
0.0181376
0.00014881
0.000167837
0.07693
0.000160772
0.000211539
0.000148839
0.000157865
0.045293
0.0352188
0.061237
0.000159911
0.000147243
0.0780709
0.000148682
0.0610813
0.0542801
0.000164998
0.048313
0.000158386
0.000198402
0.000155134
0.000152375
0.000155512
0.0495753
0.00819554
0.000148417
0.000197985
0.000600769
0.000148016
0.000146249
0.000178987
0.029813
0.0603216
0.05348
0.000154466
0.000151677
0.000167356
0.000208236
0.0608857
0.000167775
0.00015061
0.000153474
0.000222186
0.000167064
0.0633202
0.000785309
0.000149613
0.0226819
0.000149711
0.0117046
0.000167408
0.000171279
0.0371235
0.00016862
0.0913401
0.000168099
0.000191229
0.000199571
0.000156761
0.000147967
0.000150095
0.000163241
0.0315279
0.000172584
0.0910827
0.000152688
0.000149882
0.000158835
0.0656871
0.000150691
0.000191143
0.000485921
0.0535664
0.077793
0.0552995
0.00015071
0.000172892
0.000173371
0.000145578
0.000150451
0.000167437
0.00015235
0.000172869
0.00018613
0.000148226
0.000175937
0.0128799
0.000149876
0.0478265
0.000149434
0.00014996
0.000152426
0.000188822
0.00048809
0.0252302
0.00016556
0.000172799
0.000157414
0.000149547
0.0378097
0.000161436
0.011831
0.0922813
0.00200361
0.00017158
0.000178791
0.00015165
0.0190413
0.000211684
0.00720006
0.0713149
0.000223495
0.000152226
0.0760952
0.0686531
0.000190389
0.00030439
0.0880971
0.0617965
0.061136
0.000169512
0.0502289
0.000159856
0.0764254
0.0535357
0.000168827
0.000148722
0.000195647
0.0558224
0.000156426
0.000152296
0.06457
0.000149319
0.000215658
0.0513892
0.00018826
0.000202223
0.000174504
0.000149353
0.000166429
0.0498835
0.00014886
0.0274573
0.000203841
0.000376282
0.000153052
0.0186531
0.000148208
0.0650144
0.000151873
0.0504275
0.000151875
0.000167627
0.000147111
0.0280613
0.000193956
0.0720188
0.00988784
0.000204308
0.000149216
0.000189495
0.0922943
0.0167822
0.0174006
0.0535668
0.000149209
0.000147609
0.00019075
0.000148866
0.0188933
0.0570245
0.000178613
0.0310045
0.069673
0.000155609
0.054948
0.000157246
0.000193263
0.0469667
0.00015359
0.000165267
0.000208099
0.000156237
0.000147076
0.000152278
0.000165062
0.000147387
0.000151195
0.000411775
0.000148662
0.000149949
0.000160609
0.000148203
0.000163332
0.000149733
0.0503042
0.0607493
0.0770107
0.000146153
0.000200566
0.000539318
0.000150284
0.00934344
0.000161654
0.000159248
0.000169303
0.000159677
0.0568438
0.00619318
0.000161117
0.000152463
0.0317766
0.000192026
0.0622522
0.000157098
0.0398083
0.0219656
0.000754416
0.0143335
0.000150726
0.000442095
0.0143229
0.000151014
0.0001623
0.000153509
0.000154972
0.00225579
0.0160718
0.0278951
0.000148228
0.00399448
0.000174208
0.000207787
0.000174985
0.000146727
0.000149684
0.000165568
0.000154851
0.0733401
0.000166004
0.0143848
0.0513003
0.000148944
0.00016627
0.000149699
0.0211568
0.000165127
0.00920916
0.000244336
0.000147249
0.000149585
0.000175593
0.0625143
0.0844383
0.000168757
0.0167477
0.000149235
0.000241845
0.000183707
0.000148007
0.000144961
0.000169166
0.000148856
0.0534419
0.000195911
0.000145735
0.000151299
0.0734084
0.000146427
0.00962146
0.000167479
0.000166354
0.0491011
0.00014944
0.000162287
0.000148834
0.0551429
0.000152453
0.000156084
0.000157665
0.00017096
0.000144404
0.0649488
0.0274988
0.000160685
0.000149764
0.0161459
0.00200524
0.000209226
0.0555635
0.000167262
0.000150697
0.000148991
0.000205972
0.000204995
0.000229997
0.000189334
0.000169532
0.000167398
0.0763866
0.000149198
0.0464169
0.000153384
0.000192239
0.000148783
0.000147954
0.000156915
0.000151557
0.000196835
0.00015649
9.79505e-05
0.000208384
0.028185
0.0409046
0.000153225
0.000159355
0.000148982
0.0216872
0.000151427
0.000171676
0.000147057
0.000169118
0.000181834
0.0586915
0.0576892
0.0577625
0.0134705
0.000159477
0.000167859
0.000215713
0.0350443
0.000190511
0.000149351
0.000160891
0.0525991
0.000151597
0.000157569
0.000149766
0.000172833
0.000159512
0.00366423
0.000153704
0.000148728
0.0547566
0.0269352
0.000223302
0.000151822
0.000149284
0.000179219
0.0634429
0.000171073
0.000215235
0.000159956
0.000156577
0.000209467
0.000173258
0.000155762
0.0751792
0.0119819
0.000177343
0.0365407
0.0292658
0.000293032
0.0590126
0.000194051
0.0347896
0.0571447
0.000174722
0.000223178
0.000148158
0.000159593
0.0198751
0.000197539
0.0594227
0.000149568
0.022916
0.000219475
0.0591844
0.00018488
0.000193838
0.00015261
0.0900397
0.076541
0.000164811
0.087761
0.000164114
0.000150779
0.0094699
0.00017296
0.0574219
0.000166395
0.000337801
0.0591476
0.0866451
0.00017944
0.011651
0.000149218
0.000151131
0.000204457
0.000156312
0.000150914
0.000160848
0.000171607
0.00019014
0.000232915
0.0581504
0.0149047
0.00016691
0.000148777
0.0909487
0.000165946
0.00014887
0.0555266
0.00118123
0.000147879
0.000149228
0.00015633
0.00017811
0.00017826
0.086973
7.28576e-05
0.000209586
0.000154798
0.0157186
0.000154072
0.000169435
0.0298749
0.000149691
0.000195246
0.000196012
0.000149512
0.000317332
0.0603418
0.000155335
0.000145588
0.000161902
0.000148101
0.000157131
0.0238515
0.000149575
0.000203478
0.0319879
0.000148162
0.056391
0.000153345
0.0360757
0.000294898
0.0898299
0.0196665
0.0824588
0.000180178
0.0242444
0.000147314
0.00983954
0.000150712
0.000169726
0.000214302
0.000160463
0.0827468
0.000157634
0.000335887
0.0194794
0.000149862
0.000209469
0.0345035
0.000149162
0.0748819
0.000171017
0.0562137
0.000279429
0.000162318
0.000175119
0.0169304
0.0447603
0.000186737
0.00019399
0.00015054
0.000187553
0.0505256
0.0411988
0.000171977
0.000149196
0.000167615
0.000489584
0.000152922
0.0277227
0.000149374
0.000164847
0.000173515
0.0625555
0.000148969
0.000148784
0.000158446
0.0123217
0.000145231
0.000149715
0.000212603
0.000148217
0.000195112
0.000189623
0.000165285
0.0474772
0.000232573
0.0755276
0.0505072
0.000191429
0.000220658
0.0796968
0.000153757
0.000157029
0.000183103
0.000148102
0.0149702
0.000628063
0.000151396
0.000150701
0.0418434
0.0523638
0.0838952
0.00023605
0.00014807
0.0625221
0.0521819
0.000150824
0.0555538
0.0837749
0.0253379
0.0485836
0.000149296
0.000155408
0.000148737
0.000156219
0.000157081
0.000149526
0.000183346
0.000177371
0.0482705
0.000151877
0.000168038
0.000146359
0.00014968
0.0422994
0.000156486
0.0786769
0.0859205
0.000159534
0.000149168
0.000190245
0.00032117
0.000836079
0.000166601
0.0140397
0.00019694
0.0443195
0.000155984
0.000165821
0.0590035
0.000147962
0.0257446
0.000198895
0.0112798
0.0518008
0.0172352
0.000151034
0.0517037
0.000168608
0.0370448
0.0120774
0.0527675
0.0212533
0.000196616
0.000186099
0.0617669
0.000149895
0.0260634
0.0220425
0.0580034
0.0188472
0.0263171
0.000157276
0.0380807
0.000169964
0.000166437
0.000165555
0.0579304
0.000148799
0.000291108
0.00014893
0.000182378
0.000643836
0.00014874
0.0530654
0.0201566
0.000148856
0.000146661
0.000150367
0.0559628
0.0824971
0.000160782
0.000195206
0.000158294
0.0386391
0.0628934
0.0572726
0.0239929
0.000172789
0.0291139
0.0628501
0.0806856
0.000159227
0.0902799
0.091723
0.0433333
0.000145491
0.0516654
0.000180374
0.0819793
0.0111534
0.00015097
0.000148879
0.000170223
0.000150415
0.0819116
0.000149229
0.0627596
0.000151575
0.026649
0.0220692
0.0299649
0.000227186
0.00714574
0.000171953
0.000153672
0.000171926
0.0267574
0.00014856
0.000169471
0.0230701
0.0237011
0.0811201
0.0301188
0.000155375
0.000178084
0.0395307
0.0618171
0.00521671
0.0812632
0.0713032
0.0626929
0.0674824
0.0214242
0.000150672
0.000154162
0.000147975
0.071938
0.0486377
0.000147602
0.000159839
0.0322175
0.0650868
0.000229477
0.0103654
0.000515728
0.000211734
0.000198909
0.000226825
0.000150692
0.0272957
0.0573762
0.030549
0.000153714
0.0311068
0.000156152
0.0196917
0.0564865
0.000256021
0.0393824
0.0211541
0.0207492
0.000213548
0.0282188
0.0278814
0.00446304
0.000150857
0.0593623
0.0479808
0.000155551
0.000190827
0.000153016
0.000159714
0.000151855
0.0272382
0.000181682
0.000156421
0.000190062
0.000148562
0.000207673
0.0115645
0.0152138
0.0271778
0.000212322
0.000155673
0.00017621
0.0620298
0.0001592
0.000147956
0.0505375
0.00294961
0.000206964
0.00296491
0.000156443
0.0334224
0.000161164
0.000175603
0.000157241
0.000156696
0.0827683
0.0616159
0.000189469
0.00034343
0.000202759
0.00015687
0.0718018
0.031609
0.0270029
0.0829655
0.000149893
0.000149065
0.000186591
0.0319228
0.000173653
0.000160371
0.00018835
0.0001496
0.0595055
0.000148915
0.000149835
0.000145848
0.000153626
0.0785346
0.00019188
0.000149212
0.000154095
0.000166483
0.000188455
0.000184141
0.0524992
0.000158868
0.087481
0.000149335
0.0835539
0.00017823
0.0296705
0.0503966
0.000149475
0.000145442
0.00014943
0.000149644
0.0408026
0.000155147
0.00016119
0.00389753
0.00022885
0.00014995
0.000154447
0.000150453
0.00018944
0.000206167
0.0542425
0.000330917
0.0502601
0.000178465
0.0893903
0.00194869
0.000148878
0.000147213
0.0675966
0.000204313
0.033486
0.000149538
0.00212767
0.0171674
0.000227776
0.0595767
0.019684
0.0721004
0.000152068
0.0391128
0.000192676
0.000163863
0.000159768
0.000148782
0.000251283
0.000215691
0.000241092
0.0297198
0.000279762
0.000156818
0.0585533
0.000155469
0.0551446
0.000153067
0.0364372
0.000217488
0.0565063
0.0553514
0.000164936
0.000164338
0.000160519
0.0196087
0.000152025
0.026026
0.0293102
0.0286797
0.0193211
0.00016207
0.000170107
0.000201152
0.0359275
0.000155956
0.000203079
0.00017017
0.000156229
0.000185909
0.0304692
0.000167456
0.0203105
0.0137051
0.000210451
0.000148853
0.000215424
0.000153061
0.0290076
0.000151236
0.000144969
0.0001604
0.0563869
0.000159965
0.0801729
0.0370673
0.000223579
0.000179153
0.000265989
0.0478681
0.000147752
0.000187452
0.0705471
0.000145616
0.000148645
0.0298809
0.0165308
0.000151368
0.000161202
0.000173538
0.0301434
0.0575015
0.000162465
0.0503596
0.024117
0.000151836
0.00031751
0.000157221
0.00968115
0.00022309
0.000217432
0.000166627
0.000301031
0.046459
0.000149413
0.000153236
0.00015679
0.000200409
0.000159944
0.000158466
0.0211919
0.000234283
0.0658072
0.000160257
0.0534813
0.0303258
0.000196508
0.0309406
0.0310306
0.000152166
0.0307453
0.0756985
0.000199255
0.000205297
0.0313546
0.0876693
0.0583791
0.0311364
0.000184999
0.000163156
0.000198143
0.0266466
0.0294872
0.0315786
0.070376
0.0187342
0.000149819
0.0247487
0.00018448
0.0719911
0.00016044
0.000147099
0.000223348
0.000260991
0.085235
0.000231073
0.0133783
0.000174431
0.000241492
0.000162917
0.000159784
0.000153533
0.000151632
0.000171031
0.000223445
0.000225193
0.0593261
0.0318544
0.0374913
0.000148127
0.000158986
0.00016315
0.000166093
0.000150596
0.0250957
0.000167082
0.00385478
0.0272827
0.000147915
0.076456
0.0312364
0.0345617
0.000147046
0.0002
0.0310959
0.0810448
0.000179629
0.000163775
0.000196808
0.00017062
0.000203779
0.000202334
0.000164469
0.000188866
0.0321284
0.031782
0.0333745
0.000171906
0.000149609
0.000148993
0.0544504
0.0307286
0.0316524
0.000156108
0.0319424
0.059892
0.0614969
0.00015321
0.0376514
0.0349984
0.0353371
0.000196521
0.0815491
0.033886
0.000147882
0.0364148
0.0341102
0.000147952
0.0628391
0.0342043
0.0357525
0.0607632
0.0367385
0.000147714
0.000195568
0.000209354
0.000208308
0.000199848
0.000217613
0.00016005
0.0849323
0.000205455
0.0419057
0.000208315
0.0318943
0.0781876
0.000207354
0.0180966
0.091733
0.0327553
0.000149255
0.0344953
0.0877597
0.000208349
0.0321061
0.000156404
0.057325
0.085528
0.000181956
0.00669116
0.000175373
0.000148536
0.000159891
0.0796238
0.0873782
0.0661901
0.0651657
0.00019525
0.000163851
0.0661514
0.00015105
0.000155151
0.056729
0.000159035
0.000182874
0.0862597
0.0865778
0.000152229