/*--------------------------------*- C++ -*----------------------------------*\
| =========                 |                                                 |
| \\      /  F ield         | OpenFOAM: The Open Source CFD Toolbox           |
|  \\    /   O peration     | Version:  v2012                                 |
|   \\  /    A nd           | Website:  www.openfoam.com                      |
|    \\/     M anipulation  |                                                 |
\*---------------------------------------------------------------------------*/
FoamFile
{
    version     2.0;
    format      ascii;
    class       volScalarField;
    location    "300";
    object      nut;
}
// * * * * * * * * * * * * * * * * * * * * * * * * * * * * * * * * * * * * * //

dimensions      [0 2 -1 0 0 0 0];


internalField   nonuniform List<scalar> 
15335
(
0.00294351
0.00102162
0.00216063
0.000290719
0.00583572
0.00320608
0.000876604
0.000607865
0.000738817
0.00550716
0.00354475
0.00281496
0.00588038
0.00106276
0.0130295
0.00157918
0.00269471
0.0110523
0.00587107
0.00130903
0.0227838
0.0229262
0.000932932
0.00585902
0.000661584
0.000168404
0.000181489
0.000143907
0.00424466
0.000746191
0.000188727
0.015675
0.00583609
0.00245197
0.00347442
0.00059727
0.00058912
0.00026658
0.00483074
0.000134105
0.00124787
0.00147175
0.00349644
0.00204634
0.0031332
0.00584274
0.00103904
0.0197025
0.00390865
0.000797926
0.00585697
0.0150801
0.00103886
0.0058363
0.00316272
0.000903811
6.03517e-05
0.0161753
0.0013024
0.00359881
0.0177226
0.0200221
0.000215557
0.000455152
0.00577534
0.00290805
0.00464936
0.017464
0.00592967
0.00585033
0.000897323
0.00116024
0.000724529
0.020161
0.00716479
0.0206449
0.00122328
0.000416474
0.00705406
0.00583675
0.010553
0.000122756
0.0114643
0.000736947
0.00035676
0.00585065
0.00586999
0.0020369
0.000787189
0.0010271
0.00909342
0.000882582
0.00285102
3.03863e-05
0.00233699
0.00178768
0.00583943
0.0004487
0.00585302
0.00583655
0.0034503
0.0214357
0.000589628
0.00117848
0.00271413
0.000715974
0.003613
0.000220278
6.25777e-05
0.000201453
0.0140667
0.000746551
0.0058423
0.00279089
0.0010046
0.000833764
0.000900317
2.81173e-05
0.00882991
0.00106151
0.00959018
0.00451306
0.0200851
0.013533
0.0035554
0.00414515
6.55562e-05
0.00583766
0.00133712
0.00295486
0.0182845
0.00441236
0.00586671
0.000129296
0.000406193
0.00583562
0.0119364
0.00468937
0.000191691
0.000617828
0.000987542
0.0010218
0.000255878
0.00602009
0.0228742
0.000497452
0.0192403
4.92478e-05
0.000210189
0.0127294
0.00141353
0.0151834
0.0045345
0.00162068
0.0188742
0.00583605
0.0217447
0.00314998
3.98641e-05
0.0124301
0.00583579
0.000326371
0.014268
0.000702825
0.00517292
0.00258695
0.0043655
0.00585432
3.06679e-05
0.00104666
0.00106325
0.00066753
0.0244623
8.55398e-05
0.000542486
0.00583694
0.00583633
0.0140276
0.00187278
0.00324333
0.000512619
6.71685e-06
0.0195971
0.000724777
0.000789244
0.0064596
0.0010722
0.000297221
0.0191146
0.0190435
0.00214113
0.000266313
0.00195441
0.000569801
0.000781315
0.00272861
0.00584116
0.0042359
0.00324995
0.00569259
0.000458569
0.000131165
0.000276235
0.00209055
0.00348566
0.000488414
0.00583629
8.56098e-05
0.000268051
0.000517836
0.000232234
0.00382011
0.0198671
0.000832438
7.53128e-05
7.96749e-05
0.00227476
0.0175201
0.00109468
3.90856e-05
0.00373021
0.00584586
0.000926946
0.00218691
0.000248953
0.00160261
0.00586865
0.000349072
0.00063531
0.0115789
0.00584179
0.00584249
0.00537251
4.16692e-05
0.00276034
0.000291939
0.000680943
0.00132116
0.00583641
0.00140524
0.0247083
0.000205213
0.0191026
0.000778807
0.00388686
0.00584649
0.00125874
0.00306374
0.0203312
0.0221492
0.00210062
0.00221964
0.00585615
0.00585595
0.000621381
0.00236709
0.000906147
0.0185107
0.00584661
0.000490568
0.000254668
0.00583636
0.0058626
0.00319571
0.00593786
0.00584796
0.0131633
0.00484367
0.00346167
0.00268504
0.01373
0.00365978
0.00333765
0.00584058
0.00259116
0.000899285
0.00215289
0.00066904
0.000460137
0.000684268
0.000328116
0.0212501
0.00589026
0.000938767
0.00158273
0.0132483
0.0241514
0.00167036
0.00104937
0.0018395
0.00304765
0.00248757
0.000130602
0.000944239
0.000946489
0.000118908
0.00586294
0.00110107
0.0039655
0.0177441
0.00373302
0.0244485
0.000200388
0.0123484
0.0058339
0.0076697
0.00440672
0.00583635
0.00673835
0.000586497
0.0179177
0.00594203
0.000734866
0.0130242
0.00820452
0.00482317
0.00217981
0.0209248
0.00240224
3.64461e-05
0.000316467
0.00591815
0.000111283
0.0130766
0.000690265
0.0191094
0.0180805
0.0106894
0.00172408
0.00134868
0.00583637
0.00021072
0.00125406
0.00103284
0.000128677
0.000593672
0.000244272
0.00468341
0.000331218
0.00429325
0.000801486
0.00116407
0.00583953
0.00125947
0.0019875
0.000570075
0.00236501
0.000486987
0.0058464
0.00930078
0.0219544
0.0171366
0.00092791
0.000716989
0.00349913
0.00584709
0.000264924
0.000374909
0.00140835
0.000542631
0.0015749
0.000786341
0.00186265
0.00508463
0.000289588
0.00225801
4.1427e-05
0.000863114
0.00131919
0.00583691
0.0112413
0.000681296
0.000448959
0.0148595
0.00444192
0.00177841
0.0137225
0.0019422
3.17944e-05
0.0199442
0.00583955
0.00101899
0.0106456
0.00527226
0.000990489
0.00584184
0.000734914
9.33622e-05
0.00115333
0.00272604
0.00437395
0.000941064
0.00584127
0.00115059
0.0071556
0.000206662
0.000559873
0.00186778
0.000115394
0.0245901
0.000547885
0.000484334
0.00768184
0.00182394
0.00176983
0.000541196
0.0048946
0.00090321
3.44098e-05
0.00084553
0.000752361
0.000300741
0.00845976
0.0149104
0.00122048
0.0189871
0.0135399
0.00138783
2.48078e-05
0.000259128
0.000381624
0.00345081
0.0153575
0.00584018
0.00109991
0.0108816
0.00138845
0.0188145
0.00149106
0.000137385
0.0225676
0.00138571
0.0020404
0.0220404
0.00520855
0.000206857
0.0247186
0.00247488
0.00584794
0.00296531
0.00127811
0.0184261
0.00393914
0.00106847
0.00128072
9.86745e-05
0.00113703
0.00113505
0.00113257
0.00365504
0.00224703
0.00416182
0.000261488
0.000781669
0.0233762
0.021906
0.00307527
0.022578
0.0197601
0.00121519
0.024331
0.000401697
0.000115662
0.023747
0.00146783
0.000721027
0.00102852
0.00310504
0.000122169
0.0141555
0.00124639
0.000975067
0.0056564
0.00457226
0.00583653
0.00594472
5.44577e-05
0.014775
0.0185409
7.19369e-05
0.000231605
4.77283e-05
0.0014361
0.0104257
0.00102847
0.0059008
0.00583616
0.00670826
0.00433043
0.0205218
0.00584866
0.00112721
0.0058708
0.0107971
0.000185968
0.00583653
0.0018317
0.000887159
0.000338673
0.000459433
0.0159993
0.00182333
0.00110832
0.00304318
0.00308541
0.00160343
0.00527817
0.00225109
0.00150768
0.000216149
0.00551483
0.00583593
0.00583615
0.00331787
0.000565005
0.00126981
0.00173176
0.000663733
0.00333391
0.0017585
0.0108576
0.00583566
0.0178933
0.0100512
0.0204319
0.0207339
0.00264318
0.00891151
0.0205765
0.0123024
0.00342852
0.00153434
0.0174571
0.00010008
0.00216353
0.00104948
0.0179001
0.000499845
0.0218758
0.0205131
0.0165991
0.000167165
0.0018009
0.00150321
0.000458736
0.00583246
0.000111671
0.000308789
0.00245101
0.000613219
0.000766668
0.000320796
0.0227357
0.020136
0.0193881
0.000729271
6.32119e-05
0.00583657
0.00133114
0.00584818
0.000388262
0.0199835
0.00333049
0.00144131
0.000343903
4.05265e-05
0.00483159
0.00285594
0.000309233
0.00465145
0.00362745
0.00130418
0.00583596
0.000301011
0.00495182
0.000443048
3.94822e-05
0.0057767
0.000776794
0.0125468
0.00588485
0.000230847
0.0220786
0.0090959
0.00334616
0.00408717
0.0010684
0.000758223
0.012988
0.00238199
0.000442838
0.0058531
0.00583466
0.00583623
0.0147549
0.00106787
4.77429e-05
0.0224012
0.00138024
0.000746507
0.00185512
0.00125683
0.0193183
0.00334292
0.00117671
0.0210245
0.00587033
0.00201957
0.0100534
0.0002031
0.000271935
0.0165352
0.0178859
0.000670473
0.0174144
0.000148133
0.000846942
0.00583743
0.000431082
0.00121379
0.0193438
0.000730854
0.00583529
0.000810375
0.0058405
0.00180545
0.0127432
0.000674442
0.000327136
0.00462123
0.00122552
0.00583682
0.00595544
0.000398391
0.00583543
0.0208799
0.00152512
0.000794256
0.00995029
0.00584583
0.00111055
0.00897163
0.000363336
5.3148e-05
0.016728
0.00195431
0.000739147
0.00583656
0.0239401
0.000216756
0.0115129
0.000197831
0.00860379
0.0174014
0.000107856
0.00290392
0.00586327
0.00103996
5.45422e-05
0.000500354
0.00105219
0.00969473
0.00584229
0.00490172
0.00103217
0.000606197
0.0058724
0.00330855
0.000167586
0.000303484
0.00314273
0.00163159
0.00355077
0.000230374
0.00243531
0.000483661
0.00320105
0.000243849
0.0195841
0.00583666
0.0201071
0.0012892
0.00584347
0.000426522
0.000455057
0.000690526
0.0146811
0.00120051
0.000366417
0.000283403
0.00274691
0.00584545
0.0246339
0.00557493
0.00585589
0.00584758
0.000605542
0.0058556
0.00305436
0.000256781
0.00839781
0.0143802
0.00413686
0.000376732
0.0239898
0.00101211
0.00583645
0.000112918
0.000871715
0.00356812
0.00173201
0.01446
0.000766917
0.00338196
0.00145668
0.000775516
0.00583901
0.015781
0.00583881
0.00111142
0.00118341
0.00583469
0.0029542
0.000428429
0.000208955
0.000260882
0.021815
0.01402
0.00583742
0.0205035
0.000231502
0.000964256
0.000810676
0.000840522
0.00106142
0.0010612
0.000971545
0.0166852
0.000194229
0.0013468
0.000123144
0.000662772
7.76478e-05
0.0001887
7.32551e-05
0.00338504
0.000225562
0.023775
0.000414135
0.0010799
0.0185428
0.00163395
0.00515864
0.00236617
0.000488638
0.018267
0.0233205
0.00354202
0.00273697
0.00177343
0.000689342
0.003653
0.00518192
0.0010332
0.0161036
0.00584429
3.55069e-05
0.0016176
0.000844393
0.00878209
0.00586849
0.0208087
0.00116861
0.000108798
0.000432995
0.000325886
0.000321772
0.00583706
0.00364191
0.000673951
0.0028804
0.00145286
0.00584423
0.000550214
0.00414255
0.000897369
0.000487333
0.0140592
0.000954531
0.00583605
0.00722034
7.00097e-05
0.0222593
0.00127457
0.000263369
0.000957626
0.00316762
0.00588324
0.00101987
0.00266287
5.34845e-05
0.00113434
0.00585619
0.0021303
0.0140996
0.00244117
0.00354396
0.000367631
0.00584122
0.00758228
0.000245854
0.0058512
0.00396842
0.00583719
0.00257006
0.00584275
0.00584855
0.0137722
0.000385577
0.000365952
0.00109695
0.00583693
0.00285437
0.00168343
0.00739301
4.71575e-05
0.022808
0.000657777
0.00583735
0.0010984
0.00258198
0.019731
0.00107081
0.000341858
0.00125938
0.0127876
0.00295089
0.00590696
0.00837728
0.0241434
0.00115397
0.00041501
0.00586493
0.000826363
0.00160232
0.00122549
0.00092064
0.00584793
0.0114699
0.000581591
0.00584607
1.6957e-05
0.00120194
0.000165661
0.00229568
0.00121209
0.00584687
0.00332094
0.000734893
0.000340059
0.00072485
0.000299598
0.000797409
0.00045165
0.00104709
0.000545505
0.00583479
0.000660681
0.000990242
0.00269011
9.12242e-05
0.00262696
0.000752143
0.0195197
0.0178656
0.00275652
0.0199923
0.000378708
0.00583894
0.00148295
0.00101203
1.72908e-05
5.4622e-05
0.00585231
0.00069638
0.000783702
0.0199429
0.0210017
0.00288751
9.45985e-05
0.00280816
0.0116983
0.00164823
0.000152847
0.00135064
0.0227836
2.10593e-05
0.00166188
0.00583352
0.00119459
0.0108725
0.00302265
0.00290725
0.00333414
0.0168405
0.00557435
3.41602e-05
8.27697e-05
0.00584933
0.00496201
0.0236996
0.00111241
0.0209335
0.000205535
0.00205878
0.000936647
0.00112141
0.00130475
0.000704789
0.00126256
0.000207358
0.00585006
0.00585047
0.0206307
0.000757028
0.00584192
0.0210704
0.005087
0.00301917
3.34168e-05
0.00587146
0.00107911
0.00248469
0.00678947
0.0154314
0.00216236
0.00179527
0.0179492
0.00170297
0.000377122
0.00268068
0.000252161
0.00269127
0.000488879
0.0031379
0.000874089
0.0186951
0.00170392
0.000769328
0.019782
0.00101054
0.0241457
0.00262148
0.00072315
0.00583915
0.0149872
0.000326282
0.00584995
0.00115204
0.00244894
0.000519309
0.0054774
0.00583548
0.0177661
0.00585044
0.00146448
9.20726e-05
0.0118446
0.000778964
0.00353143
0.00584633
0.0212369
0.00584458
0.00155637
0.000109013
0.019697
0.000128496
0.0147794
0.00708292
0.000153318
0.00342508
0.0157349
0.00116522
0.0176529
0.00176642
0.000817506
3.96787e-05
0.000671097
0.0058694
0.000160606
0.000239959
0.000188099
0.0018018
3.84528e-05
0.00276844
3.02551e-05
0.00397994
0.000639808
0.00583987
0.0239062
0.00584708
0.0036164
0.0174846
0.0011317
0.00106105
0.0245248
0.000199672
0.00585754
0.000203412
0.000613166
0.000106588
0.00583812
0.000263533
0.00317492
0.00024951
7.00845e-05
0.0123234
0.0168338
0.0058359
0.0106936
0.000358812
0.00126096
0.0119513
0.0211027
0.000611263
0.00583792
8.50028e-05
0.0166287
0.000693321
0.000390257
0.00583487
0.00583933
0.00585216
0.00583808
0.00217128
3.68278e-05
0.000335354
0.00350563
0.000469013
0.00584389
0.00285544
0.0165835
2.94872e-05
0.00227649
0.00113426
0.00345216
0.00193275
0.0177431
0.000328333
0.00018407
0.00311716
0.00516372
0.00111999
0.000411512
0.00595595
0.00399487
0.0058397
0.00583286
0.00415196
0.000454084
0.000342044
0.0216748
0.000337628
0.00584599
0.00308847
0.000355307
0.0195605
0.00336762
0.00681305
0.005847
0.00585064
0.00173929
0.00583698
0.000817939
0.00293458
0.00584349
0.0029024
0.000743466
0.00592241
0.00583747
5.02749e-05
0.0166054
0.000881015
0.0178517
0.00172135
0.000695474
0.00583321
0.00018056
0.000959705
0.0192215
0.00349186
3.78033e-05
0.00585047
0.00102823
0.00188617
0.00014144
0.0243963
0.0192344
0.0223468
0.000112433
0.000830974
0.000976311
0.0236531
4.46082e-05
0.00121857
0.00585709
0.00893187
0.000724016
0.0243571
0.0058347
0.00583658
0.0246228
0.000161729
0.0171995
0.0010931
0.00583614
0.00106243
0.0173777
0.000794769
0.000259127
0.000464076
0.000651741
0.000261685
0.00154652
0.00157229
0.000820462
0.00642624
0.000577352
0.00576096
0.00583674
0.000552119
0.0187804
0.000481344
0.00591213
0.00583886
0.000931845
0.00077186
0.0058353
0.00281653
0.000800297
0.00364411
0.00584719
0.0161438
0.00123517
0.0213216
0.00583659
0.00583701
0.000278405
3.64372e-05
0.000411041
3.12626e-05
0.000654996
0.00113783
0.00590724
0.01761
0.000653074
0.0179215
0.0049959
0.000402326
0.00046157
0.00161303
0.0180398
0.000213524
0.0140408
0.00559002
0.00583661
0.000760555
0.000332229
0.0240406
0.00098044
0.00583364
0.00196732
0.000724249
0.021076
0.0149109
0.0035524
0.000945525
0.0149622
0.0201277
0.000620004
0.0169165
0.00112843
0.00159591
0.00444184
0.00357834
2.94169e-05
0.0127384
0.0169825
0.00185378
0.00380787
0.00016756
0.00111641
0.000492
0.0203365
0.000953543
0.000556771
0.00178228
0.00359314
0.00495147
0.00583645
0.00583651
0.00343616
0.000772891
0.00584796
0.00584359
0.0201808
0.0059132
0.000748924
0.0183511
0.00028992
0.000797586
0.003372
0.0123879
0.00204812
0.00338616
0.00587455
0.0241067
0.00211887
9.959e-05
0.0217378
0.000773868
0.0153517
0.0211848
0.00174957
0.0158914
0.00158348
0.0212143
0.0179078
0.00426579
0.000996902
0.00311674
0.00162689
0.00583555
0.00113925
0.00675233
0.0212229
0.0029134
0.00132578
0.00584678
0.000290107
0.000951434
0.00107861
0.00573136
0.000361095
0.000832137
0.00590578
0.00592748
0.000596222
0.000266722
0.0210486
0.00246794
0.000151401
0.00587891
0.000515164
0.00593098
0.00378437
0.0240723
0.00713361
0.00113433
0.00110341
0.00117713
0.00244553
0.00583705
6.35984e-05
0.000252364
0.00121218
0.00586813
0.000831798
0.00180185
0.00290686
0.00037498
0.0022916
0.00159993
0.00107217
0.000756654
0.0189315
0.00583528
0.00591542
0.000958898
0.0211343
0.00109711
0.0113045
0.00112753
0.000998592
0.00150119
0.00584247
0.000493595
0.00232626
0.0027254
3.23744e-05
0.00392078
0.0218025
0.00583725
0.00583911
0.00198087
0.00583537
0.0206066
0.00428769
0.00267748
0.0026839
0.00342988
0.000881622
0.00025168
0.000816347
0.00392533
0.000358767
0.00583516
0.00378478
0.000876956
3.97687e-05
0.0112413
0.00906867
0.0198903
0.00583583
0.00065769
0.0130564
4.13319e-05
0.00068263
0.0129721
0.000479362
0.0017798
0.000226341
0.000500825
0.0111194
0.020537
0.000396496
0.0204958
0.000486225
4.7416e-05
0.00246547
0.000950185
0.000323407
0.00583694
0.0037515
0.00583505
0.0232319
0.000240702
0.00174188
0.0144854
0.000615164
0.000626763
0.00589243
0.0118299
0.000140538
0.00601339
0.0247507
0.00585255
0.000574586
0.00228752
0.00241767
0.00122206
0.00583448
0.000610154
0.00123207
0.000922887
3.39828e-05
0.00101767
6.47154e-05
0.00587661
0.000307526
0.00584016
0.000977942
5.66002e-05
0.0194279
0.000202974
5.15176e-05
0.00354495
0.00600727
0.0204214
0.00261959
0.00115461
0.000305141
0.0222001
0.00213273
0.0223957
0.00583505
0.00308636
0.000587308
0.00583855
0.00583779
0.0116992
0.00658403
0.000246319
0.000401758
0.00236529
0.00318813
0.0058387
0.0242121
0.0178265
0.000965814
0.0117141
3.64965e-05
0.000190862
0.00170986
0.00358223
0.00433983
0.00583711
0.00098274
0.00523287
0.00192877
0.00583574
0.0017086
0.00583965
0.0238984
0.000194149
0.0219061
0.0195955
0.000626985
0.0214467
0.00583628
4.15676e-05
0.00334265
0.00904994
0.000971786
0.00460849
0.00512329
0.0114973
0.0239217
0.000164539
0.00248603
0.000522994
0.0012012
0.00176755
0.00148116
0.000503323
0.00378345
0.00583605
0.000859888
0.000638088
0.00746224
0.000844496
0.000641655
0.0236151
0.0011536
0.000138043
0.0154965
0.00586875
3.1098e-05
0.000704746
0.0171019
0.000569598
0.0244112
0.000765211
0.000285317
0.00179552
0.0114353
0.000847949
0.00194586
0.000567077
0.00584095
0.00129359
0.000503198
0.000422414
0.00225306
0.00266997
0.000157087
0.000626323
0.0238494
0.000886666
0.0010035
0.00588126
0.0220747
0.00191349
0.00807712
0.000482005
0.00055483
0.0232581
0.00401629
0.00585135
0.00583614
2.28385e-05
0.0017364
0.022522
0.000497824
0.000389841
0.0238964
0.000393108
0.00583563
0.0182115
0.000655746
0.00130421
0.00364742
0.00899791
0.00583873
0.000164938
0.00583544
0.00193626
0.0235726
0.0010974
0.00965152
0.0157282
0.0140696
0.000770453
0.0123431
0.000541487
0.00355684
0.00112249
0.00137605
0.000135062
0.0200233
0.00443615
0.00289459
0.00065134
0.00103794
0.000367481
0.00177854
0.000496522
0.00143849
0.00584565
0.000562566
0.00163395
6.49946e-05
0.00316563
0.000778161
8.10808e-05
0.0022439
0.000161449
0.0242988
0.0009528
0.00583553
7.44781e-05
2.57596e-05
0.00589008
0.000856348
0.00258957
0.0222079
0.000387987
0.00038692
0.00270318
3.64791e-05
0.00583478
0.000248212
0.0135608
0.0152859
0.00281266
0.00615119
0.000292654
0.000763712
0.00217423
0.00031078
0.0201254
0.000478702
0.00587269
0.00213272
0.0058428
4.87874e-05
0.00583452
0.00146291
0.00141552
7.00232e-05
0.00325447
0.0136325
4.23834e-05
0.000406531
0.00255978
0.000754093
0.0243067
0.00103017
0.00152836
0.00583559
0.00339937
0.000964418
0.00123592
0.000297013
0.000986143
0.00344637
0.00583669
0.00441952
0.00088183
0.0239401
0.0122039
0.00119081
0.000300568
0.000207573
0.000180067
0.00451486
0.00194474
0.00354889
0.000438632
0.000667101
0.00258349
0.00513139
0.000719415
0.00235462
0.00583908
9.84641e-05
0.0181951
0.000899491
0.00108724
0.00583584
0.00269003
0.011308
0.0117731
0.0231971
0.000576564
0.0058544
0.0215451
0.00584303
0.023103
0.0194971
0.0010009
0.0106104
0.000719997
0.00130777
0.000949311
0.00360145
0.00062455
0.00420916
0.0011256
0.00583662
0.000720838
0.000608192
0.00589448
0.00585403
0.00114576
0.00744166
0.0232539
0.0142285
0.000825664
0.00209795
0.000134144
2.66807e-05
0.021414
0.000354754
0.00258506
0.00161341
0.00101934
0.00143536
0.0224296
0.000428906
0.00583569
0.00390171
0.00583675
0.0014971
0.000167836
0.00082289
0.0119112
0.00159503
0.0170791
0.000412259
6.10613e-05
3.31093e-05
0.000386852
0.00586482
0.00195994
0.000155502
0.00912517
0.00061748
0.0165605
0.000850198
0.00583644
0.000638594
0.02356
0.00133421
0.000835588
6.75524e-05
0.0200034
0.0176161
0.0217639
0.00157043
0.000495666
0.000162958
0.00586216
0.00589122
0.000191361
0.00190622
7.15798e-05
0.000723227
0.00583428
0.000163687
0.0019504
0.0058364
0.0179814
0.00360837
0.00325408
0.000860395
0.000511453
2.36028e-05
0.00449636
0.000674822
0.00243569
0.000393623
0.00583552
0.010183
0.000957164
0.00181234
0.0163811
0.000402312
0.000146191
0.00028763
0.00285685
0.00245024
0.00112866
0.00152688
0.0168128
0.00105201
0.00101557
0.0245102
0.00663962
3.9215e-05
0.00069879
0.0121536
0.0154729
0.0232433
0.000340958
0.0189164
0.000596239
0.0242468
0.0197655
8.40028e-05
0.00584279
0.000132644
0.0154798
0.00253993
0.00341851
0.00579192
0.0028356
0.000243156
0.0213108
0.000322316
3.44464e-05
0.000182555
0.00285411
0.000109804
0.0124744
0.00583918
0.00799921
3.74491e-05
0.000174078
0.000770678
0.00300254
0.00584647
0.0123069
0.00234769
0.0195707
0.00239184
0.000772614
0.00583551
0.00891878
4.00677e-05
0.0227025
0.00271428
0.00061093
0.00583649
0.000342276
0.0164655
0.00200457
0.00344607
0.00421684
0.0058362
0.00586671
3.98257e-05
0.00440399
0.00317805
0.0223246
6.01639e-05
0.0106332
0.0226886
0.000510143
0.0130214
0.00185039
0.000409166
0.00452509
0.000695378
0.00112612
0.00108297
0.00258978
0.00584164
0.00327944
0.000197377
0.00587646
0.00128841
0.000447736
0.00584338
0.00390026
0.000637649
0.00583455
0.000473314
0.00583668
0.0196425
0.0228901
0.0244669
0.00584579
3.26083e-05
0.000629614
0.0032611
0.00272102
0.000401886
0.000670456
0.000833006
0.00032036
0.0207461
0.000508217
0.000208123
0.00241718
0.00528583
0.000383391
0.0229492
0.00220813
0.0158509
0.00596432
0.000277542
0.00235637
0.00387279
3.10092e-05
0.00186245
0.0018855
0.000182888
0.00231363
0.000555291
0.000961914
0.00201595
0.0007834
0.00590022
0.000175731
0.000711744
4.83777e-05
0.00017801
0.00585964
0.00295061
0.000657056
0.000888418
0.0185628
0.000686219
0.00329462
0.0124972
0.0058391
0.000232239
0.00583564
0.00331915
0.00025482
0.00215746
0.000465233
0.00585715
0.0040031
0.000686395
0.0233545
0.0156669
0.000267555
0.00202531
0.00307363
4.98411e-05
0.000576076
0.00590741
0.0058512
0.000872667
0.00583344
0.0198185
0.000700018
0.00586036
0.0011447
0.0234306
0.00585618
0.00142069
0.000355252
0.000208828
0.0207727
0.00357506
0.000184062
0.00592169
0.0222995
0.00315182
0.00047449
0.00182822
0.000509075
0.00584863
0.012082
0.00953266
0.000761732
0.00583592
0.00240062
0.000920569
0.000340304
0.0217859
0.000298041
0.0029287
0.00368801
0.000629441
0.000620414
2.55041e-05
0.000232556
0.000846372
0.000465509
0.0207597
0.00583416
0.0191501
0.00112877
0.000859987
0.00512173
0.00585025
0.00274949
0.00136227
0.000655753
0.000414205
7.97749e-05
0.000372495
0.00899501
0.0137424
0.00151714
0.0020771
0.00446425
0.00326433
0.00313647
0.000176305
0.00583916
0.000813308
0.000853513
0.0155488
0.0223288
0.0222208
0.00431797
0.00601551
9.48495e-05
2.67574e-05
0.0073588
0.000557304
0.00282705
0.000431877
0.0209347
0.00117108
0.000402803
0.00472682
0.000247321
0.0012193
0.000829286
0.0010542
0.00583865
0.0197097
0.00878435
0.00131132
0.00492907
0.00301165
0.00054704
0.0225212
0.000455429
0.000186353
0.00176033
0.000458508
3.14428e-05
0.000628832
0.000515165
0.0174995
0.00169661
7.51988e-05
0.0115745
0.00752592
3.2356e-05
0.0232143
0.000715349
0.0124314
0.00394089
0.00123284
0.000407157
0.00584515
0.0016875
0.00288275
0.00112014
0.0231959
0.00583679
0.0040066
0.000493711
0.0223046
0.000311002
0.00099578
0.00263163
0.0214805
0.00957064
0.00019793
0.0138733
0.000988935
0.00133421
0.00162134
0.000252922
0.0197898
0.000126947
3.7784e-05
0.0223051
0.0118179
0.00139883
0.00352002
0.0059353
0.00149175
0.00109107
0.00260901
0.00174041
0.000394416
0.00095386
0.000224544
0.00112852
0.00526175
0.00232128
0.000110446
0.00507677
0.0195525
0.0011276
0.00352637
0.0201915
0.000773694
0.00583551
0.00594391
0.0004395
6.27436e-05
0.00128755
0.0118458
8.64455e-05
0.000304921
0.00122998
0.0044216
0.00264621
0.000948729
0.0100366
0.00340989
4.59516e-05
0.00120823
0.00367751
0.000666624
0.0225516
0.00141184
0.00584642
0.00123366
0.00583268
0.00254572
0.00453604
0.00501063
0.000597953
0.00887206
0.00584623
0.0213208
0.00235266
0.0107041
0.000604569
0.0215399
0.00323953
0.0175008
0.000860481
0.00700405
0.005837
0.00160576
0.00145659
0.000107963
3.32611e-05
0.000222515
0.0182838
0.000340776
0.000286291
0.00275663
0.00583673
0.000285052
0.00936354
0.00583632
0.0246767
0.00601503
0.0205144
4.09127e-05
0.000324667
0.00066167
0.00496267
0.0187131
0.000728512
0.000404503
0.00138863
0.00025597
0.00354161
0.00829314
0.000141976
0.00270764
0.000163195
0.000539606
0.00251827
0.00636272
0.00590864
0.000321418
0.000115656
0.0232735
0.00429666
0.00583806
0.000306991
0.00153828
0.00584825
0.00583634
2.74085e-05
0.00584763
0.00109729
0.000393777
0.000251326
0.0177371
0.000965078
0.0217005
0.0177913
0.000802365
0.000812089
0.0192383
0.000938399
0.00262512
0.000634183
0.00584415
0.00205201
0.00040256
0.00104243
0.00182845
0.0136138
0.0190453
0.0184514
0.000942477
0.00586759
0.021533
0.020414
0.00155974
0.0200883
0.0205199
0.00708467
0.00268715
0.00406427
0.00100246
0.00555318
0.00059323
0.00248266
0.0058352
0.000300076
0.000725785
0.0181131
0.00105515
0.00025952
0.00585631
0.00583673
0.0096365
0.000440089
0.00879428
0.015561
0.000659349
0.00592795
0.000386803
4.51444e-05
0.000223192
0.00120344
0.0038112
0.000675011
0.0125303
0.00127913
0.000286998
0.0198192
0.00583517
0.00711984
0.000211787
0.0033032
0.0195458
0.00501254
0.00268624
0.0195144
0.000138192
0.0108624
0.00113791
0.018796
0.0024171
4.54552e-05
0.000173728
0.0228189
0.00583642
0.00710316
0.00368023
0.0210501
0.00537187
0.00704002
0.00190949
0.0125512
0.000967573
0.000463618
0.000644577
0.0223268
0.00583567
2.84723e-05
0.00388359
0.000892349
0.000348786
0.0054801
0.0196919
0.00553301
0.00593092
0.00585983
0.00597564
0.021817
0.0131193
0.00197417
0.000472582
0.00154965
0.0116392
0.0235635
0.0229762
0.00723712
0.00102037
0.00723684
0.0234921
0.00978032
0.000305561
0.019585
0.0165584
0.0123938
0.00584771
0.0208896
0.000355561
0.0212988
0.003644
0.00166936
0.00583553
7.62501e-05
0.00597843
0.0220933
0.00590646
0.023609
0.00104275
0.00700931
0.00584059
0.00767868
0.000674676
0.00141342
0.00233339
0.00359621
0.000268249
0.0068627
0.00584198
0.000102184
0.00586735
0.00695202
0.0112315
0.00834331
0.000658502
0.000348847
0.0113128
0.0236167
0.000133199
0.0236036
0.0245039
0.0232716
0.0238213
0.00508422
0.00209237
0.00116737
0.00585122
0.0228065
0.0151187
0.00585538
0.000729109
0.0088886
0.0226014
0.00123323
0.0015617
6.52473e-05
0.000692116
0.000298973
2.69181e-05
0.00199966
0.00687122
0.022331
0.0101958
0.00265682
0.00825107
0.00247926
0.00552784
0.0222759
2.93383e-05
0.0132602
0.00669123
0.0057796
0.000433049
0.00841877
0.00904682
0.000830149
0.00166938
0.0216166
0.0179812
0.000453422
0.000549404
0.00248539
0.000326095
0.000977841
0.00669641
0.00013193
0.000455889
0.000864273
0.00583686
3.26709e-05
0.00202047
0.00446508
0.00652252
0.000748674
0.00141227
0.000304523
0.0230723
0.000366176
0.0058458
0.0160797
0.00119219
0.000362223
0.00102857
0.00142562
0.00962728
0.00128461
0.000308921
0.000983582
0.000437786
0.0115265
0.0225597
0.000415193
4.24572e-05
0.000586511
0.00146505
0.00686869
0.00862138
0.00620979
0.0180887
0.00519811
0.00583556
0.00117991
0.00873452
0.000122461
0.000602563
0.000200677
0.00583662
0.0200681
0.00444277
0.0022061
0.00586307
0.000974822
0.0181859
0.000818745
0.0031903
0.00330495
0.000399005
0.000402925
0.000184144
0.0172232
0.000292044
0.0119907
0.00585193
0.0109307
0.00118349
0.007722
0.00979267
0.0058371
0.00585885
0.00424992
0.00281175
0.00698234
0.00107966
0.00254936
0.000635315
3.37674e-05
0.00583665
0.00220985
0.00378238
3.81785e-05
3.56246e-05
0.0182024
3.25911e-05
0.0189335
0.000547626
0.0139172
0.000775735
0.00334957
0.0058528
0.0241328
0.00045524
0.00868574
0.00252474
0.000621561
0.00179324
0.00129101
0.0209996
0.00333186
0.0197016
0.00273374
0.0114328
0.000134683
0.000423348
0.00199683
0.00485459
0.000697736
0.000928353
3.84462e-05
0.0093712
3.94031e-05
0.00102841
0.021241
0.000627192
0.0219118
0.0012308
0.0120467
2.94113e-05
0.00390605
0.0187668
0.000277806
0.00117971
0.000287432
0.00575675
0.00371521
0.00550762
0.00931118
0.00826087
0.0026038
0.0018757
0.000154655
0.000544875
0.0061594
0.000445951
3.02488e-05
0.000455894
0.000601899
0.000157101
0.00942865
0.000799674
0.00348666
0.00438754
3.64746e-05
0.00482301
0.000637426
0.00122016
0.00840049
0.00141136
0.00584713
0.000704034
0.0192901
0.000275171
0.0205597
0.00948303
0.000996237
0.000901511
3.66325e-05
0.0179492
0.00586596
0.000208244
0.0169612
0.00584707
0.0058512
0.00897514
0.00399166
0.0010624
0.000208953
6.07424e-05
0.00942687
0.0211891
0.00022517
0.0196342
0.00485188
0.00343452
4.02658e-05
0.0011386
0.0013942
0.00136323
3.7624e-05
0.000488902
3.87324e-05
0.0195322
0.00271339
0.00372919
0.0010884
0.000917768
0.000344661
0.00116165
0.00536572
0.000936424
0.0238733
0.000240622
0.0196782
0.00912932
3.84805e-05
0.00830187
0.0094816
0.00092993
0.00948653
0.0150204
0.000132325
0.000615587
0.00962784
0.0151481
0.0202536
0.00954558
0.00116808
0.000752838
0.000197529
0.00716289
0.00728482
0.00954366
0.00937486
0.00332276
0.00583639
0.0069874
0.000704371
0.0106885
0.00107565
0.00583556
0.00120488
3.98689e-05
0.0142782
0.000492955
0.0029307
5.93354e-05
3.45898e-05
0.000151455
0.0011342
0.00329664
0.00295242
0.000275577
0.00117372
3.7154e-05
0.0206812
0.00948723
0.0117588
0.00583276
0.000419552
0.00134703
0.000802128
0.00169172
0.00581058
0.000111408
0.00135053
0.00136136
0.005862
0.0175634
0.00944189
0.011197
0.00583955
0.000798525
0.00854193
0.0111042
0.00140476
0.000723982
0.000140935
0.000466616
0.000798241
0.000535707
0.000813801
0.000827263
0.00948822
0.00877169
0.00972961
7.24867e-05
0.0058356
0.00392252
0.0206842
0.00816201
0.00948881
0.000637919
0.00914406
0.023238
0.0216139
0.003396
0.0122038
0.0107379
0.0108854
3.73396e-05
0.0171301
0.0100108
0.00589565
0.0114973
0.0101437
0.00584428
0.0222028
0.0102041
0.0111188
0.0232623
0.0116623
0.00583828
4.62778e-05
0.000737706
0.000200725
0.000565463
0.00100257
0.00121004
0.01069
0.00112586
0.0154707
0.000692525
0.00940053
0.0161616
0.000678136
0.0038242
0.0165321
0.00934967
0.00545467
0.0104152
0.0147885
0.00128591
0.00939817
0.00114167
0.0220655
0.0218542
0.0010163
0.00195291
6.56761e-05
0.00544294
0.0011021
0.0159951
0.0137357
0.0241126
0.0231657
0.000285552
0.000250582
0.0240435
0.00358492
0.000537224
0.00700535
0.000354486
0.000651264
0.0148128
0.014689
0.00198727
0.000346601
0.0235028
0.011331
0.0237484
0.00897006
0.000805024
0.0238456
0.0164568
0.000251045
0.000572626
7.16497e-05
0.00688737
0.000207378
0.00307989
0.00200963
0.00370553
0.00959286
0.000971974
0.00105452
0.000807385
0.000787438
0.000844228
0.00118335
0.00583655
0.00583623
0.00130566
2.59661e-05
0.0229195
0.00115354
3.70702e-05
0.00118938
0.000184867
8.47238e-05
0.000229801
0.0185082
0.00218258