/*--------------------------------*- C++ -*----------------------------------*\
| =========                 |                                                 |
| \\      /  F ield         | OpenFOAM: The Open Source CFD Toolbox           |
|  \\    /   O peration     | Version:  v2012                                 |
|   \\  /    A nd           | Website:  www.openfoam.com                      |
|    \\/     M anipulation  |                                                 |
\*---------------------------------------------------------------------------*/
FoamFile
{
    version     2.0;
    format      ascii;
    class       volScalarField;
    location    "300";
    object      omega_0;
}
// * * * * * * * * * * * * * * * * * * * * * * * * * * * * * * * * * * * * * //

dimensions      [0 0 -1 0 0 0 0];


internalField   nonuniform List<scalar> 
15335
(
6.50152
0.232631
6.49649
0.0402126
3.05911
0.0254533
0.11166
0.40361
0.0359585
4.53511
4.86045
0.0268562
3.22721
11.6359
5.89945
6.46103
0.0288691
5.58237
0.0248766
8.8467
2.82193
2.86326
0.111349
0.0249456
0.210317
0.141032
15.4136
0.142626
7.18147
0.0277252
17.1847
4.65458
0.0256604
0.0255433
0.0253557
0.659226
0.585979
8.4437
5.09128
0.369892
0.181931
3.76532
0.0254173
0.0297854
6.51367
0.0251095
6.347
3.48872
5.44255
0.0286412
0.0249546
4.99206
5.39693
0.0256761
0.0254298
0.10147
0.160227
5.06485
4.4472
4.8542
2.61847
3.39483
0.0462219
0.0312629
0.0251679
0.02665
5.28
4.5953
0.0251083
0.0248246
0.0408288
0.0274051
0.211421
2.52986
5.09649
2.60439
0.189435
0.142813
10.4415
0.0256513
3.04877
13.9032
2.85068
0.210704
14.6215
0.0251449
0.0248637
0.0295937
0.0275334
0.238571
3.27201
0.0798973
0.0267367
3.80938
3.49033
0.0273056
0.0251217
0.0405203
0.025063
0.0256664
0.0254099
2.61561
1.06183
0.0644002
0.026195
0.0356083
0.0253807
0.0408094
3.21363
0.0547752
2.74495
0.102101
0.0254141
0.0269392
4.91452
0.0275553
0.0408097
3.80246
3.11403
2.57708
3.22081
3.53293
2.52315
3.55811
0.0254306
0.0254079
0.132032
0.0255655
0.0638591
0.0254885
2.65718
5.42215
0.0251314
0.0688453
0.127858
0.0252192
2.89169
9.73405
0.0463024
0.392603
0.0790211
0.241619
0.0607156
0.0287538
2.6409
16.3135
2.55073
5.29854
0.186844
2.85058
0.0280418
4.8957
0.0254071
0.0271446
2.41482
0.0256608
3.43954
6.49876
3.56035
6.77734
0.0256482
0.0345016
3.59264
0.0497839
4.8764
7.17352
5.37569
0.0249687
10.0695
8.4527
13.5201
3.91619
3.11712
0.0753735
0.156104
0.0256515
0.0256202
3.52206
19.5717
3.46121
0.164239
7.41963
2.55751
0.0387425
0.0388038
4.29805
0.0312896
0.0382751
2.54609
2.66458
7.08898
0.404457
0.029534
0.183
1.92807
9.0081
0.0254372
5.58262
0.0254372
3.908
0.0401233
0.0674499
0.0489964
7.81596
5.31455
0.134624
0.0256311
0.0788961
0.0371625
0.0322728
0.0749789
0.0254016
2.39905
0.0274071
0.520392
0.0813216
6.23429
4.78202
0.0863588
0.765472
0.0254271
0.0253685
0.0325087
0.0288483
0.221792
4.08075
0.0250833
22.1769
0.0490603
4.47185
0.0252105
0.0250429
4.47547
0.692078
8.38512
0.0631251
0.184104
0.0854335
0.0256006
3.61465
3.0074
0.0551055
2.53883
0.0386165
5.16316
0.0251576
0.0262035
6.05792
3.17578
3.11561
6.8869
8.11029
0.025113
0.0249667
0.0490904
8.26103
0.0795072
2.6748
0.024807
0.146118
22.5743
0.0256637
0.0250172
0.025441
0.025133
0.0247892
6.54382
5.04925
6.09047
0.0254634
6.15972
5.98962
6.26482
0.0252146
7.32556
0.0270546
0.0255726
0.15827
0.0306605
0.0485211
20.7378
2.63869
0.0250972
0.0788095
0.0288147
2.98449
3.33265
0.0283281
0.0266207
0.0257797
6.60426
0.0267927
0.0676398
0.238579
0.0289792
17.7721
0.0250288
0.174809
0.0253555
2.66844
0.0254355
3.07727
0.142879
4.15748
0.0252555
9.48016
5.37542
0.0256049
5.30454
0.029303
2.69539
0.0251773
0.211624
3.6335
5.43397
0.0254171
0.0255551
3.66031
3.62932
0.557996
0.453556
0.0251451
17.849
3.63095
0.0359698
2.41689
2.6919
4.48476
0.0283487
0.0279398
0.0256535
0.139518
0.0261398
0.23239
0.0738524
1.09954
0.0511252
5.01984
13.2433
5.51968
0.101466
0.11938
0.0254301
0.11828
0.0312173
0.0290749
0.0255499
0.368728
0.0250529
3.08414
2.60313
2.68421
0.0275865
13.8775
5.35222
0.0253657
0.0371719
0.0442568
0.0492599
0.090425
0.028238
0.0595674
0.0287842
5.6796
0.0365193
6.42904
3.17724
0.0588203
0.02777
0.0251976
4.11194
0.0291478
0.0444648
4.96984
0.0254177
2.91794
5.47378
0.0289365
1.21564
2.40618
0.0254218
0.0288749
2.81231
5.4518
0.0317102
0.0251951
0.105208
0.0770389
0.215899
7.07524
0.0254151
0.0271455
0.0251957
0.212816
5.22552
0.228865
0.367215
0.0309138
0.0656847
2.88233
0.0877458
0.090363
3.66591
0.0281054
0.0262794
0.0887144
8.36738
30.3024
0.727499
0.21436
0.211196
0.0352187
5.24963
2.67218
0.19077
3.8538
3.37859
0.0273456
0.970331
0.0602045
0.0338184
5.31029
3.54965
0.0251074
0.200777
4.29761
0.117815
3.96979
0.02875
19.5973
3.60624
3.88519
7.6381
3.74953
4.53273
0.193677
2.98125
6.2069
0.024815
0.0254439
3.42744
2.68506
0.0253259
0.221974
0.0478635
0.0699417
9.65839
0.119745
0.0861453
8.24737
7.12568
5.54498
0.0651527
0.0285882
3.54706
3.38806
0.0254445
2.80731
2.52259
0.0854469
3.05975
0.671364
0.32019
2.93177
0.048398
0.0348751
0.0304456
0.0254395
0.0824125
3.6566
0.182558
0.19513
5.63038
0.0254128
0.0256393
0.0251861
2.81956
5.33486
2.68097
3.13584
0.205308
1.40986
0.0325521
2.91872
0.0264699
0.0251136
0.0256522
3.61782
0.0252917
2.5601
0.0248595
0.0264761
0.0251072
4.31903
1.21103
0.025661
0.0308956
0.101221
0.0342668
0.0315333
4.14692
0.0286719
0.192556
0.0265707
6.304
0.0264487
0.0252684
6.64964
0.026299
0.045744
8.38475
0.0251909
0.0256513
5.36776
0.645497
2.04621
0.0269687
0.0370167
0.0255916
19.6526
4.79274
0.0256524
2.67046
4.70269
2.54802
2.60931
0.0255282
3.70159
3.65104
2.87304
5.2118
0.0327749
3.45154
0.068588
2.87732
0.232403
2.75588
18.4239
2.69433
2.56307
2.67253
0.0729439
0.0263617
0.0289574
0.0440434
0.0253987
0.262391
0.0930082
8.51552
0.106533
0.0782189
0.971959
3.13711
3.53437
2.36712
0.209552
0.38695
0.0256562
0.0285719
0.0248102
0.0375938
3.20084
0.0255322
0.0324005
0.0959744
1.05113
6.24774
3.59927
0.220166
5.17855
0.0253588
0.0260824
0.0256484
0.0379307
4.69219
0.0455462
0.645791
0.0252611
0.0397524
3.19064
0.0250914
0.0539613
3.43493
5.81085
5.37389
0.0254212
0.0284104
0.0275946
5.81516
7.83513
0.0373272
0.0248529
0.0252305
0.0256365
3.40349
0.132902
3.15759
2.72861
0.02679
0.308437
0.0296232
0.0272312
4.36458
0.0253976
0.031132
2.5847
0.0251155
8.05018
4.80746
0.0463592
0.89519
4.85421
3.69388
0.0402874
3.50846
0.140348
0.0288453
0.0255579
0.0438104
0.0852426
4.33696
0.0427014
0.0256356
31.7518
0.0254453
0.0287043
3.02931
0.102703
0.0994074
6.3308
0.0326564
0.0254183
0.0251343
0.0354345
0.0256347
3.54257
0.0264395
0.0766473
3.0155
0.0249589
0.0279053
3.15846
0.035734
0.1461
4.69416
0.0257918
0.21201
0.0255659
2.94331
0.373406
4.75832
0.198625
3.12813
2.68159
0.0685082
6.06334
0.0248508
0.0868473
0.155929
5.60037
0.0265465
6.75701
0.0254257
8.35994
0.0300792
0.500248
0.0250872
0.0255191
0.190395
0.191257
0.025456
0.0340392
0.0254603
0.39782
3.40746
0.0369619
5.3078
14.0016
2.57602
0.025576
3.64942
0.0263299
0.0250299
0.161326
0.0324037
0.0285289
2.90076
0.0306302
0.0356599
0.0356817
0.0254731
0.0249527
2.87681
8.15739
0.025055
0.0250372
0.143171
0.0251408
6.63879
0.0527993
3.41263
5.10885
0.0253148
0.0495524
2.67789
0.0601783
0.025663
0.0693584
0.0404785
0.0254081
16.0239
2.90924
0.0388202
6.68651
2.35923
0.0382169
0.025497
4.1868
0.0254907
0.0282763
0.118873
0.0255955
0.0256069
0.165558
2.01142
11.9958
2.69497
3.44291
0.0255689
2.62755
24.2216
0.0429373
4.56061
1.71535
0.221046
0.223882
0.0589952
2.74146
0.0424955
7.05646
0.0688411
0.0367671
0.140554
0.185329
2.22965
0.025917
0.0798941
3.19383
0.0323059
0.0308527
2.38143
4.36454
4.50598
0.0255553
2.61219
2.65944
2.83132
5.38808
0.0255712
0.0311717
0.305303
5.64519
4.52518
0.0344418
2.70929
0.0251802
0.697223
0.0339319
0.0285133
6.12596
0.0250945
2.72178
0.0328266
0.0823381
0.0314464
0.0344511
11.2423
0.0255667
0.0253282
5.10212
6.85205
0.0325859
0.0251638
0.0311808
5.61554
0.0787319
17.2999
5.16232
0.0326413
0.0256255
4.4703
0.150081
2.73532
0.0319496
0.0372759
0.0787062
0.0254272
0.0250729
0.0341538
3.27186
0.148379
0.117852
0.0250829
6.72739
3.37882
0.0255329
0.0253821
0.033747
0.0254182
5.09524
0.590863
0.0253921
0.0253953
0.0255772
0.0255134
0.0254366
0.024868
5.59018
0.0527368
0.0381376
5.22308
0.0255573
0.0267374
0.0269647
8.89456
2.56851
2.86719
0.0320274
0.0255854
4.22738
0.025499
2.39366
0.0296581
0.0826407
3.47823
3.01691
0.0254543
0.024871
5.33824
2.92473
0.0313917
0.0359319
0.0248594
0.215161
0.0342595
0.0316587
0.0271308
0.024839
3.1767
0.0339251
0.0250342
3.37634
4.16299
20.5263
6.81792
0.0850653
0.0249275
7.07575
0.164115
3.29807
0.0340682
0.0359093
0.0805247
0.0345963
4.10833
1.07332
0.0252442
0.0672848
0.0784605
0.0254699
4.07778
0.0264232
0.0276026
3.83088
3.73862
0.0254692
2.41343
8.2508
0.0254275
0.0259899
0.176917
2.94864
0.155806
0.0250554
0.0501606
0.0415628
3.13661
2.60523
5.23189
0.0782884
0.0255665
2.83334
0.0271369
0.0525768
0.0265735
3.08521
1.53173
0.0264769
0.0253639
0.0325679
6.63909
16.252
0.0254428
0.0254375
2.82676
0.0252765
0.587739
0.655778
0.0250545
0.0252983
3.36589
0.0303654
3.86945
29.5663
0.0255948
0.0280914
0.119899
0.0277403
0.068843
0.117598
0.0426622
0.0253956
0.0250586
2.56963
0.0333729
0.0254448
2.58656
3.06838
0.0254545
0.865291
0.0252512
0.0281363
0.0255157
4.20867
2.79159
0.025537
0.0258814
4.07943
0.0286207
0.0911464
0.0262605
0.0540991
0.0254833
0.0413289
0.0254391
1.58324
2.65729
0.0263531
0.0376648
2.56909
0.0277903
2.72015
4.7191
0.0355369
0.025505
4.33481
0.445411
0.0253907
0.211144
0.0255109
0.649001
4.54057
0.0256356
3.77052
0.0253868
4.37215
0.160966
3.33934
0.0383755
5.73548
0.0249353
3.63039
0.025441
0.0288538
4.38052
2.38831
0.0503153
5.44239
3.96517
0.521077
6.08265
4.15324
0.0328964
3.87989
7.18313
0.0274473
0.374027
0.210972
0.0251187
0.0475011
0.047615
0.0432931
4.65705
0.433646
0.0255581
0.655948
0.0254174
0.45091
0.0254306
2.5981
0.0251556
6.02465
2.70986
0.197088
0.1713
2.97351
0.0420834
0.0250403
0.0717024
15.6528
0.137685
0.0252075
0.0513307
0.0259807
0.0405853
0.100634
3.57562
4.47032
0.0256624
3.34565
0.0431849
0.182164
3.59581
3.70645
0.427328
0.0252154
0.0863798
5.04508
0.0277463
19.113
0.0252499
0.0254961
0.0253937
0.0254232
0.0291133
0.458197
0.0339514
4.84344
0.0312643
0.0254467
0.0254562
2.74934
2.662
0.0262851
0.0853114
5.80688
9.16502
3.90648
0.0363004
0.0854474
6.96556
0.0252984
0.027207
1.05011
0.0251318
5.74496
0.0251269
0.0253628
5.46083
0.0415509
0.231262
2.50654
0.0329998
0.0249524
0.0256276
0.0358349
2.5923
12.6004
3.55224
0.0248211
0.025398
0.0268234
0.0255994
0.0273815
0.0254848
0.0250378
0.0254505
0.0702285
0.0250932
0.0255828
3.48833
2.69696
0.027717
2.67389
0.0257189
0.0280534
4.27564
0.517262
0.0294958
2.60534
5.75103
0.414413
0.0250784
2.38605
7.35178
0.0558277
2.95693
2.60527
2.6785
2.0362
0.0382272
0.0345923
2.52865
0.184825
0.0265068
0.0250546
2.87903
0.0778753
3.18132
0.0256032
0.0255675
2.88672
0.0629333
4.06438
0.0440667
0.0254356
0.220807
5.07715
0.0279343
1.00337
3.26505
0.434714
14.5378
0.0260268
0.0340339
0.0771398
4.18518
0.15243
3.01237
0.0255577
0.13944
2.41498
10.8287
0.0252463
0.0254183
0.252963
0.0715581
0.0256334
6.71299
0.0274937
0.0253723
0.0246593
2.75263
7.906
2.89087
0.025665
0.0256282
0.241658
0.430613
0.11291
0.611369
0.0666652
0.0350274
0.025172
2.70129
0.37349
3.66805
4.90036
0.0514831
0.576366
0.0340629
4.26576
0.0462688
3.32626
3.92567
0.0256901
0.0522154
0.0890813
3.03296
0.0266742
0.0255327
3.5024
0.0380826
3.83889
2.76392
5.13485
0.032899
3.4761
3.22082
0.0402352
2.45833
3.03489
0.0260333
5.37964
6.05442
0.756265
4.2439
2.6849
0.0256901
5.7844
0.0471489
9.14907
0.0872755
2.5843
0.245545
0.497033
0.0305753
0.0254182
0.02528
0.0256407
0.0256817
5.94247
0.203928
0.025057
0.025448
3.68207
0.0248954
14.661
2.76896
14.6156
0.19714
0.0253922
4.04708
0.0256728
5.79711
0.0251089
2.80222
6.59088
0.228903
2.50326
0.0272441
3.47456
2.82979
6.83368
2.72151
16.3236
2.61564
2.78276
5.52284
0.0335177
3.8203
0.0258852
0.0256373
0.120194
3.12624
2.65157
0.0254985
0.0259722
0.0250189
0.07877
0.174696
0.0347436
0.025282
0.754016
0.0375355
0.0251229
0.025168
0.0654839
1.37916
3.62413
0.0255166
0.447744
0.0251192
0.0315814
4.53629
0.0253567
2.63568
4.09008
0.0353961
0.0447062
0.0458317
0.0254851
0.0256056
0.400536
0.220604
0.0483939
0.0247257
0.0377536
8.2072
6.84609
16.1129
0.0262854
0.0292864
0.221779
0.0529857
2.40469
0.0256261
0.0250697
0.0566803
3.6046
0.0344597
2.79531
0.120603
0.0338587
0.0260506
0.0251795
0.129699
0.0259126
0.0266423
0.431114
0.0253328
2.74036
0.0254195
0.0254993
0.0292368
0.0256271
3.62889
8.25144
7.24917
7.38296
5.58912
0.0796477
0.0659261
0.0281748
5.47267
0.495897
0.0252586
5.47958
4.00701
2.32801
4.0546
3.57721
2.57388
0.0256385
0.506783
6.20884
0.224635
0.028001
3.45215
0.0495611
0.0288869
0.0506262
0.0302964
2.80017
2.5672
15.445
3.61063
0.0859291
2.42767
5.93348
0.159431
0.0913433
0.0256106
5.88134
0.0256218
2.66901
5.40743
4.73906
3.44187
0.0661736
0.290781
0.0250728
4.25445
0.0492347
0.0285574
2.96481
0.0250756
0.153206
0.0255827
5.5226
6.15259
0.025272
0.0330245
5.64972
0.031429
0.79971
0.0352
0.123797
0.0250692
0.0489768
0.0254231
0.032333
3.33391
2.73583
23.3342
3.59586
5.46049
0.0263418
2.55235
0.0254824
0.0313719
0.0837832
2.69577
6.78635
2.48199
0.0252325
12.3542
0.0664834
0.0252429
0.0254138
4.54013
8.34314
1.58964
0.0481267
7.08977
6.16739
0.0254166
3.0251
3.64603
0.0319493
3.93603
0.859209
0.18159
2.40212
3.45297
0.0254203
0.0256249
0.0322391
0.0252679
4.71169
0.0256548
7.01198
0.025152
3.42732
0.0427141
2.46633
3.74595
0.0477615
2.70644
0.025668
1.93507
5.64906
3.11178
0.0307679
0.0254196
3.96228
3.95813
3.41714
0.0742515
0.0255349
0.0312003
8.86092
3.16365
0.0266418
0.0509284
5.9151
0.0254475
5.86282
0.0680714
3.96192
0.160067
0.420154
2.65099
0.0348832
0.0917592
4.18917
0.025245
3.47971
0.049558
2.71832
0.0293442
3.08764
0.0273573
0.0776056
0.0288642
4.17096
0.0297555
7.6042
0.0330274
3.99704
0.0318075
0.0506135
0.120403
6.60822
7.25372
2.0885
0.0467558
2.81597
0.0382824
0.0338171
0.0250773
2.45799
0.0256696
3.29787
0.0340566
0.0313544
2.62464
0.0254163
0.0247871
0.0256592
3.52696
0.0256932
3.4582
0.0329027
15.6016
2.75265
0.145076
0.025454
3.9133
0.0325593
0.028506
0.0254471
3.21313
0.0254932
0.322501
0.0253345
5.61176
2.7718
0.0292622
3.55613
3.4731
3.08089
0.0307378
5.85807
0.0614836
7.8698
0.029995
0.0276019
0.219257
2.89098
0.0254059
7.47247
0.322146
0.0282716
0.696637
0.026671
0.0872128
0.0281811
0.0250152
0.0301786
0.0271366
0.127801
0.0254715
0.0414297
0.127749
7.70764
0.0460125
3.21952
0.0739638
0.0254655
0.081812
1.06626
0.0250154
0.0782783
0.025465
3.46186
0.03221
1.57779
0.0255036
0.497527
0.0254192
0.0383046
6.05697
4.53917
6.74351
3.07514
0.179921
0.0518653
0.025864
0.0463219
3.84874
17.4494
4.13469
4.84303
0.0253487
2.74925
0.0254225
0.0285787
0.0283694
0.10434
0.0257232
3.54005
1.89148
0.107455
5.26491
0.0759484
3.21646
0.110538
0.0286507
0.0256289
0.0256413
0.0293301
0.0301871
0.0744326
0.059986
0.0255178
0.025656
3.20025
0.109047
2.75321
4.84295
6.67139
9.57921
0.0405927
0.0442244
5.25202
0.031382
0.0254533
0.0306253
0.102586
0.0262982
3.27393
0.0700124
7.22712
0.0254851
0.0710852
3.54533
0.031966
0.13154
0.0255042
0.0276385
4.00539
2.99147
2.63986
0.0333432
0.0251509
3.6236
0.0254461
2.64387
2.784
0.0346366
4.55338
0.0312544
0.0866977
0.0282846
0.0257293
0.029395
10.0429
7.28342
0.0254286
0.10266
0.987797
0.025111
0.0249826
0.0490544
4.00624
2.59405
3.61479
0.0280959
0.0258459
0.0632228
0.759527
2.84327
0.0467167
0.0255633
0.0267148
0.172253
0.0344809
2.82307
1.83097
0.0256376
5.81333
0.0256497
7.81815
0.0582359
0.0433551
3.11669
0.0356979
4.441
0.0461309
0.288841
0.505348
0.0318166
0.0252297
0.0257206
0.0480888
3.45504
0.0476462
4.52645
0.0271078
0.0256804
0.0318834
2.78808
0.0259848
0.0778226
3.81954
2.67786
3.70617
2.54087
0.0258677
0.0518793
0.0817329
0.0248336
0.0255381
0.0561393
0.0261663
0.107273
0.0695105
0.025406
0.0942638
6.60422
0.0256795
2.65978
0.025355
0.0254323
0.0270209
0.0889456
4.81978
5.61127
0.037882
0.0288197
0.0322815
0.025627
3.71301
0.0324945
6.52802
4.75917
5.01631
0.0772107
0.0795274
0.025705
7.77117
0.131199
4.71554
3.50444
0.175808
0.0267799
3.08952
9.90653
0.354056
0.435583
6.32725
3.53962
2.63026
0.0503819
2.65531
0.0331555
3.10688
2.70854
0.0792178
0.0254539
0.249963
3.60615
0.0271628
0.0256863
11.1483
0.025465
0.350905
2.41141
0.110245
0.530067
0.0814116
0.0254538
0.0627052
3.99886
0.0254934
3.43251
0.544606
2.20241
0.0273973
6.21245
0.0253499
5.28276
0.0258783
2.57668
0.0258698
0.0392521
0.0252097
3.14632
0.39075
3.00164
3.64289
0.138134
0.025566
0.553621
4.82081
8.37199
5.04942
11.8815
0.0255661
0.0251604
0.347363
0.0254179
5.94494
2.55433
0.16311
2.91581
3.07084
0.0301518
4.21981
0.0278509
0.120101
8.7117
0.0279107
0.0349014
0.120482
0.0269615
0.0251771
0.0257107
0.0497203
0.0250809
0.0260913
0.919672
0.025441
0.0253709
0.0340819
0.0254008
0.0384366
0.0256538
2.56098
2.65396
3.14754
0.0250015
0.498966
0.856688
0.0254408
3.43381
0.0373248
0.0321104
0.040252
0.0359142
2.73998
12.1861
0.0410493
0.0259667
6.01166
0.116776
2.7126
0.0273957
2.51141
3.68283
3.02642
6.08288
0.0254269
3.64229
7.69039
0.0258496
0.0442274
0.0261509
0.0293857
2.34636
7.97234
35.5931
0.0251225
21.863
0.0484653
0.552249
0.0843907
0.0250403
0.0254591
0.0391947
0.0281042
3.93558
0.0385197
4.36615
4.10493
0.025508
0.0506224
0.0256525
6.37417
0.0470577
4.26835
0.472816
0.02514
0.0253289
0.0509724
2.67676
4.22416
0.0545809
8.26921
0.0254659
1.10427
0.0678694
0.0250545
0.0247746
0.039944
0.0255178
2.69656
0.0969893
0.0248679
0.0263437
3.10373
0.0250038
6.7724
0.0461945
0.0519103
2.36373
0.0253449
0.0447554
0.0251337
2.47283
0.0257272
0.0308901
0.0280393
0.0484941
0.0246902
5.37565
2.8847
0.0326786
0.0256625
6.72572
2.17801
0.234364
2.55043
0.0494735
0.0255672
0.0253709
0.14218
0.138823
1.10443
0.142086
0.0402877
0.0438696
3.31381
0.0255732
2.42384
0.0271042
0.0797144
0.0254175
0.0252902
0.0271918
0.0262224
0.103908
0.0312103
1.20034
0.223321
3.1334
2.97654
0.0266728
0.0286697
0.0252801
6.64431
0.0256233
0.0720631
0.0251846
0.0406694
0.0580773
3.50714
2.58362
2.59947
3.11963
0.0265109
0.0711502
0.91866
4.76222
0.0902225
0.0254708
0.0358725
2.51253
0.0263284
0.0325362
0.0252767
0.0672701
0.0300039
4.41853
0.027328
0.025473
2.77816
3.06627
0.166113
0.025404
0.0254393
0.0621301
2.81703
0.0501227
0.368356
0.0291256
0.0310923
0.690189
0.0485728
0.0301015
3.59442
7.06234
0.138221
3.15699
3.88868
1.85472
2.54208
0.0902595
2.79852
14.5005
0.0438424
0.324921
0.0253472
0.029233
6.8945
0.086513
2.56178
0.0256251
5.71956
0.266336
2.65345
0.0962216
0.0803447
0.0259572
4.19169
6.82025
0.0491741
5.43543
0.0341445
0.026039
5.8408
0.0664678
2.9016
0.0601306
2.28654
2.65175
6.81532
0.0489273
3.30994
0.0251408
0.0260257
0.109823
0.0269477
0.0258529
0.0362229
0.0419675
0.155213
0.206385
11.0515
6.4209
0.0659714
0.0254185
4.65151
0.0352962
0.0254233
2.75
1.5272
0.0253412
0.025106
0.0311911
0.157918
0.048271
5.95506
0.921721
0.267309
0.0276934
3.55495
0.0261523
0.0397655
2.97659
0.0253838
0.375337
0.0802969
0.0253584
0.476043
2.67572
0.0274772
0.024902
0.0315799
0.0253915
0.0273139
5.25823
0.0252422
0.136757
3.60546
0.0253432
2.64488
0.0262046
3.37026
0.487818
4.17039
6.07081
3.92118
0.0549915
3.46148
0.025238
6.12765
0.0259644
0.0772667
0.762833
0.0393568
3.78994
0.0332444
1.17771
7.06636
0.0256756
0.265754
3.68487
0.0255575
3.03452
0.0284316
2.74021
1.53581
0.499922
0.0506168
3.41156
2.39193
0.0706523
0.124255
0.0259215
0.107199
14.2664
4.96781
0.0812335
0.0254719
0.0620489
0.907411
0.0260752
4.35706
0.0252807
0.0438537
0.0921907
2.68785
0.0252908
0.0254853
0.0346884
8.01007
0.0248332
0.0256521
0.751074
0.0253466
0.0804181
0.104869
0.0471978
2.67672
0.222144
3.4115
2.83887
0.0789635
0.180357
3.76422
0.0275682
0.027297
0.0668297
0.0253419
7.29539
1.55927
0.0264024
0.025782
3.07361
2.74944
3.84307
0.250459
0.0252352
2.90355
2.55619
0.0258879
2.76548
3.97134
3.57644
18.0808
0.0253142
0.0282508
0.0254186
0.0301574
0.0273771
0.0256248
0.0932706
0.052764
2.66495
0.0265485
0.0523578
0.0249917
0.0256444
4.3895
0.0313083
8.94637
4.17822
0.0325145
0.0251635
0.108848
2.01957
3.39455
0.035367
3.6838
0.103357
3.53698
0.027976
0.0472478
2.97709
0.0253569
3.61589
0.209588
3.4148
2.65023
3.43843
0.0256495
2.64952
0.0654588
3.41037
8.24252
2.80738
8.79287
0.415364
0.146425
2.70682
0.0256827
3.66927
5.98944
2.7555
3.50851
3.73821
0.0278132
3.03402
0.0406869
0.0426051
0.0393078
2.59465
0.0254982
1.98297
0.0254138
0.0585062
1.84366
0.0254203
2.69478
3.64297
0.0250983
0.0250281
0.0251633
2.56511
6.28823
0.0294066
0.117393
0.0287388
3.31972
2.66911
2.49269
3.31524
0.0433239
4.02301
2.67538
7.5718
0.0352829
4.60964
4.92554
3.49636
0.0248799
2.47326
0.0785551
3.45108
3.06075
0.0259127
0.0255125
0.0907082
0.0251596
3.44128
0.0252654
2.65829
0.0264689
3.80195
3.77858
3.90235
0.283744
5.05441
0.0286805
0.0259157
0.0622157
3.89896
0.0254297
0.0749693
3.93194
3.40924
7.22258
3.60993
0.0292128
0.073638
3.49434
2.61751
20.3466
3.37699
2.90987
2.69396
2.83286
4.21386
0.0256941
0.0273499
0.0252896
3.15427
3.21705
0.0252079
0.0324233
3.62459
2.87977
0.186078
6.63727
3.46839
0.160858
0.66534
1.01098
0.0257335
3.97246
2.56935
2.99623
0.0261913
3.77004
0.0270424
3.56227
2.53577
1.50007
2.96997
3.16146
3.59008
0.235149
3.35187
3.0819
5.37619
0.0259147
2.74614
2.66838
0.0299962
0.0918648
0.0260823
0.0360883
0.0266493
4.06758
0.129425
0.0312708
0.0732779
0.0254524
0.651386
5.7248
3.40728
4.16676
0.158486
0.0276794
0.071579
2.68849
0.0347024
0.0253099
3.14293
2.47412
0.220923
2.88229
0.027975
3.47163
0.0309598
0.0681158
0.0292534
0.0313128
7.18072
2.73124
0.101033
2.55803
0.135938
0.0282213
10.4535
3.66635
4.34844
4.02819
0.0252481
0.0255442
0.0616537
3.65478
0.0912684
0.0334804
0.139923
0.0256313
2.96518
0.025293
0.0255452
0.0248757
0.0274211
3.8582
0.0794787
0.0254194
0.0261566
0.0446114
0.0992553
0.124205
3.04816
0.0355778
6.60306
0.025519
6.57838
0.0484364
3.84234
5.14636
0.0256078
0.0248243
0.0252961
0.0254261
5.8437
0.0279427
0.0268403
6.22906
0.907672
0.0256912
0.0265733
0.0254005
0.321488
0.595011
2.97997
2.29963
2.65456
0.060647
5.69712
2.51204
0.0254226
0.0251526
2.80102
0.167283
3.85529
0.0254948
3.42526
9.57342
0.176433
2.83704
5.90781
3.30947
0.0258262
3.4211
0.213863
0.0394377
0.0289179
0.025274
0.360141
0.154493
1.04672
3.1714
1.61005
0.0288812
2.75662
0.0293993
2.51666
0.0268549
3.02466
0.834159
14.4663
2.94943
0.0461101
0.0337031
0.0377529
3.40635
0.0255957
4.72545
3.14785
3.47175
7.42033
0.0302579
0.0694759
0.133815
5.83296
0.0307272
0.575754
0.048137
0.0300241
0.146899
3.23156
0.0389621
5.8252
3.12358
0.643694
0.0252588
0.183656
0.0268384
3.45308
0.026079
0.0247933
0.0331265
2.9231
0.0376007
3.70185
3.9088
0.181896
0.0526389
1.51509
2.66687
0.025188
0.134671
3.47644
0.024904
0.0254042
3.3293
4.14135
0.0264045
0.0414913
0.1188
3.1976
2.71373
0.042924
2.56489
4.97066
0.0256039
2.14446
0.0289309
6.94388
0.163648
0.731409
0.0423482
1.81782
2.37859
0.025471
0.0257943
0.0287711
0.100594
0.0360611
0.029604
3.94935
0.250186
2.75652
0.0389062
2.7178
3.3218
0.433498
3.72694
3.27272
0.0268407
3.24094
4.24173
0.276606
0.141596
3.25666
5.02242
2.8824
3.26187
0.0587
0.0350166
0.214042
3.72009
4.04776
3.30886
7.50688
5.63814
0.0256698
3.54191
0.0660583
5.47272
0.0310862
0.0252074
0.168353
1.30058
5.87108
0.36729
4.56486
0.124361
1.08744
0.0477807
0.0304611
0.0259885
0.0256952
0.0588716
0.170742
0.844583
2.86861
3.35761
3.18835
0.0253957
0.0339407
0.0321119
0.0373256
0.0258402
4.31896
0.0653166
2.85184
20.016
0.0252329
3.64984
3.30828
3.0867
0.025181
0.104763
3.64038
5.68233
0.0491765
0.0358859
0.246749
0.0485877
0.114619
0.138375
0.0360681
0.0725057
3.38614
3.62324
3.43019
0.10076
0.0256373
0.0253683
2.63247
3.76483
3.33576
0.0298629
3.49324
2.57733
2.84524
0.0258712
3.08521
3.25935
3.24629
0.439253
3.96215
3.38496
0.0250832
3.16724
3.36271
0.0253157
2.83023
3.35202
3.21548
2.61209
3.15019
0.025301
0.383261
0.143548
0.318171
0.12373
0.155857
0.0304382
6.74057
0.110199
2.70871
0.143325
3.39282
3.99145
0.143289
4.73214
4.98932
3.50337
0.0252123
3.31203
5.10226
0.116467
3.4162
0.0284922
2.59794
3.67828
0.0559932
3.4263
0.130193
0.025333
0.0305854
4.06939
4.91557
2.74505
2.81303
0.158748
0.0446272
2.75132
0.0255173
0.0296263
8.09795
0.0346264
0.0645676
4.67067
4.7331
0.0260812
16.4193
2.79466
3.18123
2.77605
3.55934
0.027657
2.76882
4.50392
0.0617669
0.0288831
0.208583
3.10467
0.0521785
3.44018
3.42159
0.0258688
5.10464
0.0537157
0.0542871
0.0272268
0.039779
0.0384709
0.0595795
0.0256889
0.0256519
0.0312376
0.747874
2.66086
0.054876
0.529207
0.0589384
0.0577998
0.084713
12.8661
2.66615
0.0256978
2.25004
0.398369
0.119942
0.0523443
0.652761
2.66396
0.0264775
0.0254884
0.12039
3.82364
6.00633
1.70284
3.58945
0.0761989
4.40059
0.0254532
2.94165
0.0440067
0.0276385
0.122122
11.3071
4.13179
8.03103
0.403745
0.0405886
0.0265459
0.0247409
0.0410423
0.025579
0.176953
1.79148
0.0344405
3.01771
6.51702
7.85928
0.0338091
0.0617874
2.87023
0.0484207
0.0550803
0.0247431
3.37809
0.0594358
0.418883
0.0423011
2.98495
2.56031
2.55917
5.40215
0.0431334
0.0565587
0.0437936
0.0255703
3.86061
1.66488
0.0887662
0.0301486
0.0300203
0.105464
2.73647
0.0253252
0.423099
2.65793
0.0268052
0.168928
0.0534651
0.0251371
0.151023
5.04211
0.162233
0.0262255
0.0994471
0.0722704
3.05008
0.0390011
3.2402
0.0814139
1.32029
0.0746012
2.90151
2.96423
0.390887
0.120097
0.0357568
0.0272463
0.0811367
2.24173
0.104749
6.36712
0.0461324
0.444758
0.0437659
0.185204
0.334044
0.132457
0.0260447
3.97851
0.0250692
0.0739426
0.0317529
0.869775
0.025169
0.0476213
0.025467
0.0314966
2.7651
0.0264104
0.0254695
0.612516
0.0254116
0.157833
0.0259132
0.0253739
3.67208
4.41349
0.0256655
0.059353
0.175227
0.0621645
0.120217
0.043804
0.060374
4.66904
0.0505939
16.4357
5.50055
0.0257722
0.194003
0.0251695
0.0254895
0.0484925
0.124782
3.22315
0.458307
0.116781
0.0910836
3.24409
0.0321858
2.74812
6.8699
0.0289866
0.0399038
9.07588
2.61736
0.0256913
0.877694
0.0257175
0.0286864
9.67535
0.025259
0.0906587
3.32402
3.33374
2.86325
0.117802
11.7098
0.0636988
5.29188
0.496851
0.0410831
0.512537
8.31198
0.409957
3.92631
6.20111
0.0261305
2.76686
0.024843
0.180368
6.94304
0.0254065
3.97791
0.025813
0.0253631
0.0605574
0.186942
0.0248316
6.7174
0.0874436
0.0256372
0.0248511
0.0279424
0.0308718
3.73478
3.53632
10.9946
0.134812
6.01431
3.44446
0.0264965
0.105357
4.06756
0.462737
3.73656
3.41265
0.0249423
2.60925
2.79505
3.61469
1.76615
0.0366804
0.0253082
0.0347835
0.398187
0.0249858
0.0250645
4.57386
2.45673
3.66022
0.170728
0.0267013
3.5173
3.55039
0.0259839
7.27462
2.68831
0.0353762
0.044843
0.0560246
3.54036
2.723
1.84476
0.0695703
0.0329179
1.33912
0.0328877
0.121619
0.0291852
0.0938955
0.0352317
0.0254275
7.3652
3.05055
0.0279415
0.159297
0.0594371
0.025295
5.34221
0.657906
3.86098
2.90903
0.0849263
3.32506
0.1438
4.78487
5.67381
0.265045
1.24559
2.59841
0.0269732
0.0448517
0.0255078
0.0253328
3.37327
6.17854
0.0998261
0.025762
0.068826
8.11377
0.0252427
0.0684473
0.026398
0.0632205
7.69618
0.0272963
2.66657
0.0830175
6.5979
0.0511004
6.44542
2.71889
0.0554003
0.0271693
0.102118
0.199237
0.374832
3.62989
0.0606794
0.405611
0.315005
0.0587561
0.0306835
3.10411
0.122407
3.62185
0.046049
0.0721238
0.0824695
0.0291426
11.9208
3.34101
0.212799
0.163693
3.02079
0.0254397
0.104264
0.0252629
0.0293864
0.0282043
0.024709
0.0272547
3.47538
0.184137
0.460369
0.0262983
0.0261818
0.0488755
2.92018
0.071832
0.045132
0.0255357
4.03871
0.0254999
0.332198
0.534825
0.0252249
0.0266477
0.0275557
0.0858386
2.64632
0.0255574
4.56284
0.0275844
0.239017
0.162322
0.026116
3.49867
0.0270728
0.0250885
7.20823
3.33497
0.0324971
0.234551
0.0265867
3.20589
0.0251145
0.101983
24.3047
0.413228
0.107383
0.487212
0.0254584
2.52891
0.10808
3.45742
0.0250258
0.0876464
0.080403
0.0254811
0.0295001
0.0248389
0.0321475
0.0271263
0.0501431
0.0252927
0.168181
2.74074
4.02673
0.0249963
0.0876753
0.160326
0.0616067
0.0424181
0.0267142
0.0291953
0.0254459
0.025146
0.0626595
0.0290505
0.0925518
0.0768376
0.0254887
0.464952
0.0278392
0.0275594
2.83287
2.79995
0.11453
0.0252041
9.21543
21.9417
3.48149
0.0458834
0.0313671
0.18438
5.63596
0.0250522
6.46027
0.0250319
0.0256269
0.0751458
0.0292511
0.042717
0.0256383
3.50801
0.0429573
0.0277136
3.17891
0.260043
13.1575
2.37189
0.166388
0.106715
0.0254074
0.029782
0.0255709
0.0253287
2.69566
0.0753355
0.295968
0.0254704
3.55943
0.0300577
0.10871
2.14426
3.0008
1.12859
0.0737951
0.0255321
2.37355
0.0255616
0.0267983
0.0254109
0.127009
3.09825
0.0272839
2.87207
0.0652629
0.0256676
0.188458
0.110107
6.91287
0.0252401
0.365075
4.70526
4.23522
3.38359
0.0272945
0.0254069
6.97944
3.0583
0.0339721
0.0254317
0.0256247
0.155332
1.90543
0.280795
0.0258102
5.0585
0.0277373
0.0369364
3.73475
0.0390618
0.0256113
0.028601
0.034637
0.122793
0.0267608
2.83562
2.82806
3.59179
0.0252907
0.0380234
0.0401326
0.0257512
0.339802
2.70698
6.72455
0.0625605
0.0255019
0.136921
0.0343094
2.8877
0.0279822
0.0578506
4.78694
0.0254097
2.6011
3.15906
0.025421
0.0251959
0.025479
0.518194
7.70904
0.0270387
0.0250416
0.0256068
0.0259863
0.0249675
0.682916
5.71647
0.0254382
0.340447
0.0254531
0.0269664
0.0254652
0.0291907
0.036485
0.0580489
2.56287
0.0254648
0.0432593
0.0304121
3.72286
3.64149
5.84009
4.13145
5.02082
4.85513
2.82338
2.80417
9.50369
0.117756
0.0627844
4.55758
2.58182
0.0248943
1.42942
3.58178
0.0312731
0.0295594
5.05905
4.879
3.45848
0.025721
0.0815658
3.99859
0.029962
3.41214
0.0254973
2.54563
3.18561
0.111021
0.0258593
0.0258855
2.67464
0.0254882
7.809
0.0812252
0.0255342
0.025577
0.156148
0.0268205
4.38263
0.0453576
0.0254435
0.0259308
3.70303
0.105939
2.7093
3.12253
3.22101
0.0590709
0.0455428
0.0250322
0.0361386
0.0396085
0.0314205
0.0406588
2.44259
0.0257526
2.6544
7.57528
9.14362
0.0255428
0.0878973
15.5532
0.0247564
5.43441
0.783945
2.5426
2.67715
11.5046
0.153975
0.068915
0.261395
2.58768
0.025668
0.0256844
3.79156
3.486
0.0393977
0.0344253
0.0574462
0.0778548
0.0402179
0.0852017
6.74251
0.135061
0.142739
0.0271319
0.0256767
0.0268998
2.56887
0.0833743
3.08254
9.14762
16.3699
0.209232
0.027405
0.0263799
0.0262166
0.0865328
0.448922