/*--------------------------------*- C++ -*----------------------------------*\
| =========                 |                                                 |
| \\      /  F ield         | OpenFOAM: The Open Source CFD Toolbox           |
|  \\    /   O peration     | Version:  v2012                                 |
|   \\  /    A nd           | Website:  www.openfoam.com                      |
|    \\/     M anipulation  |                                                 |
\*---------------------------------------------------------------------------*/
FoamFile
{
    version     2.0;
    format      ascii;
    class       volScalarField;
    location    "300";
    object      omega;
}
// * * * * * * * * * * * * * * * * * * * * * * * * * * * * * * * * * * * * * //

dimensions      [0 0 -1 0 0 0 0];


internalField   nonuniform List<scalar> 
15335
(
6.50152
0.232632
6.49649
0.040213
3.0591
0.0254533
0.111661
0.403592
0.0359585
4.53511
4.86045
0.0268562
3.22721
11.6359
5.89945
6.46085
0.0288691
5.58237
0.0248766
8.84666
2.82193
2.86326
0.11135
0.0249456
0.210311
0.141015
15.4136
0.142611
7.18147
0.0277252
17.1847
4.65458
0.0256604
0.0255433
0.0253557
0.659195
0.58595
8.63813
5.09128
0.370065
0.181929
3.76524
0.0254173
0.0297854
6.51367
0.0251095
6.34699
3.48872
5.44255
0.0286412
0.0249546
4.99206
5.39676
0.0256761
0.0254298
0.101471
0.160276
5.06485
4.4472
4.8542
2.61847
3.39483
0.0462213
0.0312628
0.0251679
0.02665
5.28
4.5953
0.0251083
0.0248246
0.0408289
0.0274051
0.211417
2.52986
5.09649
2.60439
0.189434
0.142814
10.4415
0.0256513
3.04877
13.9032
2.85068
0.210695
14.6215
0.0251449
0.0248637
0.0295937
0.0275334
0.238569
3.27201
0.0798908
0.0267367
3.80942
3.49033
0.0273056
0.0251217
0.0405203
0.025063
0.0256664
0.0254099
2.61561
1.06184
0.0644001
0.026195
0.0356083
0.0253807
0.040797
3.21363
0.0547747
2.74495
0.102102
0.0254141
0.0269392
4.91436
0.0275553
0.0408096
3.80236
3.11403
2.57712
3.22081
3.53293
2.52315
3.55811
0.0254306
0.0254079
0.132013
0.0255655
0.0638592
0.0254885
2.65718
5.42215
0.0251314
0.0688293
0.127856
0.0252192
2.89169
9.73405
0.046332
0.392596
0.0790149
0.241623
0.060733
0.0287538
2.6409
16.2844
2.55073
5.29854
0.186814
2.85058
0.0280418
4.8957
0.0254071
0.0271446
2.41481
0.0256608
3.43954
6.49876
3.56036
6.77734
0.0256482
0.0345014
3.59264
0.0497836
4.8764
7.17352
5.37569
0.0249687
10.0695
8.45268
13.51
3.91593
3.11712
0.0754009
0.156107
0.0256515
0.0256202
3.52206
19.5721
3.46122
0.164243
7.38943
2.55751
0.0387425
0.0388038
4.29805
0.0312896
0.0382752
2.54609
2.66458
7.08898
0.404308
0.029534
0.183001
1.92803
9.0081
0.0254372
5.58262
0.0254372
3.908
0.0401233
0.0674339
0.0489907
7.81596
5.31455
0.134623
0.0256311
0.0788133
0.0371645
0.0322728
0.0749826
0.0254016
2.39905
0.0274071
0.520454
0.0813061
6.23429
4.78202
0.0863561
0.765635
0.0254271
0.0253685
0.0325087
0.0288483
0.221792
4.08076
0.0250833
22.1769
0.0490605
4.47185
0.0252105
0.0250429
4.47547
0.692197
8.38513
0.063142
0.184106
0.0854318
0.0256006
3.61463
3.0074
0.0551047
2.53883
0.0386165
5.16316
0.0251576
0.0262035
6.05792
3.17578
3.11561
6.8869
8.11027
0.025113
0.0249667
0.0490902
8.26103
0.0794929
2.6748
0.024807
0.146117
22.5743
0.0256637
0.0250172
0.025441
0.025133
0.0247892
6.54382
5.04925
6.09047
0.0254634
6.15972
5.98962
6.26482
0.0252146
7.32556
0.0270546
0.0255726
0.158269
0.0306609
0.0485212
20.7378
2.63869
0.0250972
0.0788093
0.0288147
2.98449
3.33265
0.0283281
0.0266207
0.0257797
6.60426
0.0267927
0.0676542
0.238569
0.0289792
17.7782
0.0250288
0.17481
0.0253555
2.66844
0.0254355
3.07727
0.142884
4.15748
0.0252555
9.48016
5.37542
0.0256049
5.30454
0.029303
2.69539
0.0251773
0.21162
3.6335
5.43397
0.0254171
0.0255551
3.66031
3.62933
0.558182
0.455282
0.0251451
17.8489
3.63095
0.0359698
2.41689
2.6919
4.48476
0.0283487
0.0279398
0.0256535
0.139522
0.0261398
0.232392
0.0738452
1.09958
0.0511827
5.01984
13.2433
5.51968
0.101466
0.119381
0.0254301
0.11828
0.0312173
0.0290749
0.0255499
0.368722
0.0250529
3.08414
2.60313
2.68421
0.0275865
13.891
5.35221
0.0253657
0.0371762
0.0442568
0.0492599
0.090425
0.028238
0.0595672
0.0287842
5.6796
0.0365206
6.42907
3.17723
0.0588203
0.02777
0.0251976
4.11194
0.0291478
0.0444648
4.96984
0.0254177
2.91795
5.47378
0.0289365
1.21367
2.40618
0.0254218
0.0288749
2.81231
5.4518
0.0317102
0.0251951
0.105207
0.0770915
0.215899
7.07524
0.0254151
0.0271455
0.0251957
0.212816
5.22552
0.228884
0.367181
0.0309138
0.065593
2.88233
0.087752
0.090372
3.66591
0.0281054
0.0262794
0.0887082
8.36739
30.3013
0.727187
0.214352
0.211195
0.0352184
5.24963
2.67218
0.19077
3.8538
3.37859
0.0273456
0.97042
0.0602193
0.0338158
5.31029
3.54965
0.0251074
0.200773
4.29761
0.117815
3.96979
0.02875
19.5973
3.60624
3.88518
7.6381
3.74953
4.53273
0.193693
2.98125
6.2069
0.024815
0.0254439
3.42744
2.68506
0.0253259
0.221975
0.0478635
0.0699535
9.65819
0.119746
0.0861484
8.24739
7.12568
5.54499
0.0651692
0.0285882
3.54706
3.38806
0.0254445
2.80731
2.52259
0.0854557
3.05975
0.672658
0.320184
2.93177
0.048398
0.0348751
0.0304456
0.0254395
0.0824251
3.6566
0.182558
0.195136
5.63038
0.0254128
0.0256393
0.0251861
2.81956
5.33486
2.68097
3.13584
0.205269
1.40972
0.0325521
2.91872
0.0264699
0.0251136
0.0256522
3.61782
0.0252917
2.5601
0.0248595
0.0264763
0.0251072
4.31903
1.26583
0.025661
0.0308956
0.101223
0.0342666
0.0315337
4.14692
0.0286719
0.192558
0.0265707
6.304
0.0264487
0.0252684
6.64964
0.026299
0.0457421
8.38476
0.0251909
0.0256513
5.36776
0.645483
2.0462
0.0269687
0.0370167
0.0255916
19.6535
4.79274
0.0256524
2.67046
4.70269
2.54802
2.60931
0.0255282
3.70159
3.65104
2.87304
5.2118
0.0327749
3.45154
0.0685078
2.87741
0.232405
2.75588
18.4239
2.69433
2.56307
2.67253
0.0729453
0.0263617
0.0289574
0.0440433
0.0253987
0.262354
0.0930099
8.51554
0.106531
0.0782049
0.977796
3.13711
3.53437
2.36712
0.209559
0.386977
0.0256562
0.0285719
0.0248102
0.0375938
3.20084
0.0255322
0.0324005
0.0959734
1.0511
6.24773
3.59927
0.220153
5.17855
0.0253588
0.0260824
0.0256484
0.0379309
4.69219
0.045546
0.646287
0.0252611
0.0397524
3.19064
0.0250914
0.0539605
3.43493
5.81085
5.37389
0.0254212
0.0284104
0.0275946
5.81516
7.83513
0.0373272
0.0248529
0.0252305
0.0256365
3.40349
0.132902
3.15758
2.72861
0.02679
0.308418
0.0296232
0.0272312
4.36458
0.0253976
0.031132
2.5847
0.0251155
8.05017
4.80746
0.0463601
0.895166
4.85421
3.69388
0.0402874
3.50847
0.140327
0.0288453
0.0255579
0.0438103
0.0852385
4.33696
0.0427014
0.0256356
31.7522
0.0254453
0.0287043
3.02931
0.1027
0.0994066
6.3308
0.0326564
0.0254183
0.0251343
0.0354345
0.0256347
3.54257
0.0264395
0.0766509
3.0155
0.0249589
0.0279053
3.15846
0.035734
0.146146
4.69416
0.0257918
0.212016
0.0255659
2.94331
0.373465
4.75832
0.198642
3.12813
2.68159
0.0684832
6.06335
0.0248508
0.0868427
0.155969
5.60032
0.0265471
6.75701
0.0254257
8.35996
0.0300792
0.500228
0.0250872
0.0255191
0.1904
0.191248
0.025456
0.0340392
0.0254603
0.395674
3.40746
0.0369619
5.30779
14.0019
2.57602
0.025576
3.64942
0.0263299
0.0250299
0.161329
0.0324037
0.0285289
2.90076
0.0306302
0.0356599
0.0356814
0.0254731
0.0249527
2.87681
8.15739
0.025055
0.0250372
0.143169
0.0251408
6.63879
0.0527989
3.41263
5.10885
0.0253148
0.049552
2.67789
0.0601786
0.025663
0.0693972
0.0404785
0.0254081
16.0309
2.90924
0.0388202
6.68651
2.35923
0.0382169
0.025497
4.1868
0.0254907
0.0282763
0.118872
0.0255955
0.0256069
0.165561
2.01229
11.9958
2.69497
3.44291
0.0255689
2.62755
24.2217
0.0429373
4.56061
1.71534
0.221045
0.223883
0.0589955
2.74146
0.042462
7.05645
0.0688788
0.0367671
0.14061
0.185468
2.23371
0.025917
0.0799014
3.19383
0.0323041
0.0308527
2.38143
4.36454
4.50598
0.0255553
2.61223
2.65944
2.83132
5.38808
0.0255712
0.0311717
0.30528
5.64519
4.52518
0.0344418
2.70929
0.0251802
0.696864
0.0339319
0.0285133
6.12596
0.0250945
2.72178
0.0328266
0.0823476
0.0314448
0.0344512
11.2423
0.0255667
0.0253282
5.10212
6.85205
0.0325859
0.0251638
0.0311808
5.61554
0.0787422
17.2999
5.16232
0.0326413
0.0256255
4.4703
0.150186
2.73532
0.0319496
0.0372763
0.0787185
0.0254272
0.0250729
0.0341538
3.27183
0.148487
0.117852
0.0250829
6.72739
3.37882
0.0255329
0.0253821
0.0337472
0.0254182
5.09524
0.590843
0.0253921
0.0253953
0.0255772
0.0255134
0.0254366
0.024868
5.59018
0.0527369
0.0381376
5.22308
0.0255573
0.0267374
0.0269647
8.89456
2.56839
2.86719
0.0320274
0.0255854
4.22738
0.025499
2.39366
0.0296581
0.0826397
3.47829
3.01691
0.0254543
0.024871
5.33824
2.92473
0.0313917
0.0359319
0.0248594
0.21517
0.0342595
0.0316587
0.0271308
0.024839
3.1767
0.0339251
0.0250342
3.37646
4.16299
20.5264
6.81792
0.0850753
0.0249275
7.07576
0.164113
3.29624
0.0340682
0.0359094
0.080529
0.0345963
4.10833
1.07337
0.0252442
0.0672809
0.0784566
0.0254699
4.07778
0.0264232
0.0276026
3.83088
3.73862
0.0254692
2.41343
8.25081
0.0254275
0.0259899
0.176916
2.94832
0.155872
0.0250554
0.0501603
0.0415628
3.13661
2.60523
5.23189
0.0782465
0.0255665
2.83334
0.0271369
0.0525592
0.0265735
3.08521
1.53164
0.0264769
0.0253639
0.0325679
6.6391
16.252
0.0254428
0.0254375
2.82676
0.0252765
0.588352
0.655907
0.0250545
0.0252983
3.36589
0.0303654
3.86945
29.5627
0.0255948
0.0280914
0.119899
0.0277403
0.0688418
0.117597
0.0426567
0.0253956
0.0250586
2.56963
0.0333729
0.0254448
2.58656
3.06838
0.0254545
0.864031
0.0252512
0.0281363
0.0255157
4.20867
2.79159
0.025537
0.0258814
4.07943
0.0286207
0.0911459
0.0262605
0.0540126
0.0254833
0.0413289
0.0254391
1.58324
2.65729
0.0263531
0.0376648
2.56909
0.0277903
2.72015
4.71908
0.0355369
0.025505
4.33481
0.44665
0.0253907
0.211144
0.0255109
0.648971
4.54057
0.0256356
3.77052
0.0253868
4.37215
0.160943
3.33934
0.0383755
5.73548
0.0249353
3.63039
0.025441
0.0288538
4.38052
2.38831
0.0502581
5.44239
3.96517
0.52079
6.08265
4.15324
0.0328964
3.87989
7.18314
0.0274472
0.37441
0.210962
0.0251187
0.0475034
0.0476149
0.0432941
4.65705
0.434069
0.0255581
0.655489
0.0254174
0.450887
0.0254306
2.5981
0.0251556
6.02465
2.70986
0.197082
0.1713
2.97351
0.0420688
0.0250403
0.0717028
15.6528
0.137626
0.0252075
0.0513409
0.0259807
0.0405855
0.100625
3.57562
4.47032
0.0256624
3.34565
0.0431849
0.182164
3.59581
3.70645
0.427304
0.0252154
0.0864234
5.04508
0.0277464
19.113
0.0252499
0.0254961
0.0253937
0.0254232
0.0291133
0.459247
0.0339515
4.84344
0.0312639
0.0254467
0.0254562
2.74934
2.66211
0.0262851
0.0853048
5.80688
9.16483
3.90648
0.0363004
0.0854476
6.96556
0.0252984
0.027207
1.05011
0.0251318
5.74496
0.0251269
0.0253628
5.46083
0.0415509
0.23125
2.50654
0.0329992
0.0249524
0.0256276
0.0358349
2.5923
12.6004
3.55224
0.0248211
0.025398
0.0268234
0.0255994
0.0273815
0.0254848
0.0250378
0.0254505
0.0702323
0.0250932
0.0255828
3.48832
2.69696
0.0277169
2.67389
0.0257189
0.0280534
4.27564
0.517431
0.0294958
2.60534
5.75103
0.414411
0.0250784
2.38611
7.35181
0.0558037
2.95693
2.60527
2.6785
2.03612
0.0382272
0.0345923
2.52865
0.18471
0.0265068
0.0250546
2.87903
0.077866
3.18132
0.0256032
0.0255675
2.88672
0.0629283
4.06438
0.0440667
0.0254356
0.220805
5.07715
0.0279343
0.978568
3.24381
0.434709
14.5377
0.0260268
0.0340339
0.0771526
4.18521
0.152428
3.01237
0.0255577
0.139438
2.41498
10.8287
0.0252463
0.0254183
0.252954
0.0715666
0.0256334
6.71299
0.0274939
0.0253723
0.0246593
2.75263
7.906
2.89087
0.025665
0.0256282
0.241653
0.430891
0.112911
0.61181
0.0666686
0.0350274
0.025172
2.70129
0.373467
3.66806
4.90036
0.051483
0.575839
0.0340629
4.26576
0.0462675
3.32626
3.92567
0.0256901
0.0522157
0.0890874
3.03296
0.0266742
0.0255327
3.5024
0.0380826
3.83889
2.76392
5.13485
0.032899
3.4761
3.22082
0.0402353
2.45833
3.03488
0.0260333
5.37964
6.05442
0.754254
4.2439
2.6849
0.0256901
5.7844
0.0471343
9.14918
0.0872783
2.5843
0.245537
0.497041
0.0305753
0.0254182
0.02528
0.0256407
0.0256817
5.94248
0.20393
0.025057
0.025448
3.68207
0.0248954
14.661
2.76896
14.6156
0.197143
0.0253922
4.04708
0.0256728
5.79711
0.0251089
2.80222
6.59088
0.228892
2.50326
0.0272441
3.47456
2.82979
6.83367
2.72151
16.3138
2.61564
2.78276
5.52284
0.0335177
3.8203
0.0258852
0.0256373
0.120194
3.12625
2.65157
0.0254985
0.0259722
0.0250189
0.0787734
0.174699
0.0347437
0.025282
0.753998
0.0375355
0.0251229
0.025168
0.0654726
1.37775
3.62413
0.0255166
0.447676
0.0251192
0.0315814
4.53629
0.0253567
2.63568
4.09008
0.0353961
0.0447061
0.0458317
0.0254851
0.0256056
0.400559
0.220612
0.0483939
0.0247257
0.0377536
8.2072
6.84607
16.1129
0.0262854
0.0292864
0.221778
0.0529855
2.40469
0.0256261
0.0250697
0.0566804
3.6046
0.0344597
2.79531
0.120603
0.0338587
0.0260506
0.0251795
0.129698
0.0259126
0.0266423
0.431774
0.0253328
2.74036
0.0254195
0.0254993
0.0292368
0.0256271
3.62889
8.25146
7.24917
7.38295
5.58912
0.079665
0.0659114
0.0281748
5.47267
0.495812
0.0252586
5.47958
4.00677
2.32799
4.0546
3.57721
2.57388
0.0256385
0.50679
6.20884
0.22447
0.028001
3.45215
0.0495612
0.0288869
0.0506264
0.0302963
2.80017
2.5672
15.445
3.61063
0.0859123
2.42758
5.93348
0.159433
0.0913483
0.0256106
5.88134
0.0256218
2.66901
5.36034
4.73906
3.44188
0.0661719
0.290767
0.0250728
4.25446
0.0491932
0.0285574
2.96481
0.0250756
0.153207
0.0255827
5.5226
6.15252
0.025272
0.0330245
5.64972
0.031429
0.799971
0.0352
0.123805
0.0250692
0.0489475
0.0254231
0.032333
3.33391
2.73583
23.3342
3.59586
5.46049
0.0263418
2.55235
0.0254824
0.0313719
0.0837858
2.69577
6.78635
2.48199
0.0252325
12.3542
0.0664851
0.0252429
0.0254138
4.54013
8.34314
1.61586
0.0481267
7.08977
6.16739
0.0254166
3.02511
3.64603
0.0319493
3.93603
0.859304
0.181616
2.39851
3.45297
0.0254203
0.0256249
0.0322391
0.0252679
4.71169
0.0256548
7.012
0.025152
3.42732
0.0426915
2.46633
3.74595
0.0477615
2.70644
0.025668
1.9351
5.64906
3.11178
0.0307679
0.0254196
3.96232
3.95813
3.41714
0.074253
0.0255349
0.0312003
8.85995
3.16684
0.0266418
0.0509284
5.9151
0.0254475
5.86282
0.0680641
3.96192
0.160069
0.420153
2.65099
0.0348832
0.0917585
4.18917
0.025245
3.47963
0.0495585
2.71832
0.0293442
3.08764
0.0273573
0.0775979
0.0288642
4.17095
0.0297555
7.60422
0.0330274
3.99704
0.0318075
0.0506138
0.120403
6.60822
7.25372
2.09342
0.0467556
2.81597
0.0382824
0.0338171
0.0250773
2.45799
0.0256696
3.29787
0.0340566
0.0313544
2.62464
0.0254163
0.0247871
0.0256592
3.35388
0.0256932
3.4582
0.0329027
15.6017
2.75265
0.145077
0.025454
3.9133
0.0325593
0.028506
0.0254471
3.21313
0.0254932
0.322887
0.0253345
5.61176
2.7718
0.0292622
3.55613
3.4731
3.08089
0.0307378
5.85807
0.0614921
7.86982
0.029995
0.0276019
0.219235
2.89098
0.0254059
7.47248
0.322127
0.0282716
0.696847
0.026671
0.0872105
0.0281811
0.0250152
0.0301786
0.0271366
0.127794
0.0254715
0.0414297
0.12777
7.70763
0.046113
3.21952
0.0739594
0.0254655
0.0818716
1.06427
0.0250154
0.0782705
0.025465
3.46186
0.03221
1.57783
0.0255036
0.498282
0.0254192
0.0383123
6.05697
4.53917
6.74352
3.07514
0.179921
0.051865
0.025864
0.0463237
3.84874
17.4494
4.13469
4.84303
0.0253487
2.74924
0.0254225
0.0285787
0.0283694
0.104361
0.0257232
3.54005
1.89148
0.107454
5.26491
0.0759321
3.21646
0.110538
0.0286507
0.0256289
0.0256413
0.0293301
0.0301871
0.0744488
0.0599861
0.0255178
0.025656
3.20025
0.109047
2.75321
4.84295
6.67138
9.48987
0.0406
0.0443032
5.25202
0.031382
0.0254533
0.030622
0.102589
0.0262982
3.27401
0.070001
7.22712
0.0254851
0.0711074
3.54533
0.031966
0.13154
0.0255042
0.0276385
4.00539
2.99147
2.63986
0.0333432
0.0251509
3.6236
0.0254461
2.64387
2.784
0.0346366
4.55338
0.0312544
0.0867006
0.0282846
0.0257293
0.029395
10.0429
7.28415
0.0254286
0.102662
0.987775
0.025111
0.0249826
0.0490544
4.00624
2.59405
3.61479
0.0280959
0.0258459
0.0632092
0.759647
2.84327
0.0467167
0.0255633
0.0267148
0.17225
0.0344809
2.82307
1.83097
0.0256376
5.81333
0.0256497
7.81815
0.0582357
0.0433552
3.11669
0.0356979
4.441
0.0461309
0.288801
0.505287
0.0318161
0.0252297
0.0257206
0.0480615
3.45503
0.0476461
4.52645
0.0271078
0.0256804
0.0318834
2.78808
0.0259848
0.077815
3.81954
2.67786
3.70617
2.54088
0.0258677
0.0518789
0.081733
0.0248336
0.0255381
0.0561389
0.0261663
0.107252
0.069506
0.025406
0.0942642
6.60409
0.0256795
2.65978
0.025355
0.0254323
0.0270209
0.0889491
4.8197
5.61128
0.037882
0.0288197
0.0322825
0.025627
3.71301
0.0324945
6.52802
4.75917
5.02813
0.0772135
0.0795256
0.025705
7.77118
0.131199
4.71554
3.50444
0.175806
0.0267799
3.08953
9.90653
0.353393
0.435577
6.32725
3.53962
2.63026
0.0503829
2.65531
0.0331555
3.10688
2.70854
0.0793002
0.0254539
0.249918
3.60615
0.0271628
0.0256863
11.1483
0.025465
0.350449
2.41141
0.110244
0.531168
0.0814112
0.0254538
0.0627198
3.99886
0.0254934
3.43251
0.545061
2.13506
0.0273973
6.21247
0.0253499
5.28276
0.0258783
2.57668
0.0258698
0.0392521
0.0252097
3.14632
0.39088
3.00164
3.64289
0.138135
0.025566
0.553611
4.82081
8.37199
5.04942
11.8815
0.0255661
0.0251604
0.347524
0.0254179
5.94494
2.55433
0.163182
2.91581
3.07084
0.030153
4.21981
0.0278509
0.1201
8.7117
0.0279107
0.0349014
0.120482
0.0269615
0.0251771
0.0257107
0.0497202
0.0250809
0.0260913
0.919662
0.025441
0.0253709
0.0340819
0.0254008
0.0384366
0.0256538
2.56098
2.65396
3.14755
0.0250015
0.500085
0.856671
0.0254408
3.43381
0.0373248
0.0321104
0.040252
0.0359089
2.73998
12.1861
0.041022
0.0259667
6.01166
0.116776
2.7126
0.0273957
2.51141
3.68283
3.10785
6.08288
0.0254269
3.64241
7.69039
0.0258496
0.0442164
0.0261509
0.0293856
2.3452
7.97234
35.5948
0.0251225
21.9115
0.0484651
0.552271
0.0843905
0.0250403
0.0254591
0.0391947
0.0281042
3.93558
0.0385197
4.36615
4.10493
0.025508
0.0506229
0.0256525
6.37417
0.0470572
4.26837
0.473402
0.02514
0.0253289
0.0509724
2.67676
4.22416
0.0545708
8.26921
0.0254659
1.1049
0.0678806
0.0250545
0.0247746
0.039944
0.0255178
2.69656
0.096994
0.0248679
0.0263437
3.10373
0.0250038
6.7724
0.0461945
0.0519106
2.36373
0.0253449
0.0447594
0.0251337
2.47283
0.0257272
0.0308884
0.0280393
0.0484942
0.0246902
5.37565
2.8847
0.0326786
0.0256625
6.72572
2.1781
0.234349
2.55043
0.0494768
0.0255672
0.0253709
0.14218
0.138823
1.10452
0.14208
0.0402877
0.0438696
3.31381
0.0255732
2.42384
0.0271042
0.079716
0.0254175
0.0252902
0.0271918
0.0262224
0.103911
0.0312126
1.20063
0.223295
3.1334
2.97654
0.0266728
0.0286697
0.0252801
6.64428
0.0256233
0.0720639
0.0251846
0.0406694
0.0580773
3.50714
2.58362
2.59947
3.11963
0.0265109
0.0711847
0.919987
4.76222
0.0902187
0.0254708
0.0358725
2.51253
0.0263284
0.0325362
0.0252767
0.0672784
0.0300039
4.41853
0.027328
0.025473
2.77816
3.06627
0.166113
0.025404
0.0254393
0.0621341
2.81703
0.0501224
0.368568
0.0291256
0.0310923
0.689744
0.0485731
0.0301012
3.59442
7.06231
0.138276
3.15699
3.88868
1.85492
2.54208
0.0902691
2.79852
14.5005
0.0438424
0.324911
0.0253472
0.029233
6.89451
0.0865147
2.56178
0.0256251
5.71956
0.266351
2.65345
0.0962195
0.0803505
0.0259572
4.19169
6.82025
0.0491732
5.43543
0.0341445
0.026039
5.8408
0.066457
2.9016
0.0600808
2.28652
2.65175
6.81532
0.0489273
3.30994
0.0251408
0.0260257
0.109822
0.0269477
0.0258529
0.0362229
0.0419675
0.155224
0.20639
11.0515
6.4209
0.0659973
0.0254185
4.6515
0.0352962
0.0254233
2.75
1.527
0.0253412
0.025106
0.0311895
0.157978
0.048271
5.95506
0.921243
0.267341
0.0276934
3.55496
0.0261523
0.0397655
2.97659
0.0253838
0.375392
0.0802942
0.0253584
0.47603
2.67572
0.0274772
0.024902
0.0315799
0.0253915
0.0273139
5.25823
0.0252422
0.136759
3.60546
0.0253432
2.64488
0.0262046
3.37026
0.487833
4.17039
6.07081
3.92118
0.0549913
3.46148
0.025238
6.12765
0.0259644
0.0772663
0.761757
0.0393655
3.78994
0.033244
1.16533
7.06637
0.0256756
0.265755
3.68487
0.0255575
3.03452
0.0284316
2.74021
1.53618
0.499924
0.0506169
3.41156
2.39193
0.0706597
0.124255
0.0259215
0.107199
14.2663
4.96781
0.0812419
0.0254719
0.0620738
0.907458
0.0260752
4.35706
0.0252807
0.0438545
0.0922122
2.68785
0.0252908
0.0254853
0.0346908
8.0101
0.0248332
0.0256521
0.751385
0.0253466
0.0804207
0.104867
0.0471973
2.67672
0.222135
3.4115
2.83887
0.0789715
0.180361
3.76422
0.0275682
0.027297
0.0668334
0.0253419
7.29539
1.55909
0.0264024
0.025782
3.07361
2.74944
3.84307
0.250456
0.0252352
2.90355
2.55619
0.0258879
2.76548
3.97133
3.57644
18.0807
0.0253142
0.0282508
0.0254186
0.0301574
0.0273771
0.0256248
0.0932708
0.0527639
2.66495
0.0265485
0.0523297
0.0249917
0.0256444
4.3895
0.0312965
8.94637
4.17822
0.0325145
0.0251635
0.108847
2.01968
3.39051
0.035367
3.68391
0.103358
3.53698
0.027976
0.0472496
2.97709
0.0253569
3.61589
0.209544
3.4148
2.65023
3.43843
0.0256495
2.64952
0.0654543
3.41037
8.24252
2.80738
8.7929
0.415522
0.146419
2.70682
0.0256827
3.66927
5.98944
2.7555
3.50851
3.73821
0.0278132
3.03402
0.0406869
0.042605
0.0393078
2.59465
0.0254982
1.98316
0.0254138
0.0585063
1.84425
0.0254203
2.69478
3.64297
0.0250983
0.0250281
0.0251633
2.56511
6.28823
0.0294066
0.11739
0.0287388
3.31972
2.66911
2.49269
3.31526
0.0433239
4.02301
2.67538
7.5718
0.0352804
4.60964
4.92554
3.49636
0.0248799
2.47326
0.0785525
3.45108
3.06063
0.0259127
0.0255125
0.0907771
0.0251596
3.44128
0.0252654
2.65829
0.0264689
3.80195
3.77858
3.90235
0.283734
5.05477
0.0286805
0.0259157
0.0621865
3.89896
0.0254297
0.0750244
3.93194
3.40924
7.22258
3.60993
0.0292128
0.0736375
3.49434
2.61751
20.3466
3.37699
2.90987
2.69396
2.83286
4.21386
0.0256941
0.0273499
0.0252896
3.15427
3.21705
0.0252079
0.0324233
3.62459
2.87977
0.186079
6.63726
3.46839
0.160858
0.665329
1.01105
0.0257335
3.97246
2.56935
2.99623
0.0261913
3.77004
0.0270424
3.56227
2.53577
1.50007
2.96997
3.16145
3.59008
0.235158
3.35188
3.0819
5.37619
0.0259147
2.74614
2.66838
0.0299962
0.0918566
0.0260823
0.0360862
0.0266493
4.06758
0.129428
0.0312711
0.0732855
0.0254524
0.650635
5.72484
3.40728
4.16676
0.158486
0.0276794
0.0715564
2.68849
0.0347024
0.0253099
3.14293
2.47412
0.220912
2.88228
0.027975
3.47163
0.0309598
0.0681043
0.0292534
0.0313128
7.18072
2.73124
0.101034
2.55803
0.135937
0.0282213
10.4535
3.66635
4.34844
4.02819
0.0252481
0.0255442
0.0616536
3.65478
0.0912691
0.0334804
0.139917
0.0256313
2.96518
0.025293
0.0255452
0.0248757
0.0274211
3.8582
0.0794599
0.0254194
0.0261566
0.0446113
0.0992547
0.124208
3.04816
0.0355812
6.60306
0.025519
6.57838
0.0484364
3.84234
5.14636
0.0256078
0.0248243
0.0252961
0.0254261
5.8437
0.0279427
0.0268403
6.22332
0.907618
0.0256912
0.0265733
0.0254005
0.321718
0.595624
2.97997
2.2998
2.65456
0.0606465
5.69712
2.51204
0.0254226
0.0251526
2.80102
0.167288
3.85529
0.0254948
3.4256
9.57342
0.176431
2.83704
5.90781
3.30947
0.0258262
3.4211
0.21382
0.0394377
0.0289179
0.025274
0.360142
0.154494
1.04684
3.1714
1.61006
0.0288812
2.75662
0.0293993
2.51666
0.0268549
3.02466
0.834617
14.4663
2.94943
0.0461116
0.0337031
0.037746
3.40635
0.0255957
4.72545
3.14785
3.47175
7.42033
0.0302579
0.0694759
0.133814
5.83296
0.0307272
0.576201
0.048137
0.0300241
0.14688
3.23156
0.0389621
5.8252
3.1237
0.643625
0.0252588
0.183663
0.0268384
3.45308
0.026079
0.0247933
0.0331265
2.9231
0.0376059
3.70185
3.9088
0.181898
0.0526388
1.51498
2.66687
0.025188
0.13467
3.47644
0.024904
0.0254042
3.3293
4.14136
0.0264044
0.0414627
0.118777
3.1976
2.71373
0.0428906
2.56489
4.97066
0.0256039
2.14447
0.0289309
6.94388
0.163649
0.731678
0.0423483
1.81736
2.37859
0.025471
0.0257943
0.0287711
0.100593
0.0360611
0.029604
3.94954
0.250189
2.75652
0.0389168
2.7178
3.3218
0.433768
3.72694
3.27272
0.0268407
3.24094
4.24173
0.276747
0.141598
3.25666
5.02242
2.8824
3.26187
0.0587
0.0350166
0.214013
3.72009
4.04776
3.30886
7.50689
5.63814
0.0256698
3.54191
0.0660568
5.47272
0.0310862
0.0252074
0.168353
1.30077
5.87108
0.367291
4.56486
0.124384
1.08726
0.0477879
0.0304611
0.0259885
0.0256952
0.0588366
0.170742
0.84434
2.86861
3.35761
3.18835
0.0253957
0.0339407
0.0321119
0.0373256
0.0258402
4.31896
0.0653174
2.85413
20.0163
0.0252329
3.64984
3.30828
3.0867
0.025181
0.104765
3.64038
5.68233
0.0491765
0.0358859
0.246637
0.0485877
0.114618
0.138375
0.0360681
0.0725123
3.38614
3.62324
3.43019
0.100786
0.0256373
0.0253683
2.63247
3.76483
3.33576
0.0298629
3.49324
2.57733
2.84524
0.0258712
3.08521
3.25935
3.24629
0.438848
3.96215
3.38496
0.0250832
3.16724
3.36271
0.0253157
2.83023
3.35202
3.21548
2.61209
3.15019
0.025301
0.383309
0.143547
0.318506
0.123732
0.155857
0.0304382
6.74057
0.110198
2.70871
0.143325
3.39282
3.99145
0.143288
4.73214
4.98932
3.50337
0.0252123
3.31203
5.10226
0.116466
3.4162
0.0284922
2.59794
3.67828
0.0559932
3.42631
0.130143
0.025333
0.0305854
4.06939
4.91557
2.74505
2.81303
0.15875
0.0446272
2.75132
0.0255173
0.0296277
8.09795
0.0346265
0.0645671
4.67067
4.7331
0.0260812
16.4193
2.79466
3.18123
2.77605
3.55934
0.027657
2.76882
4.50392
0.0617571
0.0288833
0.208488
3.10468
0.0521788
3.44012
3.42073
0.0258688
5.10464
0.0537158
0.0542871
0.0272268
0.039779
0.0384709
0.0595795
0.0256889
0.0256519
0.0312376
0.747963
2.66086
0.054876
0.529667
0.0589384
0.0577991
0.0846981
12.7868
2.66615
0.0256978
2.24984
0.398944
0.119944
0.0523447
0.655734
2.66396
0.0264775
0.0254884
0.12039
3.82364
6.00635
1.70286
3.58945
0.0762006
4.40059
0.0254532
2.94165
0.0440067
0.0276385
0.12212
11.3071
4.13179
8.03102
0.403879
0.0405886
0.0265459
0.0247409
0.0410423
0.025579
0.17695
1.79148
0.0344405
3.01771
6.51705
7.85928
0.0338091
0.0617871
2.87023
0.0484212
0.0550803
0.0247431
3.37809
0.0594354
0.420417
0.0423011
2.98495
2.56031
2.55917
5.40215
0.0431309
0.0565544
0.0437936
0.0255703
3.86061
1.66519
0.0887641
0.0301512
0.0300203
0.105467
2.73647
0.0253252
0.423317
2.65793
0.0268052
0.16893
0.0534664
0.0251371
0.151004
5.04211
0.162236
0.0262255
0.0994264
0.0722548
3.04714
0.0390011
3.24027
0.0814183
1.30771
0.0746007
2.90151
2.96423
0.391479
0.120096
0.0357568
0.0272463
0.0811176
2.24171
0.104731
6.36712
0.0461323
0.445274
0.0437703
0.185205
0.334024
0.132453
0.0260447
3.97851
0.0250692
0.0739492
0.0317529
0.8691
0.025169
0.0476214
0.025467
0.0314966
2.75522
0.0264104
0.0254695
0.612684
0.0254116
0.157833
0.0259132
0.0253739
3.67208
4.41349
0.0256655
0.0593641
0.175211
0.0621151
0.120205
0.043804
0.0603732
4.66904
0.0505941
16.4356
5.50055
0.0257722
0.194003
0.0251695
0.0254895
0.0484928
0.124693
3.22313
0.458219
0.116667
0.0910789
3.24409
0.0321858
2.74812
6.8699
0.0289866
0.0399038
9.07588
2.61736
0.0256913
0.877642
0.0257175
0.0286864
9.67535
0.025259
0.0906638
3.32402
3.33374
2.86325
0.117805
11.7098
0.0637333
5.29188
0.496109
0.041083
0.512673
8.31198
0.410142
3.92631
6.20111
0.0261305
2.76686
0.024843
0.180371
6.94304
0.0254065
3.97791
0.025813
0.0253631
0.0605719
0.186914
0.0248316
6.7174
0.0874434
0.0256372
0.0248511
0.0279424
0.0308718
3.73478
3.53632
10.9946
0.13481
6.01431
3.44428
0.0264965
0.105358
4.06756
0.462679
3.73656
3.41264
0.0249423
2.60925
2.79505
3.61469
1.76626
0.0366804
0.0253082
0.0347835
0.398268
0.0249858
0.0250645
4.57385
2.45673
3.66022
0.170728
0.0267013
3.51732
3.55039
0.0259839
7.27462
2.68831
0.0353762
0.044843
0.0560892
3.54035
2.723
1.85691
0.0695692
0.0329179
1.33923
0.0328877
0.121588
0.0291852
0.0939011
0.0352317
0.0254275
7.36519
3.05055
0.0279415
0.159298
0.0594276
0.025295
5.34221
0.657841
3.86098
2.90903
0.0849221
3.32506
0.14377
4.78487
5.6738
0.265015
1.2452
2.59841
0.0269732
0.044849
0.0255078
0.0253328
3.37327
6.17856
0.0998273
0.0257621
0.0687031
7.95511
0.0252427
0.0683793
0.026398
0.063216
7.69619
0.0272963
2.66657
0.0830079
6.5979
0.0511004
6.44542
2.71889
0.0553872
0.0271693
0.102106
0.19923
0.374247
3.62989
0.0606114
0.405299
0.314352
0.0588056
0.030684
3.10411
0.122376
3.62185
0.0460561
0.0721755
0.08247
0.0291426
11.9208
3.34099
0.212799
0.163691
3.02079
0.0254397
0.104199
0.0252629
0.0293864
0.0282043
0.024709
0.0272547
3.47538
0.184138
0.46032
0.0262983
0.0261819
0.0488755
2.92018
0.0718331
0.0451752
0.0255357
4.03871
0.0254999
0.331878
0.534817
0.0252249
0.0266477
0.0275557
0.0858374
2.64632
0.0255574
4.56284
0.0275844
0.239023
0.162325
0.026116
3.49867
0.0270728
0.0250885
7.20823
3.33497
0.0324971
0.23455
0.0265867
3.20589
0.0251145
0.101984
24.3047
0.415104
0.107236
0.487073
0.0254584
2.52891
0.108114
3.45742
0.0250258
0.0876495
0.0804074
0.0254811
0.0295001
0.0248389
0.0321475
0.0271263
0.0501433
0.0252927
0.168181
2.74074
4.02673
0.0249963
0.087681
0.160326
0.0616061
0.0423602
0.0267142
0.0291953
0.0254459
0.025146
0.0626584
0.0290506
0.0925515
0.0768405
0.0254887
0.46508
0.0278392
0.0275594
2.83287
2.79986
0.114527
0.0252041
9.22208
21.926
3.48149
0.0459212
0.0313671
0.184378
5.63596
0.0250522
6.46027
0.0250319
0.0256269
0.0751169
0.0292511
0.0427163
0.0256383
3.50801
0.0429575
0.0277136
3.17891
0.260039
13.1575
2.37189
0.166436
0.106614
0.0254074
0.029782
0.0255709
0.0253287
2.69566
0.07531
0.295929
0.0254704
3.55943
0.030057
0.108701
2.14424
3.0008
1.12206
0.0737992
0.0255321
2.37355
0.0255616
0.0267983
0.0254109
0.127033
3.09825
0.0272839
2.87219
0.0652793
0.0256676
0.188438
0.110106
6.91287
0.0252401
0.365607
4.70526
4.23522
3.38359
0.0272945
0.0254069
6.97945
3.0583
0.0339721
0.0254317
0.0256247
0.155333
1.90542
0.280801
0.0258102
5.0585
0.0277373
0.0369365
3.73475
0.0390618
0.0256113
0.0286009
0.034637
0.122806
0.0267608
2.83562
2.82806
3.59179
0.0252907
0.0380233
0.0401353
0.0257512
0.339271
2.70698
6.72455
0.0626369
0.0255019
0.136921
0.0343094
2.8877
0.0279822
0.0578523
4.78694
0.0254098
2.6011
3.15906
0.025421
0.0251959
0.025479
0.518137
7.70904
0.0270387
0.0250416
0.0256068
0.0259863
0.0249675
0.682507
5.71647
0.0254382
0.339617
0.0254531
0.0269664
0.0254652
0.0291905
0.036485
0.0581858
2.56287
0.0254648
0.0432564
0.0304198
3.72286
3.64149
5.84009
4.13148
5.02082
4.85513
2.82338
2.80417
9.50369
0.11774
0.062783
4.55758
2.58182
0.0248943
1.42942
3.58178
0.0312731
0.0295594
5.05905
4.879
3.45848
0.025721
0.0815716
3.99859
0.029962
3.41214
0.0254973
2.54563
3.18561
0.111019
0.0258593
0.0258855
2.67464
0.0254882
7.809
0.0812249
0.0255342
0.025577
0.156162
0.0268205
4.38263
0.0453827
0.0254435
0.0259308
3.70303
0.105937
2.7093
3.12253
3.22101
0.059147
0.0454906
0.0250322
0.0361385
0.0396233
0.031424
0.0406588
2.44286
0.0257526
2.6544
7.57528
9.14347
0.0255428
0.0878971
15.5532
0.0247564
5.43441
0.783788
2.5426
2.67715
11.5046
0.153975
0.0689153
0.261096
2.58768
0.025668
0.0256844
3.79156
3.486
0.0393992
0.0344259
0.0575799
0.0778547
0.0402266
0.0851765
6.74251
0.135062
0.142738
0.0271319
0.0256767
0.0268998
2.56887
0.0833692
3.08254
9.14762
16.3705
0.209242
0.027405
0.0263799
0.0262166
0.086526
0.448921
3.34461
0.0283074