/*--------------------------------*- C++ -*----------------------------------*\
| =========                 |                                                 |
| \\      /  F ield         | OpenFOAM: The Open Source CFD Toolbox           |
|  \\    /   O peration     | Version:  v2012                                 |
|   \\  /    A nd           | Website:  www.openfoam.com                      |
|    \\/     M anipulation  |                                                 |
\*---------------------------------------------------------------------------*/
FoamFile
{
    version     2.0;
    format      ascii;
    class       volScalarField;
    location    "300";
    object      p;
}
// * * * * * * * * * * * * * * * * * * * * * * * * * * * * * * * * * * * * * //

dimensions      [0 2 -2 0 0 0 0];


internalField   nonuniform List<scalar> 
15335
(
-0.345391
-0.195383
-0.427627
0.0670864
-0.436588
0.0365933
-0.192308
-0.335386
-0.129033
-0.345917
-0.427087
-0.0732768
-0.436842
-0.14319
-0.393387
-0.404588
-0.0426582
-0.429072
-0.0458404
-0.318416
-0.335931
-0.340155
-0.191239
-0.0413349
-0.294622
-0.173515
-0.440303
-0.168619
-0.43622
0.0680766
-0.434588
-0.326775
0.0292768
-0.00708809
-0.030148
-0.342095
-0.338126
-0.361311
-0.211552
-0.225381
-0.157299
-0.367835
0.0156979
-0.0883557
-0.303261
-0.0295234
-0.441118
-0.182642
-0.143887
-0.00990899
-0.040689
-0.36862
-0.392285
0.0291302
-0.0496111
-0.190241
0.154878
-0.370968
-0.436348
-0.425531
-0.225518
-0.182011
0.0891453
0.123947
-0.0499625
-0.0723331
-0.352174
-0.327315
-0.0522931
-0.0416433
-0.152835
-0.0382865
-0.294464
-0.215249
-0.32846
-0.293209
-0.156525
-0.274465
-0.430947
0.0203573
-0.436443
-0.439805
-0.436058
-0.28804
-0.434775
-0.0294954
-0.0454824
-0.0868517
0.0466754
-0.210179
-0.438175
-0.17197
-0.0747264
0.319265
-0.436488
-0.0889186
-0.0285558
-0.0907097
-0.0350085
0.0210022
0.0144628
-0.29548
-0.332361
-0.126081
-0.0756055
-0.124909
-0.0484118
0.183013
0.494134
-0.0182579
-0.178623
-0.220088
0.00170127
-0.0748334
-0.393849
0.0429233
-0.152012
0.28527
-0.439378
-0.363478
-0.438127
-0.231861
-0.210992
-0.189914
0.0398088
0.0213745
0.155219
0.0201672
-0.124002
-0.0439301
-0.373628
-0.302027
-0.0328179
0.0386183
-0.267852
-0.0232548
-0.435075
-0.43276
0.0964298
-0.336665
-0.171485
-0.213109
-0.0995062
-0.0425465
-0.269742
-0.389862
-0.217864
0.524126
-0.254866
-0.432397
-0.0949773
-0.341319
0.0200796
-0.086896
-0.154137
0.0280483
-0.259144
-0.210073
0.470574
-0.397557
0.0285218
0.135083
-0.197241
-0.177457
-0.215222
-0.274714
-0.277256
-0.0395048
0.25114
-0.441548
-0.407432
-0.385246
-0.266225
0.274332
-0.277382
0.0196261
0.00107372
-0.185146
-0.423061
-0.233016
-0.283003
0.108823
-0.225523
-0.141678
-0.140431
-0.256352
-0.115989
0.0656038
-0.212511
-0.376054
-0.384655
-0.291784
-0.0948674
-0.287678
-0.354774
-0.436122
0.00356093
-0.29864
0.02132
-0.436722
-0.0851328
0.0500202
-0.040784
-0.392031
-0.405841
-0.271114
0.00112855
0.301948
0.144357
0.0184431
-0.140536
0.0110471
-0.156785
0.0657761
-0.144139
0.311512
-0.426399
-0.338735
-0.139774
0.473772
0.0380578
-0.00237416
-0.122021
-0.0861719
-0.279568
-0.34871
-0.0386764
-0.219297
-0.173167
-0.279378
-0.0228341
-0.0329147
-0.1428
0.475106
-0.25551
-0.130981
-0.287825
-0.140082
0.00165558
-0.360035
-0.230627
-0.0283553
-0.209528
-0.146398
-0.391228
-0.0272366
0.0194138
-0.38643
-0.14798
-0.141598
-0.403942
-0.289326
-0.0322039
-0.04017
-0.174043
-0.280417
-0.175419
-0.385324
-0.0418001
-0.276169
-0.319726
0.026848
-0.039827
0.0352055
-0.0529905
-0.0423662
-0.396313
-0.201181
-0.213509
0.051123
-0.391175
-0.255988
-0.202521
-0.023184
-0.18304
0.0472805
0.0152657
-0.261687
0.119546
-0.170805
-0.144232
-0.312418
-0.0441946
-0.175364
-0.0961215
-0.432589
-0.256701
-0.0983186
0.0692424
-0.0374532
-0.279932
-0.0762689
0.112539
-0.276133
-0.0852904
-0.291404
-0.0392506
-0.192905
-0.028868
-0.382765
0.041032
-0.232123
-0.213048
-0.257386
-0.0215663
-0.426171
-0.281102
0.00189145
-0.337336
0.0966105
-0.399021
-0.0537257
-0.290482
-0.199525
-0.341083
0.0279921
0.034872
-0.385605
-0.275442
0.46449
-0.293183
-0.0489889
-0.308796
-0.431624
-0.119959
-0.158814
-0.396788
-0.283692
-0.0954993
-0.0933649
0.0219225
-0.221186
0.054293
-0.191093
0.0220609
-0.338443
-0.0475461
-0.182781
-0.440441
-0.314017
-0.193674
-0.148759
-0.00139728
-0.149839
-0.0921768
0.0993203
-0.00570929
-0.327434
-0.0337438
-0.437778
-0.270404
-0.402138
-0.0405307
-0.392838
-0.403942
-0.00198709
0.163132
-0.0869844
-0.124204
-0.235031
-0.0973438
-0.170037
-0.0947143
-0.350454
0.143762
-0.30811
0.481238
-0.167186
-0.0857545
-0.0242155
-0.255207
-0.0113669
-0.105381
-0.347734
0.0287309
-0.345203
-0.370851
-0.0876602
0.138047
-0.160003
-0.00231351
-0.0823227
-0.432824
-0.339833
-0.118778
-0.024106
-0.222792
0.26422
-0.148845
-0.299691
0.0259401
0.050034
-0.0244512
-0.146743
-0.332404
-0.261254
-0.322873
-0.0933152
0.165949
-0.191706
-0.231815
-0.235052
-0.437737
-0.0933655
-0.0651423
-0.232479
-0.39942
-0.427389
0.0570091
-0.273605
-0.285955
0.136555
-0.328862
-0.177068
-0.15291
-0.382688
-0.430916
-0.0814974
0.293943
-0.0946544
0.108629
-0.408505
-0.186785
-0.0292333
-0.208475
-0.269138
-0.145602
-0.398687
-0.10185
-0.424094
-0.309527
-0.358508
-0.36253
-0.33423
-0.140473
-0.251793
-0.222948
-0.416811
-0.0418437
-0.0430008
-0.335277
-0.391014
-0.0353032
-0.188662
-0.133325
0.243587
-0.31585
-0.145039
-0.143357
-0.396088
-0.40507
-0.348482
-0.139056
-0.0133754
-0.293659
-0.295444
0.0159569
-0.343943
-0.209738
-0.144142
-0.228172
-0.33187
-0.208342
-0.190991
-0.124098
-0.117234
-0.107091
0.0232951
-0.00768196
-0.198867
-0.153898
-0.192988
-0.356796
0.0251377
0.00363106
-0.0538885
0.512501
-0.363677
-0.387941
0.516102
-0.26993
0.497698
-0.111291
-0.43523
0.0664581
-0.0464354
0.024926
-0.214131
-0.0350298
-0.240009
-0.0413042
0.0854116
-0.0382417
-0.273705
-0.322328
0.022648
-0.0944263
-0.190017
0.107835
0.137048
-0.398361
-0.0962159
-0.194859
-0.0707624
-0.364559
-0.0658335
-0.024729
-0.407967
-0.0531369
0.0713118
-0.391929
-0.0248427
0.0274145
-0.414221
-0.343322
-0.328393
-0.084408
-0.131617
-0.0624783
-0.427668
-0.299676
-0.0110943
-0.386916
-0.306888
-0.227104
-0.296183
0.052949
-0.213326
-0.219323
-0.434082
-0.416049
-0.112128
-0.172068
0.158677
-0.274745
-0.194414
-0.335558
-0.256273
-0.335674
-0.243397
-0.223558
0.0258859
-0.0651123
-0.102396
-0.117193
-0.0161933
-0.196062
-0.219089
-0.269786
-0.226458
-0.193654
-0.348264
-0.149862
-0.247425
-0.139797
-0.282985
-0.118625
0.00363805
-0.0993291
-0.0422643
-0.0104739
-0.150596
-0.0601123
-0.112389
-0.231455
0.494878
-0.377078
-0.436116
-0.295507
-0.198194
-0.031692
0.0543632
0.0289761
0.0722299
-0.436564
-0.120534
0.462174
-0.0242842
-0.150401
-0.434043
-0.0432734
-0.0344837
-0.30819
-0.430753
-0.410519
0.0369793
-0.080325
0.0982323
-0.396276
-0.394281
-0.0526694
-0.0412753
-0.0227948
0.0250124
-0.168662
-0.164939
0.515123
-0.330646
-0.0674111
-0.327742
-0.0949861
-0.0791837
-0.283856
-0.00535241
-0.116371
-0.273172
-0.0373732
-0.296017
-0.303796
0.0805439
-0.322542
-0.344922
-0.213518
-0.139387
-0.169617
-0.167413
-0.0386297
0.0210032
-0.10939
-0.134361
-0.280836
-0.158077
-0.0123911
-0.430967
0.00330064
-0.0974809
-0.433311
-0.223134
-0.232652
-0.435747
-0.120725
-0.00775982
-0.0549176
0.0240014
-0.0112051
-0.335973
-0.0548279
-0.190909
-0.417946
-0.036779
-0.0758308
-0.416688
0.0363517
0.266657
-0.35277
-0.0397745
-0.287846
0.00281276
-0.193848
-0.270569
-0.31383
-0.250522
-0.435717
-0.397922
0.119102
-0.372726
-0.0446178
-0.136647
0.233688
-0.424722
0.0852285
-0.423862
0.0027243
-0.397557
-0.103937
-0.339099
-0.0395668
-0.0589235
-0.229285
-0.285454
0.0506961
-0.104283
-0.0575555
-0.284696
-0.435953
-0.0477505
-0.4219
-0.450707
-0.246558
0.00212686
-0.248555
0.0166869
-0.0334918
-0.28556
0.0221156
0.0618378
-0.427774
-0.113386
0.0187184
0.15188
0.0211828
-0.0373348
-0.198973
-0.403738
-0.0356126
-0.0345006
-0.255983
-0.0312344
-0.199056
-0.0363927
-0.437473
-0.355992
-0.0357219
-0.117239
-0.146801
-0.167644
0.0241994
0.0805042
-0.153503
0.0123131
-0.415348
-0.427655
-0.14768
-0.434391
-0.334052
-0.144233
0.00819996
-0.260351
0.00744719
-0.0778476
-0.154094
-0.0126845
-0.0615666
-0.289964
-0.370003
-0.439279
-0.331177
-0.174698
0.00933166
-0.309768
-0.254764
-0.149997
-0.433813
-0.301085
-0.184143
-0.18631
-0.166696
-0.412238
0.198885
-0.307672
0.0702056
-0.124503
0.0437346
-0.233154
-0.151459
-0.0679266
-0.145649
-0.26438
0.141163
-0.113236
-0.139048
-0.437191
-0.136026
0.03291
-0.377531
-0.375989
-0.168362
-0.402014
-0.0544701
-0.0940178
-0.326829
-0.141299
-0.138068
-0.132507
-0.410974
-0.0265316
0.022435
-0.106485
-0.0359908
-0.426631
-0.0379523
-0.369109
-0.123206
0.00562274
0.100296
0.14045
-0.439002
0.0219645
-0.0340024
-0.434236
-0.312102
-0.113128
-0.0269144
0.0197348
-0.285083
-0.178977
-0.219885
-0.359736
-0.122511
0.0257512
-0.437189
0.0518013
-0.334773
-0.118035
0.159383
-0.165556
0.0148502
-0.0411964
-0.130376
-0.274813
0.281416
-0.157971
-0.0334844
-0.414988
-0.170898
0.0498058
-0.00515589
0.116543
0.00108831
-0.32064
-0.2968
0.00914078
0.0114501
0.0200498
-0.0211158
0.00992259
-0.0409928
-0.372893
-0.141679
-0.00788681
-0.437146
0.0226992
-0.0745982
-0.0828737
-0.432158
0.487498
-0.345445
-0.0725351
0.0189781
-0.434333
-0.00693061
-0.154347
-0.10145
-0.210625
-0.369275
-0.307413
0.0264559
-0.0488036
-0.337364
-0.170542
-0.117144
-0.0088719
-0.0449336
-0.284865
-0.104652
-0.119285
0.041363
-0.0412681
-0.304759
-0.0776488
-0.0344698
0.221563
-0.435439
-0.303246
-0.402779
-0.131244
-0.0386453
-0.279227
-0.263609
-0.378973
-0.11275
0.147294
-0.168472
-0.00566001
-0.433533
-0.336652
-0.0220315
-0.201516
-0.162704
0.0105231
0.522852
-0.0771497
0.059374
-0.37076
-0.216719
0.0190119
-0.163133
-0.422544
-0.00310589
0.0169294
-0.219126
0.257696
0.251122
-0.035204
-0.17576
-0.156315
-0.14672
-0.293942
-0.436346
0.252987
-0.0529089
-0.433438
-0.0864564
0.242864
-0.0590528
-0.151235
0.266754
-0.057172
-0.0177611
-0.121358
-0.428482
-0.428384
0.0178569
0.0408346
-0.41827
-0.0223294
0.43906
-0.154303
-0.0343905
-0.0189825
-0.262995
-0.110511
-0.352562
-0.412598
0.0136194
-0.065344
-0.142109
-0.0861304
-0.197295
-0.139871
0.182969
0.00851862
-0.0343222
-0.251338
-0.110064
0.0101467
-0.275178
-0.438732
-0.0312075
0.233936
-0.0253056
-0.0678589
0.0292416
-0.270394
-0.424174
0.053009
-0.0269021
-0.403588
-0.0968269
-0.225459
-0.0767578
-0.0641742
0.0425843
-0.09666
0.0207186
-0.351557
-0.374468
-0.0662507
-0.141236
-0.241022
-0.0730854
-0.155593
-0.36433
-0.123621
0.0121892
-0.404882
-0.307181
0.00657392
-0.142735
0.031056
-0.351915
-0.361946
-0.0106556
-0.219416
0.00574964
-0.436603
-0.0866481
-0.168248
-0.144766
-0.13893
-0.0382247
-0.368099
0.0217237
-0.101222
0.525904
-0.151523
0.238102
-0.372198
-0.186082
-0.231666
-0.315965
-0.263164
-0.122589
-0.242438
-0.393101
0.0940284
0.341654
-0.291082
-0.0341265
0.224487
0.00345314
0.186673
-0.438499
0.43986
-0.0493602
0.191429
0.02594
-0.331971
0.000405778
-0.146515
-0.0280471
-0.226997
-0.404163
-0.204996
-0.194304
-0.202401
0.186986
-0.0370736
-0.129495
-0.316134
-0.0723922
-0.0238172
-0.0572879
-0.0691313
0.0611965
0.278271
-0.43345
-0.392828
-0.0116605
-0.436814
-0.0805935
-0.142329
-0.196687
-0.219236
-0.343334
-0.0231625
0.287573
-0.358096
0.0983874
-0.319231
-0.0217888
0.0113228
0.0113454
-0.00498291
-0.0866509
0.35421
0.115452
-0.341536
0.130528
0.0209526
0.0094185
-0.41777
0.294486
-0.076275
-0.148074
-0.136948
-0.303933
-0.246076
0.0702187
-0.101547
-0.28847
-0.0179785
-0.0394814
-0.332264
-0.0551093
-0.270092
-0.0279185
-0.0171559
-0.185461
-0.0858154
-0.303138
-0.206788
0.145959
-0.0375601
-0.0629615
0.0300466
-0.266154
-0.430706
-0.420791
-0.0416174
0.0106601
-0.0812882
0.0189312
0.0493617
0.0256658
-0.0329567
0.0246395
-0.193979
-0.0514204
0.0102107
0.51042
-0.362969
-0.0050615
-0.389611
0.0459701
0.0596638
-0.382111
-0.242101
-0.0901885
-0.279469
-0.373791
0.452958
-0.0334247
-0.365064
-0.304424
0.243427
-0.196557
-0.280664
-0.313544
-0.146827
-0.14599
-0.131608
-0.144029
0.319809
0.031361
-0.0365239
-0.437383
-0.19689
-0.264464
-0.0125234
0.0239144
-0.192874
0.0184332
-0.393811
-0.14213
-0.00770084
-0.179265
-0.365918
0.061347
-0.306978
-0.37803
-0.327416
-0.308512
0.0149257
-0.10645
-0.18816
-0.273281
-0.272732
-0.43826
0.0234325
-0.267109
-0.157049
-0.437141
-0.042525
-0.0039673
-0.283084
-0.195609
-0.012224
-0.338879
0.0936619
-0.0468721
-0.042606
-0.417475
-0.431634
-0.37911
0.00447506
0.0111997
-0.142618
0.0817095
-0.258172
0.349661
-0.201328
-0.128269
-0.0425313
-0.401003
-0.336875
-0.205486
-0.335881
-0.137714
-0.330975
-0.100904
-0.384519
0.062777
-0.430203
-0.420131
0.0233169
-0.174812
-0.218618
-0.22502
0.0807411
-0.0133842
-0.435352
-0.142551
-0.242606
-0.425426
-0.412827
-0.12479
-0.179295
-0.154532
-0.141888
-0.144022
-0.333331
-0.0139602
-0.295658
-0.321645
0.155944
-0.257507
-0.398566
0.0447903
-0.324217
0.183483
-0.321324
-0.23234
-0.26703
-0.282127
-0.346839
-0.0901481
0.0472322
-0.0266742
0.00195968
0.00447033
-0.302351
-0.267874
-0.0336591
0.0234328
-0.208432
-0.049468
-0.216801
-0.404576
-0.308499
-0.263634
-0.042434
-0.244959
0.00349172
-0.382239
-0.0391318
-0.27592
-0.421385
-0.179374
-0.204849
0.0883075
-0.171594
-0.376419
-0.431682
-0.4192
-0.403116
-0.296569
-0.408838
-0.29214
-0.128233
-0.436201
-0.0247343
-0.0100108
-0.153014
-0.159009
-0.324177
-0.0434341
0.0665245
-0.0350826
-0.172552
-0.213069
-0.129768
-0.0214294
-0.317821
-0.143133
-0.0473992
-0.0508898
-0.202653
-0.36056
-0.352927
-0.0229919
-0.236512
-0.039408
0.0322774
-0.227181
-0.0175952
-0.155326
-0.285227
-0.130303
-0.144344
-0.131397
0.0526919
0.0109429
-0.0927233
-0.28056
-0.125518
-0.0451942
-0.144249
-0.336781
-0.295523
-0.42298
-0.0764502
-0.10087
-0.181989
-0.177222
-0.152146
-0.0104288
-0.0507348
-0.157119
-0.335993
-0.129701
-0.432886
-0.156931
-0.130354
-0.0126822
-0.0254411
-0.267769
-0.068423
-0.0346293
0.200434
-0.0458052
-0.350185
-0.00633817
0.0102887
-0.0899475
-0.0097556
-0.208122
-0.404733
-0.296771
-0.289656
-0.391665
-0.179049
-0.121543
-0.0112445
-0.164401
-0.308389
-0.0211788
-0.369253
-0.390494
0.496722
-0.245766
-0.312403
-0.250112
-0.0074017
-0.332396
-0.390643
0.317645
0.0846355
-0.432404
-0.160437
-0.0958804
-0.00102625
0.10207
-0.432974
-0.247506
-0.425058
-0.34662
-0.231482
0.473694
-0.424771
-0.211136
-0.21389
0.010693
-0.216806
-0.0121925
-0.273824
-0.34471
-0.437918
-0.172952
-0.205267
-0.323949
-0.0425955
-0.25937
0.229925
-0.0424223
-0.229372
-0.0341337
-0.274742
0.0371073
-0.434267
-0.391533
-0.020844
-0.0523999
-0.438292
-0.111413
0.44399
-0.131843
0.20802
-0.0418844
-0.0694831
-0.000602734
-0.121731
0.504418
-0.390931
-0.310451
0.471031
-0.3949
-0.0339804
-0.231397
0.0466215
-0.118237
-0.20546
-0.32465
-0.413546
-0.183893
-0.0224983
-0.436036
-0.202828
-0.0226195
-0.00600563
-0.283144
-0.418296
-0.360097
-0.115401
-0.372351
-0.361909
-0.00469844
-0.218908
-0.202619
-0.119016
-0.433078
0.472796
-0.242515
-0.26031
-0.439142
0.0374102
0.0120352
-0.119317
-0.0261953
-0.438739
-0.0122955
-0.307917
-0.0265303
-0.272579
0.203511
-0.182221
-0.36878
-0.169517
-0.348721
-0.00440165
0.464703
-0.397306
-0.420865
-0.1096
0.0364149
-0.267261
-0.238879
-0.270049
-0.0550066
0.0148788
0.0256096
-0.405174
-0.263379
-0.0628063
-0.166971
-0.241032
-0.00729932
-0.436982
-0.203977
-0.310636
-0.215739
-0.329139
-0.240057
-0.129499
-0.0885954
-0.399413
-0.0250069
0.419245
-0.173908
-0.40906
0.0978048
-0.202831
0.0914533
-0.173981
-0.0945489
-0.258739
-0.0931964
-0.302534
-0.0546784
-0.410356
-0.116422
-0.160465
-0.264845
-0.409816
-0.404164
-0.344222
-0.1664
-0.300872
-0.144587
-0.129306
-0.0428193
-0.177808
0.00530729
-0.43808
-0.00931366
0.0314163
-0.242118
0.0263057
-0.0434071
-0.00492293
-0.308986
0.0510609
-0.333272
-0.00649965
-0.300702
-0.273841
-0.278771
-0.00772
-0.385132
-0.0686205
-0.0987821
-0.0584327
-0.16012
0.0262446
-0.25094
-0.0159192
-0.436655
-0.303135
-0.0984303
-0.195612
-0.172443
-0.429993
-0.0675781
-0.408669
-0.197126
-0.401769
-0.107861
-0.0834039
-0.192611
-0.394933
0.0190071
-0.281231
-0.331907
-0.0632957
-0.143212
-0.0791271
-0.234892
-0.096626
-0.0351149
0.0260927
-0.0850614
0.173919
0.0458416
-0.15482
0.0191722
-0.164642
0.215175
-0.281343
-0.160779
-0.00735825
0.313777
0.208416
-0.0425325
-0.182306
0.0409809
-0.349692
0.138866
-0.339637
0.0483148
0.385468
-0.0115588
0.170703
-0.386659
-0.421732
-0.33567
-0.437857
-0.277704
-0.175809
-0.0620654
-0.0535047
-0.253563
-0.311984
-0.397259
-0.434517
-0.0085406
0.506456
-0.0119749
-0.100733
-0.097438
0.202564
-0.0672604
-0.430647
0.511458
-0.253609
-0.434737
-0.19365
-0.279858
-0.164239
-0.100645
-0.00776234
-0.0658541
-0.0873425
-0.111603
-0.178491
-0.159519
-0.0611383
0.0177531
-0.439145
-0.197336
-0.269013
-0.417551
-0.307235
-0.364238
0.187052
0.211029
-0.195062
-0.09235
-0.0563699
0.125683
-0.229845
-0.0758754
-0.187176
-0.198565
-0.437246
0.0271333
0.227737
-0.184352
-0.115469
-0.166571
0.0324371
-0.0778274
-0.243883
-0.178156
-0.254721
-0.0662446
-0.0302183
-0.369902
0.0148633
-0.262986
-0.394809
-0.131494
-0.281392
-0.0680527
-0.133302
-0.0476015
-0.0680033
0.030864
-0.43487
-0.406934
-0.0072575
-0.216205
-0.350828
-0.0445555
-0.0389772
-0.127749
-0.299484
-0.221935
-0.192797
-0.00668237
-0.0606286
0.112526
0.279782
-0.374102
-0.107184
-0.0507332
-0.0661035
-0.199094
-0.102836
-0.350305
-0.304369
-0.00845104
-0.273253
0.0126676
-0.434538
0.0239723
-0.16104
-0.312794
-0.101219
-0.311988
-0.116981
-0.0686386
0.420986
0.139967
-0.025647
0.0504994
0.227809
-0.185222
-0.169962
-0.31563
0.0586864
0.0225689
-0.0645614
-0.307079
0.0655568
-0.185339
0.490522
-0.369492
-0.201651
-0.218998
0.0161093
-0.167033
-0.0785698
-0.0448456
-0.0207946
-0.00096482
-0.0629056
0.170822
-0.195512
-0.0127209
-0.102986
-0.399523
0.0241386
-0.362888
-0.0362913
-0.0435329
0.0825896
-0.23632
0.389271
-0.3638
-0.1366
-0.0423475
0.105188
-0.00815373
-0.436033
-0.120002
-0.307809
-0.350453
-0.378142
-0.0255638
-0.184864
-0.0641225
-0.27464
-0.1621
-0.437284
-0.169355
-0.197702
0.0530054
-0.237748
-0.428769
0.44006
-0.312883
-0.406552
-0.180147
-0.246335
-0.123575
-0.348644
-0.0697523
-0.241304
-0.380878
0.267035
0.0230521
-0.201099
-0.18815
-0.0817058
-0.06663
-0.424264
0.0220305
-0.279724
-0.163405
-0.248318
0.339446
-0.109837
0.00735074
0.232747
-0.240514
0.00942754
-0.188141
0.452891
-0.342418
0.0614185
-0.305977
-0.00619406
-0.425052
-0.0632619
-0.24443
-0.0639427
-0.149229
-0.0239031
-0.419433
0.386242
-0.171342
-0.437062
-0.257376
0.0254418
-0.290892
-0.35446
-0.370187
-0.420904
-0.434282
0.0267722
-0.0315075
0.43466
0.0278127
-0.384231
-0.222104
0.11708
-0.437092
-0.141454
0.121628
-0.265879
-0.0920958
-0.262826
-0.435404
0.085744
-0.133463
-0.164942
-0.0779592
-0.0257409
-0.0672164
0.0528117
-0.0412469
0.0155464
-0.327134
0.0142208
-0.0488242
-0.0746063
-0.0130003
-0.0733059
0.0126199
-0.229277
-0.279807
-0.218423
-0.0357367
0.372702
-0.34284
-0.051119
-0.436204
-0.0204477
-0.076521
-0.150006
0.101252
-0.374491
-0.430069
0.19284
-0.0700317
-0.363718
-0.259356
-0.306622
-0.0810215
-0.142489
-0.428087
-0.363002
-0.422897
-0.0580706
0.365314
-0.433209
-0.0275218
0.175649
-0.0744903
0.109562
-0.236235
-0.385391
-0.403688
-0.045742
-0.347683
-0.171475
-0.0364406
-0.112129
-0.0378994
-0.0245013
-0.129113
-0.0447891
-0.405181
-0.140776
-0.436829
-0.251649
0.0141748
-0.0122623
-0.0115301
-0.251664
-0.00179394
-0.368555
-0.319792
-0.0319195
-0.0443787
-0.17735
-0.268316
-0.265698
-0.082305
-0.249554
0.0378246
-0.0684305
-0.203981
-0.0498651
-0.0434692
-0.148008
-0.0136937
-0.379464
-0.217056
-0.0439209
0.0807731
-0.170465
-0.0385763
-0.434231
-0.100837
0.0044663
-0.143384
-0.0381933
0.208041
-0.0504235
-0.181822
-0.0676016
0.129625
-0.0925545
-0.154462
-0.0427267
-0.424685
-0.437541
-0.105848
-0.0112747
-0.393924
-0.2313
-0.302506
-0.227574
-0.077329
-0.0522551
-0.00845737
-0.258849
-0.254699
0.334864
-0.237079
-0.149148
-0.12046
-0.185902
-0.012907
-0.161847
-0.0322352
-0.182216
0.0263052
-0.0149937
-0.0758553
0.00499622
-0.230752
0.133958
-0.269722
-0.302361
-0.150514
-0.429821
-0.0616222
-0.0884532
-0.0356477
-0.39232
-0.0627766
-0.0571834
-0.0249612
-0.152916
-0.173531
-0.178767
-0.246104
-0.263807
-0.436897
-0.0352124
0.240193
0.204925
-0.436988
-0.232357
0.0242326
-0.0163729
-0.205345
0.0295277
0.111474
-0.0513359
-0.120128
-0.110463
-0.432884
-0.0344554
0.00292131
-0.391847
-0.428252
-0.160291
-0.0604945
0.00629472
-0.19835
-0.346816
-0.148693
-0.265466
-0.0933199
0.101031
0.228819
-0.173289
0.0970123
-0.184293
-0.308532
0.0244003
-0.309651
-0.195619
0.381686
-0.195013
-0.209769
-0.432315
-0.425251
-0.129488
-0.317448
-0.00774373
-0.099206
-0.293638
-0.147253
-0.207224
0.017904
-0.244992
-0.320997
-0.298922
-0.226405
-0.165146
-0.0705972
-0.296594
-0.426577
0.0621439
-0.36704
-0.131499
0.0703608
-0.438675
-0.130176
-0.397644
0.159644
0.487555
-0.300425
-0.408022
-0.116367
-0.436079
-0.0530566
0.00111979
-0.165945
-0.075538
-0.0190704
-0.0057451
-0.147167
-0.232904
-0.169413
-0.431428
-0.411737
0.253937
0.0288583
-0.323095
-0.131185
0.0463012
-0.382828
-0.232601
-0.0154007
-0.0539952
0.134174
0.105534
-0.129862
-0.408129
-0.264057
-0.293748
-0.0674116
-0.236754
-0.071873
-0.145535
-0.421568
-0.0407576
-0.0105931
-0.130406
-0.0377301
-0.321111
-0.304229
-0.0868747
-0.0393398
-0.11702
-0.0164907
-0.0774547
-0.310893
-0.0502329
-0.259609
-0.328316
-0.00737541
-0.316556
-0.0751087
-0.171438
-0.340276
-0.294338
-0.370154
-0.234855
-0.17016
-0.424335
-0.0221037
-0.437346
0.0518193
0.0862785
0.0900916
0.188564
-0.226672
0.150322
-0.346206
-0.28311
0.0154801
-0.299868
-0.437326
0.0263315
-0.240373
-0.0422978
-0.377983
0.468602
-0.285491
-0.176249
-0.438215
-0.144292
-0.196943
-0.264314
0.0684329
-0.242207
-0.425511
-0.436485
-0.0217717
0.0436595
0.06539
-0.333426
-0.0723806
-0.24164
-0.0408843
-0.0467249
-0.030724
-0.281707
-0.0334664
0.00323008
0.159724
-0.303969
-0.0416843
0.0234808
0.349151
-0.00581667
-0.146068
-0.250696
-0.0116641
-0.392467
-0.256386
-0.177391
-0.412725
-0.188289
-0.239618
-0.371157
-0.00763398
-0.0782279
-0.20567
-0.00928081
-0.389729
-0.367234
0.0831161
-0.018255
-0.431312
-0.396672
-0.235313
-0.260048
-0.0259985
-0.376056
-0.235211
0.0012517
-0.386329
-0.363317
-0.413398
-0.425645
-0.0372451
-0.0652648
0.0258139
0.0308942
-0.0796982
-0.0110171
-0.217499
-0.178115
-0.383189
0.0502979
-0.0744366
-0.0391293
0.0184457
-0.435233
0.132259
-0.422664
-0.262864
-0.0718818
-0.0510413
-0.252541
0.490411
-0.365168
-0.125913
-0.254739
-0.227334
-0.188299
-0.0891508
-0.0434229
-0.399009
-0.014751
-0.409309
-0.267108
-0.437121
-0.338426
-0.437842
-0.0557401
-0.340548
0.0382721
-0.176131
-0.434468
-0.403112
-0.26131
0.0667058
-0.192911
-0.310702
-0.00183046
-0.404986
-0.248098
-0.371087
-0.436356
-0.400627
-0.0904173
-0.330049
-0.151134
-0.11055
-0.129297
-0.25485
-0.00536973
0.405412
0.0245801
-0.171518
-0.371488
0.0282102
-0.377617
-0.433036
-0.0525785
-0.0384047
-0.0559647
-0.239988
-0.383629
-0.0881732
-0.261434
-0.100941
-0.167194
-0.252543
-0.177133
-0.178273
-0.148399
-0.277513
-0.261038
-0.42237
0.104183
-0.315915
-0.349542
-0.185841
-0.0404409
-0.189883
-0.204098
-0.307345
-0.184853
-0.0132082
-0.00509063
0.279084
-0.0558811
-0.297079
-0.0401611
-0.244438
0.079457
-0.390908
-0.425057
-0.254622
-0.32069
-0.391255
-0.0422048
-0.0676843
-0.125868
-0.38588
0.00457836
0.10043
-0.414377
-0.428383
-0.402706
-0.184684
0.0264525
-0.186552
-0.185746
-0.220119
-0.420926
-0.257703
-0.185181
-0.285416
-0.303654
-0.436419
-0.0357052
-0.0592884
-0.0154409
-0.153301
-0.426757
-0.0272874
-0.0905121
-0.297795
-0.352106
-0.170553
-0.306738
0.480112
-0.256836
-0.299771
0.391556
-0.029556
-0.369317
-0.233585
-0.436901
-0.0746747
-0.275862
-0.0812977
-0.435052
-0.213514
0.384392
-0.314799
-0.164826
-0.432278
-0.312188
-0.176178
-0.424143
-0.436093
0.00613032
-0.357466
-0.347186
0.111043
-0.235237
-0.0735767
0.0878023
0.0816939
-0.363797
-0.154027
0.106924
-0.17562
-0.00455377
0.130348
-0.393629
-0.438459
-0.344435
-0.249177
-0.0886606
-0.170202
-0.2944
0.0612841
-0.0121702
-0.424474
-0.281038
-0.298757
-0.360589
-0.094032
-0.319483
-0.114575
-0.164912
-0.0914601
0.106687
-0.404796
-0.327433
-0.246717
0.511895
-0.261656
-0.0962969
-0.432099
-0.283555
-0.337885
-0.247341
-0.0537695
-0.00456129
-0.138763
-0.290814
-0.0323605
-0.0762565
-0.231192
0.00285154
-0.396204
-0.0309323
-0.00362809
-0.0442568
-0.0134775
-0.380172
-0.185552
0.00333784
-0.0709111
-0.0908856
-0.243858
-0.199356
-0.418989
0.165132
-0.406911
-0.0163444
-0.415674
-0.13259
-0.199011
-0.329193
0.0179589
-0.0444083
-0.0433876
-0.0300674
-0.436051
-0.0683103
-0.0357214
-0.39101
0.468034
0.00533381
-0.0805864
-0.0550585
0.317316
0.44736
-0.412552
0.361935
-0.355384
-0.194351
-0.377727
-0.304196
0.047366
-0.0295091
-0.271758
-0.290297
-0.43719
0.00963283
-0.384535
-0.320528
-0.140055
-0.381914
-0.376891
-0.155035
-0.0668584
-0.435668
-0.200135
-0.073466
-0.0904974
-0.0304598
-0.332836
-0.207488
0.458593
-0.40924
0.50353
-0.0891536
-0.368188
0.0351808
-0.204509
-0.0373024
-0.201444
0.376514
-0.437105
-0.40776
-0.015765
-0.125632
0.102838
-0.196881
-0.065435
-0.218726
-0.413352
-0.141152
-0.246322
-0.0900453
-0.0163445
-0.265051
-0.36314
0.115566
0.383858
-0.144815
0.0163128
-0.190717
-0.400701
-0.14807
-0.34356
-0.177529
0.444739
-0.0349455
-0.276711
-0.0404207
-0.143535
0.00758859
-0.0421495
-0.0923653
-0.402682
0.13945
-0.364029
-0.436769
-0.219032
-0.162053
0.487374
-0.385071
-0.0301103
-0.220634
-0.165326
-0.0395121
0.0135128
-0.148656
-0.278639
0.0831298
0.194834
0.284723
-0.405011
-0.359072
0.103364
-0.233133
-0.321399
-0.0650537
0.502679
-0.096042
-0.440257
-0.147694
0.462114
-0.117308
0.448372
-0.145563
0.0125747
-0.0669177
-0.0904646
-0.180697
0.0624431
-0.105205
-0.258955
-0.286133
-0.277881
0.181317
-0.385705
-0.15342
0.117339
-0.320795
-0.391139
0.0826445
-0.395943
-0.402243
-0.22681
-0.261161
-0.164165
-0.390371
-0.391982
-0.161471
-0.13724
-0.12551
-0.262314
-0.396117
-0.292433
-0.380771
-0.397561
-0.399511
-0.00176932
-0.417504
-0.193001
-0.422523
-0.115779
-0.0237109
-0.169408
0.457236
-0.375992
-0.325906
-0.339654
0.2287
0.482602
0.224341
-0.112345
-0.0704822
-0.0637325
-0.116723
-0.178415
0.445499
-0.38651
-0.369751
-0.435246
-0.0162423
0.0311736
-0.114719
-0.142308
0.0179164
-0.376923
0.187965
-0.251807
-0.414548
-0.0244913
-0.192827
-0.386087
-0.185199
-0.0256311
-0.203382
-0.208571
-0.414084
-0.118489
-0.129102
-0.216945
-0.147404
-0.196123
-0.268461
-0.133754
-0.185147
-0.357862
-0.21932
-0.23346
0.213498
-0.00930517
-0.00966281
-0.314613
-0.212082
-0.37527
0.0124731
-0.344873
-0.213962
-0.370836
-0.0692342
-0.319874
-0.262214
-0.269205
0.440523
-0.236715
-0.240418
-0.0462547
-0.291028
-0.329902
-0.0125274
-0.357534
-0.247879
-0.276343
-0.233813
-0.298156
-0.0208016
0.0220046
-0.238118
-0.260776
-0.256433
-0.192345
-0.112453
-0.415537
-0.152271
-0.393561
-0.245532
-0.36404
-0.237036
-0.252791
-0.328955
-0.354302
-0.226385
-0.0481226
-0.254844
-0.346495
-0.136396
-0.35167
-0.0883878
-0.265687
-0.267322
-0.157393
-0.347136
0.135308
-0.00734947
-0.112839
-0.24575
-0.334198
-0.252742
-0.327122
-0.268771
0.0271121
-0.26121
-0.0599392
0.116906
-0.400928
0.0848178
-0.19716
-0.311575
-0.316321
-0.062177
-0.421661
-0.310466
-0.283585
-0.294277
-0.338253
0.0738244
-0.285646
-0.297333
-0.107182
0.104949
-0.0496637
-0.156162
0.0151776
-0.238439
-0.268942
-0.0664672
-0.322257
-0.154764
-0.148762
0.0856603
-0.150913
-0.147105
-0.126554
0.0154622
0.026253
-0.113735
0.23905
-0.283716
-0.142482
0.430527
-0.133686
0.0167327
0.213721
-0.327636
-0.381808
-0.0424131
0.440682
0.228014
-0.260889
-0.173457
-0.230572
-0.3487
-0.0784359
0.00251797
-0.160652
-0.435032
-0.308518
0.499149
-0.347725
-0.167027
-0.432889
0.0424278
-0.422589
-0.126692
-0.0900301
-0.259641
-0.421934
-0.437355
-0.399572
0.0346544
-0.142792
-0.0776314
-0.0452598
-0.139353
0.00415117
-0.202703
0.513209
0.0663931
-0.235518
-0.307359
-0.39836
-0.110791
-0.197102
-0.416615
-0.120924
-0.165146
-0.0454866
-0.184406
-0.172388
-0.307647
-0.141925
-0.438027
-0.225989
-0.235545
-0.340115
0.093739
-0.113455
-0.149225
0.00482436
-0.225954
0.480959
-0.22484
0.12575
-0.109503
-0.219868
-0.338654
-0.0475902
0.172784
-0.297529
-0.0659002
-0.18954
0.0213294
-0.0308525
-0.0341024
-0.435145
-0.287057
0.00318057
0.239202
0.210997
-0.257356
-0.13901
0.417272
-0.200401
-0.25471
-0.0987911
-0.182208
-0.427485
0.30284
-0.16612
-0.127993
-0.0430934
0.080476
0.49961
-0.0599758
-0.419646
-0.143136
0.141358
0.204148
-0.168863
-0.0143285
-0.228967
0.00620894
-0.408233
-0.0457742
-0.160421
-0.118792
-0.20463
-0.0291457
0.0137732
-0.00209935
-0.112196
-0.267378
-0.0596556
0.0278889
0.462324
0.0459164
-0.277322
-0.0698633
-0.017525
-0.437427
-0.43852
-0.00552371
0.0781437
-0.2408
0.137268
0.266162
-0.146966
-0.192118
-0.4357
-0.168543
-0.416186
-0.28858
-0.0462653
-0.293428
-0.0285714
0.0278673
0.0195783
0.315357
-0.19441
-0.341443
0.334013
-0.0481157
-0.15791
-0.0997745
-0.364082
-0.39693
-0.074646
0.0489947
-0.436761
-0.238021
0.0070988
0.478182
-0.0402607
0.0347739
-0.430278
-0.0335621
-0.231306
-0.294405
-0.168528
-0.1879
-0.190945
-0.41238
0.205753
-0.366417
-0.320011
-0.107796
-0.207577
-0.426626
0.428504
-0.43448
-0.412467
0.0247246
-0.296892
-0.0437986
-0.240023
-0.290147
0.0161414
-0.405971
-0.0225921
-0.014209
0.0558617
-0.0504409
-0.0418216
-0.308858
-0.138431
-0.0407316
-0.0484249
-0.0899622
0.0152309
-0.434229
-0.19114
-0.420227
-0.263483
-0.390756
-0.385165
-0.0653636
0.184026
-0.255607
0.405114
-0.398266
-0.174511
-0.0417612
-0.279198
-0.164561
-0.411535
0.499643
-0.126835
-0.0136402
-0.118966
-0.170629
-0.04208
-0.0433996
-0.360115
-0.177965
-0.377187
-0.251547
-0.036281
0.494947
-0.278181
-0.0601328
-0.42105
-0.392302
0.0145026
-0.131564
-0.0952009
-0.197758
-0.318696
-0.258563
-0.00348996
0.0328032
0.481541
-0.108687
-0.0901807
0.0439981
-0.212986
-0.127261
0.0465479
-0.296045
-0.149137
0.0814583
-0.249185
0.101082
-0.0323856
-0.357228
0.0136677
-0.383288
-0.200142
-0.151797
-0.178723
-0.0368538
-0.437597
-0.358745
-0.0685722
0.168564
-0.21576
-0.084863
-0.027738
0.0160033