/*--------------------------------*- C++ -*----------------------------------*\
| =========                 |                                                 |
| \\      /  F ield         | OpenFOAM: The Open Source CFD Toolbox           |
|  \\    /   O peration     | Version:  v2012                                 |
|   \\  /    A nd           | Website:  www.openfoam.com                      |
|    \\/     M anipulation  |                                                 |
\*---------------------------------------------------------------------------*/
FoamFile
{
    version     2.0;
    format      ascii;
    class       surfaceScalarField;
    location    "300";
    object      phi_0;
}
// * * * * * * * * * * * * * * * * * * * * * * * * * * * * * * * * * * * * * //

dimensions      [0 3 -1 0 0 0 0];
oriented        oriented;


internalField   nonuniform List<scalar> 
22717
(
-0.00178306
-0.0111977
0.0129808
0.000527398
0.107715
-0.108243
-0.0158089
0.0177751
-0.00196618
-0.129489
0.172232
-0.0427429
0.00887581
-0.00876081
-0.000115003
-0.334607
0.0064961
0.328111
0.178406
-0.0368405
-0.141566
0.151064
-0.0823096
-0.0687549
-0.223507
0.0234074
0.200099
-0.0133751
0.0115921
-0.0157831
-2.58534e-05
-0.130275
-0.216126
0.0019015
0.00697431
-0.000451455
0.00264385
-0.00219239
0.000129174
-0.0312922
0.031163
0.111108
-0.10338
-0.00772778
-0.600227
0.0123217
-0.0101236
-0.00219814
0.283798
-0.446971
0.163173
-0.00860302
0.00892119
-0.000318171
0.00343821
-0.000246215
-0.003192
0.00453615
-0.00109793
0.104876
0.0735301
-0.417848
0.52522
-0.107372
-0.168876
0.107848
0.0610286
-0.153279
0.0697008
0.0835777
0.0154586
-0.0154586
-0.117294
-0.0359848
0.00452844
-0.00334113
-0.00118732
-0.254872
0.0755104
0.179361
0.0166617
-0.0166617
-0.0316378
0.0393201
-0.00768233
-0.64891
0.45442
-0.042678
-0.280864
0.323542
-0.287219
0.467621
-0.180402
0.140004
-0.126935
-0.0130692
0.0857942
0.0542096
0.0311547
0.0595968
-0.0907515
-0.00814798
0.00836229
-0.000214313
-0.102822
-0.00220718
0.105029
0.12302
0.00481213
-0.127832
-0.107973
-0.00283695
0.11081
-0.229922
0.363825
-0.133903
0.279908
-0.232434
-0.0474741
-0.0151417
0.000256955
0.0148848
-0.106701
-0.30493
0.411631
-0.0111223
0.0128894
-0.00176713
0.00310517
-0.0337475
0.0306424
-0.00104599
0.00059454
0.218294
0.0197259
-0.238019
-0.572635
0.154786
0.0256804
0.00396964
-0.0296501
0.107609
0.00349912
-0.288324
-0.129788
0.37887
-0.249081
-0.175802
0.17739
-0.00158874
-0.0508294
0.0882257
-0.0373963
-0.00444091
0.0301214
-0.000303518
-0.00825051
0.00855403
0.0152235
-0.0157207
0.000497205
-0.00155077
-0.00309002
0.00464078
0.0264578
-0.0233526
-0.00903173
0.13664
-0.127608
-0.198547
0.060558
0.137989
-0.162723
0.426293
-0.26357
0.238935
-0.36921
0.116368
-0.103156
-0.0132113
-0.0386961
0.00705828
-0.107983
-0.313607
0.42159
0.0137818
-0.479633
0.465852
0.259924
-0.0768327
-0.183091
0.227039
0.035719
-0.262758
-0.0616972
-0.107179
0.00357352
-0.00167947
-0.00189405
-0.0826368
0.101454
-0.0188171
0.00497702
-0.00674225
0.00176524
0.123746
-0.00072623
-0.0078864
-0.126114
0.134
0.0246812
0.0161852
-0.0408664
-0.361159
-0.160445
0.521604
-0.00754741
0.000335499
0.00721191
0.0116462
-0.0116462
-0.00884705
-0.000753893
0.00960094
0.145392
-0.148376
0.00298381
0.00677103
0.00989063
0.500657
-0.607359
-0.222216
0.506014
-0.0172785
-0.188331
0.20561
-0.119268
-0.0126883
0.131957
0.0053916
-0.00768179
0.00229019
-0.162331
0.183749
-0.0214177
-0.294443
0.400608
-0.106165
0.0276774
-0.0356007
0.00792332
-0.00865244
0.00834893
-0.229526
-0.072339
0.301865
0.634737
-0.469064
-0.165673
-0.244367
0.209387
0.0349801
0.287779
0.229555
-0.517334
0.257925
-0.619084
0.206279
-0.436201
0.00680777
-0.00183075
-0.130902
0.135898
-0.00499621
0.189708
-0.192263
0.00255473
-0.0482677
-0.285848
0.334116
-0.23286
0.00935357
-0.405878
0.27609
0.112573
-0.0119948
-0.100579
-0.00142533
-0.0121327
0.013558
0.17758
-0.118267
-0.0593132
-0.00186149
0.00136824
0.000493255
-0.135226
-0.00536179
0.140588
-0.253442
-0.211516
0.464958
0.133667
-0.349793
-0.0706445
-0.0327354
-0.224129
0.20685
0.10427
0.155654
-0.00962272
0.0373001
0.00785934
-0.00246774
-0.116379
0.00840577
0.0058076
0.00167417
-0.00748176
-0.100524
0.1047
-0.00417655
0.00296176
-0.000991267
-0.00197049
-0.0532126
0.0733602
-0.0201476
-0.155944
0.390684
-0.23474
0.103019
-0.36136
0.258341
-0.0837845
0.0329551
0.369734
-0.611852
0.242118
-0.00434587
-0.179358
-0.187486
0.366844
0.00909189
-0.0103451
0.00125325
-0.0138976
-0.00124412
-0.5404
0.514757
0.0256437
-0.0911053
0.105573
-0.0144681
0.13071
-0.138597
-0.51251
0.642123
-0.129613
-0.00963212
0.000785079
0.0125817
-0.00805328
-0.10971
0.100678
0.0825201
0.0685444
-0.167203
0.00487183
-0.133887
0.0146184
-0.144363
0.142561
0.00180229
-0.0293268
-0.570901
0.00119432
0.00148223
-0.00267655
0.0649594
-0.0338047
0.00131319
0.00226033
0.0032137
-0.0032137
-0.140734
0.0967461
0.0439877
0.00111032
-0.00852225
0.00741194
-0.305935
0.0461614
0.259773
0.036704
-0.0357509
-0.000953043
-0.263955
0.366975
-0.301678
0.0721522
-0.00489946
0.00400284
0.000896619
0.503327
0.157029
-0.660356
0.0158845
-0.0126369
-0.00324761
0.000160829
-0.00830881
-0.0207129
0.0170903
0.00362259
0.0473798
-0.0496977
0.00231791
0.0135212
0.489806
0.145348
-0.00842624
-0.136922
-0.0713871
0.0181745
-0.146266
0.197772
-0.0515059
-0.0071836
0.00818869
-0.00100509
0.0100679
-0.0126064
0.00253848
0.01202
-0.00195216
0.410434
-0.525049
0.114615
0.0447423
-0.00719407
-0.0375482
-0.00667571
-0.00444659
-0.0230828
0.0921166
-0.0690338
-0.11802
0.0473754
0.00737387
-0.0100223
0.00264848
0.0285001
0.0493792
-0.0778792
-0.0438347
0.153155
-0.109321
0.213118
-0.373563
-0.682684
0.372833
0.309851
-0.0698323
-0.00634583
0.0761781
-0.0570935
0.0340107
-0.00126716
-0.0992568
0.0732979
-0.117133
0.0447423
0.0016316
-0.00318237
0.194773
-0.223817
0.0290442
-0.0120062
0.206779
0.00107191
-0.00903769
0.00796579
-0.0114271
-0.213377
0.224804
-0.162275
0.0327863
0.00128229
0.0102196
-0.00112774
0.0128027
-0.0166565
0.00385385
-0.132617
0.102783
0.0298345
0.278375
-0.0344734
-0.243902
-0.172853
0.111155
0.0161062
-0.119071
0.102965
-0.0029785
0.00364362
-0.000665126
-0.437269
0.480057
-0.0427872
0.0140266
-0.0132353
-0.000791371
-0.105793
0.380131
-0.274338
0.00615907
-0.00425757
-0.0768465
-0.167521
-0.105347
0.0142417
0.123791
0.0171289
-0.14092
-0.0131672
0.0167322
-0.00356495
-0.0159556
0.0166794
-0.000723804
0.0187314
-0.145924
0.127193
-0.376303
-0.30638
0.0721373
-0.00179968
-0.0703376
-0.149967
0.0480343
0.101933
0.01354
-0.193358
0.179818
0.0140161
-0.163953
0.149937
0.169928
-0.383535
0.213607
-0.0033781
-0.00152135
-0.0300472
-0.224824
-0.065672
-0.0322369
0.0979089
0.0240002
0.0481371
-0.00055959
-0.00159142
0.0382954
-0.158371
0.180234
-0.0218633
-0.0248498
0.00423335
0.0206165
-0.426129
0.270185
0.298509
0.188813
-0.487322
-0.217673
0.0200123
0.19766
-0.369975
0.292569
0.0774056
-0.103805
0.132409
-0.028604
0.112159
-0.139707
0.0275484
0.359763
-0.459821
0.100058
0.00906268
-0.00906268
0.171608
-0.198822
0.0272145
-0.0789596
0.0814372
-0.00247758
0.182552
-0.448834
0.266282
0.450081
0.0900386
-0.540119
-0.000489584
-0.000556411
-0.0240396
0.00505303
0.0189866
-0.000954198
0.115865
-0.16042
0.0445546
-0.0995547
-0.162581
0.00421038
-0.647934
0.429839
0.218094
0.0827795
-0.0666734
-0.012634
0.00969319
0.00294079
0.0899725
0.087608
-0.00220763
0.00121636
-0.204439
0.191758
0.0126818
-0.0165119
0.00334464
-0.267306
0.565969
-0.298663
0.142927
0.160224
-0.303152
-0.0037092
0.0332156
-0.0312151
-0.00200043
0.0336561
-0.000440529
-0.0184174
0.00246176
-0.012585
0.0131618
-0.000576796
-0.507762
-0.0326385
-0.1622
-0.201223
0.0549566
-0.0128286
0.0133252
-0.000496638
-0.172152
0.00494951
-0.00869572
0.0102382
-0.00154245
-0.447033
0.460815
-0.0989764
0.117708
-0.0144416
0.0144416
0.340058
0.223758
-0.563816
-0.478483
0.129304
0.349179
0.0437063
-0.378314
-0.336094
0.228112
-0.503083
0.0425896
0.460493
-0.0061546
0.0535344
0.0074047
-0.00674691
-0.000657794
0.00117869
-0.205655
0.362426
-0.156771
0.0441745
-0.0440453
-0.00862791
0.00969982
0.000139333
0.00726537
0.473629
-0.291077
-0.0039922
0.0051781
-0.0011859
0.171628
0.0695212
-0.24115
0.34131
-0.281376
-0.0599346
0.0187495
0.114717
-0.133467
-0.0393949
-0.159152
-0.0296149
0.00264385
-0.00499213
-0.00197533
0.00696747
-0.388261
-0.0329595
0.42122
-0.163259
-0.00889352
0.26674
-0.263349
-0.00339124
-0.0058222
0.00693252
0.0137708
0.00211369
-0.307881
-0.00975448
0.317635
-0.26213
0.205807
0.056323
0.390157
-0.241033
-0.149124
0.0114452
0.00057483
0.0380468
-0.33249
-0.0154862
-0.0880046
0.103491
-0.0325331
-0.0771924
0.109725
-0.273981
0.109983
0.163998
-0.0224239
-0.367336
-0.111147
0.0144679
-0.125709
0.111241
-0.380415
0.0931962
-0.0102787
0.00158298
0.314642
0.0760417
-0.00852413
-0.00410985
0.169539
-0.11486
-0.0546793
0.0684636
-0.0776086
0.00914499
0.469921
0.076473
-0.546394
-0.00807998
0.0327612
0.011224
0.000221178
-0.275101
-0.0803298
0.0889912
-0.0086614
-0.0453316
0.180699
-0.135368
0.0088566
-0.00964818
0.000791576
-0.331724
-0.0170367
0.348761
0.142625
0.0027673
0.00829432
0.064945
-0.0732394
-0.0864983
0.00616858
0.438414
-0.147579
-0.290836
0.116715
0.204913
-0.321627
0.00443004
-0.00551134
0.00108131
0.099762
-0.128169
0.0284065
-0.0280161
0.00397643
-0.118322
-0.0142955
-0.355977
0.193254
0.00981213
-0.00981213
-0.00402408
0.00231267
0.00171142
0.0328734
0.175007
-0.20788
-0.00471874
0.00134064
0.0101763
-0.000309452
-0.00986686
-0.0733467
-0.00561293
0.076119
0.19563
-0.271749
-0.112537
-0.193398
-0.30614
0.564065
0.100217
0.0693219
-0.273768
0.207379
0.0663892
0.0786822
-0.111235
0.0325527
-0.0624699
0.0999681
-0.0374982
-0.000286341
-0.130616
0.142416
-0.0186247
0.000713364
-0.00470557
0.00651592
0.0089427
-0.0141724
0.0154344
-0.001262
-0.0353673
-0.140434
-0.149771
0.141507
0.00826384
0.390901
0.165861
-0.556762
-0.138658
-0.011113
-0.269638
0.0775854
0.192052
0.107593
-0.152925
-0.310467
0.267789
0.122607
-0.127078
0.00447154
0.570353
-0.193834
-0.376518
-0.0018742
0.00377791
-0.00258359
0.0107009
-0.00184435
-0.0375638
0.264603
0.0528931
0.0392234
0.0158366
-0.0165331
0.000696525
-0.0901062
0.388615
-0.000376127
0.116127
-0.115751
-0.169315
0.184684
-0.0153691
-0.136964
0.191222
-0.0542578
-0.153051
0.157869
-0.00481798
-0.0876366
-0.220244
0.141183
-0.179687
0.0385035
0.258564
0.00817669
-0.06868
0.0898466
-0.0211666
-0.138402
-0.0115648
0.010755
-0.00953381
-0.0105957
-0.0101172
0.178135
-0.0369518
0.284307
-0.276374
-0.0079335
0.674405
-0.247617
-0.426788
0.0758216
-0.00735805
-0.0185427
0.236836
0.172795
-0.183883
0.0110879
0.0357761
-0.0369123
0.00113624
0.262542
0.175872
0.111872
0.0332904
-0.0400383
0.00674787
-0.135133
-0.234842
-0.0229533
-0.0415342
0.0644875
-0.002673
-0.00204574
-0.0778423
0.468743
-0.0746888
-0.199293
-0.0106462
0.011273
-0.000626802
0.076766
0.0396015
0.194621
-0.206048
0.258901
0.214728
-0.142993
0.00776738
0.084258
-0.0557579
0.0996777
0.0135129
-0.113191
0.000129017
0.367326
0.0986092
-0.465935
0.227078
-0.0554495
0.49161
-0.232709
0.117953
-0.0182756
0.0962021
-0.091496
-0.00470604
-0.0961618
0.127545
-0.0313834
0.125956
-0.00334917
-0.298429
0.220568
0.0778614
0.131556
-0.0899731
-0.0415832
0.0104066
-0.0133825
0.00297592
-0.145285
-0.00776556
-0.166002
0.0207165
0.00226897
-0.00708128
0.00481231
-0.216398
0.292517
-0.0514242
-0.23694
0.288364
0.141631
0.0162376
0.0673009
-0.0928414
0.0255405
-0.0373523
0.025617
0.0117353
0.0835664
-0.0344041
-0.0491623
0.0839285
-0.116462
0.140369
0.00225584
0.00694604
0.0135653
-0.000635632
-0.00122586
-0.114306
0.131024
-0.0167178
0.00716445
-0.00273441
-0.00250246
-0.00152162
-0.304245
0.044513
0.259732
0.0421844
-0.00529552
-0.0368888
-0.00613392
-0.138229
0.180345
-0.0289545
-0.151391
-0.016676
0.016401
0.000274948
0.00352791
0.329807
0.119882
-0.13257
-0.10101
0.0487779
0.0522325
0.135028
0.00647932
0.00648902
-0.00637212
-0.000116902
-0.269239
0.270608
-0.00136955
-0.014289
0.014289
0.00179579
0.00970982
-0.0115056
0.0968614
-0.113821
0.0169591
0.010441
0.0040964
-0.0145374
0.0030113
-0.0120065
0.00899522
0.000793895
-0.000272635
-0.00052126
-0.030788
-0.109946
-0.012132
0.0108019
0.00133013
-0.0176307
-4.53977e-05
0.0176761
0.480935
-0.0463924
-0.434542
0.225779
-0.405137
0.0990242
0.026211
-0.125235
-0.00907152
-0.000194429
0.00926595
0.167773
-0.43562
0.267847
0.118295
-0.0396133
0.00309962
0.172402
-0.175502
0.0117212
-0.0827809
0.0710598
-0.00721045
-0.00139257
0.154006
-0.0189784
-0.166956
0.00437516
0.0827475
-0.0998898
0.0171423
-0.00258078
-0.0839198
0.0152398
0.14594
-0.0300747
-0.210091
0.229817
0.00416061
-0.0132608
0.0091002
-0.00406021
0.00822081
-0.212393
-0.112959
0.325352
0.00292802
0.00160813
-0.00158361
-0.000624017
-0.157636
-0.00932073
-0.00243882
-0.0293261
0.119149
-0.0898228
0.021318
-0.12414
0.0133787
-0.00297208
-0.189973
0.0530086
-0.187438
0.220312
-0.210209
-0.0166985
0.226908
0.246447
-0.352239
-0.129788
0.0389082
0.0908799
0.064423
-0.0561287
0.00944031
-0.125277
0.125804
-0.105514
0.00235745
0.32196
0.045366
-0.577959
0.338686
0.239273
-0.349004
0.0172801
0.00198507
0.0071161
-0.00910117
0.0384988
-0.00520835
-0.00908599
0.00943276
-0.00034677
-0.00479546
0.00678053
-0.136265
0.0324605
-0.013726
0.0137765
-5.05018e-05
0.206399
-0.231522
0.025123
-0.00857609
0.00102868
-0.272902
0.0107723
0.386286
-0.461142
0.0748563
0.554484
-0.296665
-0.257819
-0.00430531
0.0835634
-0.0792581
0.257579
0.230507
-0.488085
0.00449773
-0.00204219
-0.00245554
-0.572797
0.302598
0.270199
0.0442236
-0.211537
0.167314
-0.512617
0.0924418
0.420175
-0.0618887
-0.0391217
0.0382427
0.0594302
-0.0976729
-0.581551
0.275411
-0.162163
-0.136266
0.14055
0.0752677
0.105078
0.0415092
0.117152
-0.158662
0.000772567
0.00571645
0.241134
-0.318077
0.0769427
-0.110809
-0.113709
0.0145694
-0.00412841
0.00119371
-0.197952
0.196758
-0.203755
0.420758
-0.217003
3.44344e-06
0.212892
0.0802787
-0.293171
-0.0295445
0.141203
-0.111659
0.0725899
-0.00528896
0.35124
0.323165
0.497087
0.016477
-0.0162209
-0.00025611
0.125931
-0.0111797
-0.114752
-0.0143622
-0.0992921
0.113654
0.220441
0.0770983
-0.297539
-0.114463
0.13787
-0.17168
-0.197042
0.368722
-0.0493626
-0.00773083
-0.076652
0.0818001
-0.00514806
0.618894
-0.349647
-0.269247
0.00115218
-0.0665735
-0.0258623
0.0924358
0.00340131
-0.00176971
0.00598682
0.000820943
0.214758
-0.316621
0.101863
0.063323
-0.0676283
0.0256193
-0.0318812
0.00626196
0.00134073
0.00757039
-0.00891112
-0.016482
-0.00114873
0.249851
-0.0434515
-0.00930548
-0.0246245
0.0339299
0.0630064
0.0685499
-0.0189437
0.118706
-0.00351976
0.00276352
-0.00300973
-0.0133728
0.0124186
-0.00548894
0.00530088
0.000188056
0.0048438
-0.00336048
-0.00148332
0.00131699
-0.00440701
0.0431035
0.267567
-0.266373
0.25689
-0.252845
-0.00404468
-0.0151712
0.177739
-0.162568
0.541614
0.0383132
-0.579927
-0.102446
0.123764
-0.158363
0.160842
-0.00247862
0.012962
-0.000664209
0.11835
-0.148477
0.0301264
0.149613
-0.141881
-0.00773232
0.104611
-0.133938
-0.0354523
0.00423719
-0.015646
-0.00266969
0.0183157
0.0062308
-0.00189785
-0.00433295
-0.12966
0.115241
0.0144196
-0.107136
0.041464
-0.331763
-0.246196
0.280087
-0.273257
-0.00682991
-0.022148
-0.007118
-0.154605
0.161723
-0.0285501
-0.00690227
-0.37124
0.0962617
0.274978
0.221846
0.00997928
-0.231826
-0.136914
-0.000827671
0.137742
0.00379613
-0.0175221
-0.103911
0.111471
-0.00756006
-0.00115301
-0.00652925
0.00768226
0.0177398
0.105827
-0.123567
0.0069449
-0.000939957
-0.00600495
0.245971
0.22165
-0.237568
-0.0362002
0.467941
-0.145495
-0.0167807
0.00274475
0.00341432
-0.170799
0.155628
0.00347944
-0.0283293
0.218861
-0.422616
0.169044
0.0428236
-0.211868
-0.00664031
0.00129137
0.00534894
0.107964
-0.496225
-0.0231827
0.113155
0.00761694
-0.00582115
0.006046
0.00627574
0.000312423
-0.0164123
0.0160999
-0.245747
-0.180382
-0.297052
0.222363
0.101582
-0.218357
0.116775
-0.000247778
-0.0310444
0.082405
-0.100456
0.0180507
-0.213847
0.0178162
0.196031
-0.0134132
-0.46622
-0.562703
0.0501925
0.287828
0.266656
0.0753263
-0.0794109
0.00408457
-0.146927
0.141418
0.00550884
0.00983104
-0.00771385
-0.00211719
-0.000655308
-0.00483363
0.0217694
-0.260755
0.238986
0.155386
-0.0630672
-0.0923184
0.285124
-0.00674902
-0.11054
-0.193704
0.0539289
-0.0345544
-0.0193745
-0.350678
0.0194658
0.331212
0.00176765
0.228162
-0.22993
0.0057621
-0.00198419
-0.310847
-0.20177
-0.0117033
0.0125891
-0.000885842
-0.00416558
-0.0724865
0.107095
0.102677
-0.117039
2.51689e-05
0.0314343
-0.005815
0.243766
-0.122922
-0.120844
0.0376421
-0.0469476
-0.0123535
0.0820544
-0.205703
0.0160734
0.189629
-0.103119
0.472853
0.152361
0.0204343
-0.155538
0.159215
-0.00367711
0.0294095
0.0245194
0.136969
-0.213802
-0.618899
0.305505
0.313394
-0.0085359
-0.0288164
-0.0272121
-0.410057
-0.0222146
-0.00529958
-0.0246432
-0.0215009
-0.115414
-0.000596378
0.00236363
-0.224538
0.222175
-0.610141
0.337462
0.27268
0.471745
-0.223777
-0.247969
0.202177
-0.0549262
-0.14725
0.33995
0.278944
-0.00368507
0.00669637
0.278703
-0.0658115
0.145121
0.00449187
-0.0154481
0.0151173
0.000330787
0.548628
-0.0424993
-0.506129
0.0739
-0.294193
0.220293
-0.00274167
-0.0127065
0.185532
-0.163057
-0.0224748
0.000395007
0.0565375
-0.0569325
0.0265466
-0.0278447
0.00129813
0.191872
0.198285
0.0107084
-0.0747744
0.405183
-0.330409
-0.0079945
-0.00538805
0.0706175
-0.111344
0.0407265
0.0152266
0.0191599
-0.115322
0.00774729
0.000112046
0.000528133
0.0713247
-0.0868109
-0.106748
-0.192994
0.495771
-0.302777
0.0246961
-0.0206701
-0.0457269
0.0663969
0.00576587
-0.000896095
-0.00486978
0.163153
0.0216809
-0.0156349
0.226614
-0.0100939
0.00862032
-0.21883
-0.00100339
0.451804
-0.0920407
-0.142264
-0.228975
0.138333
-0.105996
-0.0323367
-0.120844
0.138584
-0.320388
0.114733
0.193486
-0.229643
0.0361566
-0.383056
0.240791
-0.0477043
0.00651025
-0.00766326
-0.0342491
-0.179598
-0.0162071
0.0168211
-0.00061394
0.00435352
0.00446404
0.000379768
0.355065
-0.0213936
0.00574764
-0.0956056
0.238533
-0.133425
0.583506
-0.139158
0.133445
0.00571348
0.178665
-0.165125
-0.206085
-0.00673904
0.212824
0.00858795
-0.00555515
-0.0030328
-0.226863
0.228631
0.110028
0.0921486
0.113289
0.00749837
-0.120787
0.0750085
-0.391744
0.316736
0.207608
0.34102
-0.0128607
0.00486623
-0.0730446
-0.00475139
0.0777959
0.468941
-0.181162
0.161121
0.409232
-0.135127
0.153877
-0.508945
0.410077
0.0988683
0.000197995
-0.158094
0.134911
0.00604236
0.00170494
-0.034809
0.0372088
-0.00239977
0.425352
0.046941
0.105599
-0.15254
0.00249633
0.0138368
-0.0163332
-0.127176
0.173123
-0.0459471
-0.592959
0.296293
0.0999625
0.00123431
-0.101197
0.218007
-0.0489634
0.376207
0.0742241
-0.021331
0.00537209
0.00321586
-0.202421
-0.00201861
-0.00156836
-0.00141014
0.117853
-0.0188291
-0.216136
0.0137151
0.443631
0.127374
-0.571006
0.0111498
-0.0476139
0.0364641
0.0177543
0.425877
-0.223152
0.1471
-0.140978
-0.00612149
-0.287746
0.606297
-0.318551
0.337972
-0.24171
-0.148252
0.00909352
-0.0902542
0.00954889
0.0807054
0.00169575
0.00995045
0.00380392
0.00149696
-0.0662435
0.0743577
-0.00811417
-0.12594
-0.322656
0.448596
-0.00689638
0.00190425
-0.0133728
0.00415203
0.167591
-0.171744
-0.00790325
0.00800645
-0.000103196
-0.0268356
-0.0896097
0.116445
-0.106357
0.111097
-0.00474014
0.0119389
0.0509589
-0.00632498
0.00824624
-0.00192127
-0.105166
0.101296
0.00387026
-0.00868328
0.00940926
-0.000725982
0.0078693
0.0920932
0.211693
-0.036686
-0.0254589
0.0945372
-0.0690783
0.0828737
0.0554593
0.0656296
0.00287627
-0.0685058
-0.191695
0.371154
-0.179459
-0.0944551
0.108471
-0.00260734
0.0099812
0.100551
-0.122747
0.0061494
-0.219527
0.000940688
0.00966649
-0.000144465
-0.00952202
0.000258204
-0.000506428
-0.217605
0.334319
0.09362
0.0249405
-0.118561
0.0106415
-0.000421832
0.000159119
-0.012928
0.0127689
0.0164027
-0.00109922
-0.0153035
-0.402937
0.17169
0.231247
-0.04907
0.0733009
0.0820846
0.000304311
0.00050006
3.8289e-06
-0.000503889
-0.197126
0.236725
-0.0395991
-0.00898768
0.0026627
0.00393696
0.510998
-0.514935
0.0554134
0.0281529
0.228707
-0.0112151
-0.217492
0.000564093
-0.206267
-0.00202712
-0.00809649
-0.367379
-0.000211323
0.00597302
-0.0057617
0.216506
-0.223795
0.00728934
-0.0298199
0.164743
-0.16937
0.00462662
0.12254
-0.130966
-0.00239226
-0.00925394
0.458317
-0.561436
-0.359622
-0.0759983
0.00703234
-0.00842717
0.00139482
-0.000566436
-0.013606
-0.00967601
-0.524563
0.257257
-0.202292
0.00893409
-0.000498805
-0.0114431
0.0119419
0.163417
-0.15918
-0.00423703
0.00246977
0.00659291
0.0379161
-0.0311895
-0.00672666
-0.213193
-0.00447917
0.540871
-0.253043
-0.00111444
0.00338341
-0.0850144
0.0595555
-0.00183466
0.00563859
0.225806
-0.223442
0.112913
-0.156613
0.159257
-0.0026441
0.151432
-0.532684
0.51927
-0.216507
0.0193816
-0.0658255
-0.062343
-0.0423405
0.0427355
0.132323
-0.135097
0.0027745
0.542963
-0.0282064
-4.96157e-06
0.0157216
0.0596047
-0.108764
-0.191716
0.30048
0.0206267
-0.371305
0.163757
-0.161326
-0.00243139
-0.485761
0.274245
0.0469845
0.0544693
0.107619
-0.134454
-0.354878
-0.0670271
0.421905
-0.188282
-0.195253
-0.306694
-0.305158
0.329196
-0.244387
-0.084809
-0.493808
0.2543
0.239508
-0.441679
-0.131118
0.0377646
0.00185785
-0.0396224
0.0242234
-0.157386
0.133162
0.138894
-0.146012
0.0102364
-0.000569881
0.00114166
0.457175
0.160611
0.239997
0.079048
0.2155
-0.294548
-0.0219108
0.0264157
-0.00450489
0.0151353
-0.0165606
0.00419461
-0.00126659
-0.181159
0.233958
-0.0527986
-0.606746
0.300052
-0.000870911
-0.373028
0.0921637
-0.00237662
0.00440891
-0.00203228
-0.220568
0.229189
0.133426
0.0187025
-0.152128
-0.114774
-0.00160507
-0.0119192
0.0127148
-0.000795611
0.0913703
0.243239
-0.33461
-0.104995
0.426232
-0.321237
-0.00250489
-0.016718
0.0168771
0.196441
-0.245102
0.0486612
-0.17983
0.176848
0.00298181
-0.41521
-0.00946141
0.124702
0.243932
-0.0504464
0.250272
-0.0538315
-0.259541
0.0354121
0.423647
-0.121049
-0.00153754
-0.0103816
-0.212702
0.0467101
0.165992
0.570695
-0.409575
-0.00991734
-0.0300542
0.0399715
0.00215206
-0.00879031
0.00663825
-0.0124154
0.0124154
-0.000130449
-0.154426
-0.00614669
-0.301653
0.481733
-0.180079
-0.0107641
0.140097
-0.0253799
-0.120588
0.0303337
0.0201188
-0.207557
0.130038
0.0271361
0.00976341
-0.189593
0.00700318
0.00100327
-0.032816
0.133379
-0.100563
-0.0927818
-0.168153
0.0114237
0.156729
-0.0043661
-0.151834
0.1562
-0.165503
0.320905
-0.155402
-0.00134587
0.00455957
-0.115338
-0.213641
0.328978
0.203151
-0.19049
-0.0126613
0.00505134
0.00211311
-0.0313919
0.0324146
-0.0010227
-0.248346
0.323355
-0.00169686
0.00393063
-0.00223378
0.00270377
0.0030621
0.462893
-0.540736
0.306537
-0.233361
-0.073176
0.0161756
0.106494
-0.12267
-0.03696
0.0270427
0.0358675
-0.270993
0.500548
0.0271157
-0.184732
0.157617
0.221457
-0.208762
-0.0126952
-0.0259485
0.0303567
-0.00440818
-0.00366913
-0.00307313
-0.00118206
0.00572519
-0.00454313
-0.046025
0.0577461
-0.297268
-0.105669
-0.00206174
-0.0812371
0.0096944
-0.0875223
0.0778279
-0.209438
0.284245
-0.0748062
0.00770763
-0.00245483
0.0446392
0.0692651
-0.570986
0.606366
-0.0353791
0.236855
-0.0203488
0.0156722
0.0060088
-0.00832019
-0.0225754
0.0308956
-0.361305
0.252802
0.0618408
0.000276208
-0.00632171
0.0060455
-0.17826
-0.227004
0.405263
0.0301697
-0.0140149
-0.0161547
0.052747
-0.0849839
-0.19544
-0.308786
0.504226
-0.45354
0.138362
0.315178
-0.0152442
-0.219351
0.225501
0.00103979
0.00984131
-0.0108811
-0.0488513
0.0496466
-0.000795308
0.121106
0.220204
0.28335
-0.092584
-0.190766
0.129745
0.0242614
0.238325
0.0459821
0.157292
-0.000154578
-0.157137
-0.00994417
0.139689
0.132631
-0.0298217
-0.102809
0.04924
-0.404118
-0.466433
-0.00286416
-0.0016014
0.00446556
-0.191768
0.211887
-0.261377
-0.232431
0.00171654
0.00404556
-0.00227442
-0.00518395
0.00745838
-0.306055
-0.0342136
0.340269
0.0425424
-0.00440441
-0.038138
-0.22569
0.444551
0.126365
0.156985
-0.119888
0.308554
-0.188666
0.000256493
-0.00940393
0.00914743
0.00829613
0.000256971
-0.0085531
-0.0594588
0.274217
-0.294414
0.018003
0.276411
-0.00566918
0.00617446
-0.000505285
-0.122447
0.151809
-0.152637
0.233015
-0.281282
-0.107981
-0.0300029
0.137984
-0.295531
0.285489
0.0100418
0.0274323
0.181955
0.293827
0.0863039
0.0142195
-0.133291
-0.00467612
-0.00566901
0.216142
0.196475
-0.183668
-0.012807
0.00113725
-0.147097
-0.147097
0.00316653
-0.0154614
0.0122948
-0.0210015
0.117863
-0.0373621
-0.195498
0.3294
0.182265
-0.511665
0.000542915
-0.00621209
-0.120678
0.091388
0.02929
0.451992
-0.402752
-0.00867192
-0.109901
0.118573
-0.337492
-0.112808
-0.0217134
0.134521
-0.00111908
0.0130741
-0.011955
0.33783
0.26764
-0.60547
0.0347641
-0.00755429
-0.0272098
0.380051
0.0719412
0.00766982
0.00256655
-0.0743796
0.11652
-0.0421401
0.0917582
-0.0760366
-0.0196607
0.000227425
-0.463935
0.162282
0.0053048
-0.000253459
-0.43861
0.0205398
0.41807
0.017977
0.238913
-0.000363744
-0.00284996
-0.0030522
-0.00159759
0.00464978
0.0546873
-0.0987642
0.0440769
-0.00227372
0.00117792
-0.00445295
0.00327503
0.116535
-0.0657375
-0.0507971
0.0021725
0.0132619
-0.0248121
0.0359619
0.0123167
-0.0270773
-0.00302225
0.0300996
-0.110599
0.0872858
0.0233135
0.0946826
0.108986
-0.203668
0.0336024
0.0223779
-0.0559803
-0.106452
-0.041924
0.0158478
0.527115
-0.113981
0.0293585
0.0846224
0.13037
0.02295
-0.15332
0.0623793
0.0702517
-0.0141491
0.0117568
0.021585
-0.0311433
0.00955827
0.376047
-0.138093
-0.237955
0.0643077
-0.0235289
-0.0407788
-0.30266
0.0834204
0.219239
0.0960781
0.011984
-0.108062
0.361457
-0.480372
0.118915
0.0133125
-0.0108162
0.382344
0.183625
0.000100202
-0.00712378
0.00702358
-3.43076e-05
-0.00855919
0.0085935
-0.00588986
0.125772
-0.119679
-0.0060294
-0.00331263
0.0132044
-0.00989181
0.0827517
-0.512904
0.407064
0.10584
-0.0330141
-0.130939
-0.0122691
0.0419474
-0.116327
-0.526832
0.481511
0.0453209
0.0344354
-0.335181
0.143486
0.0952274
0.0770044
-0.0677773
0.0374062
0.00347502
-0.00218365
-0.000123374
0.0113982
-0.0112749
0.341095
0.259948
-0.601043
0.00538103
-0.00504553
-0.0468336
-0.122481
0.111416
-0.120088
-0.0115825
0.0765275
0.0033722
-0.0637742
0.119254
-0.0554793
-0.382868
-0.143964
0.0735367
-0.0241576
0.00310714
0.196265
0.00498867
0.00945294
0.512319
-0.435846
-0.1275
0.4569
-0.386324
0.015442
0.370882
0.150582
0.417412
-0.567994
-0.0304983
0.323068
0.0486345
-0.0150321
0.134802
0.102977
-0.155468
0.0238574
0.13161
0.012786
-0.451396
0.178137
-0.34364
0.00590028
0.00234597
-0.0389157
0.029293
-0.349369
0.153589
0.19578
0.156592
-0.00449616
-0.152096
0.000262033
0.000701514
0.0317892
-0.0225561
-0.00923315
0.0195903
-0.165085
-0.0124763
0.121684
-0.109208
-0.0108992
-0.259995
-0.193545
0.256266
-0.220547
0.109324
0.0265742
0.349495
0.122251
0.0104503
-0.0101938
-0.559509
0.0904453
-0.521536
-0.0494503
-0.00403314
0.00521106
-0.222928
0.146082
0.125278
-0.0194509
0.00057889
0.00129274
-0.00187163
0.153707
-0.0531562
-0.256327
-0.312265
0.140585
0.130606
0.00286539
-0.00486775
0.00200236
0.0107129
-0.00706924
-0.0134457
-0.000518897
0.0139646
-0.493426
-0.453351
-0.222901
0.301949
-0.318279
-0.288466
0.0387464
-0.2399
0.373116
-0.133217
0.588082
-0.498043
0.337817
0.132873
-0.159986
0.0271129
0.0994822
-0.413089
-0.464401
0.33846
0.00670715
0.00312389
-0.00113728
0.00952592
-0.00838864
0.211361
0.0127797
-0.224141
0.000361245
-0.370307
0.245094
0.125214
-0.197837
-0.00824791
-0.000145003
0.0134126
-0.0132676
0.0748619
0.0416727
0.1214
-0.191302
0.0699021
0.00780675
-0.0036726
-0.00413414
-0.0144271
0.000572077
0.013855
-0.0260222
-0.00199386
0.389603
0.0969938
-0.486597
-0.112914
-0.00185935
0.00352832
-0.0109348
0.00740647
0.0643817
0.0141245
-0.0104791
-0.00364537
0.00517607
0.00263068
-0.00550142
0.00352608
0.081294
-0.0156645
-0.203127
0.245951
0.200141
0.0365834
-0.0124535
0.0528292
-0.0229058
-0.0299234
-0.208367
-0.0798678
0.288234
-0.0439634
-0.00929418
0.0101712
-0.000877026
0.137136
0.00856353
-0.1457
-0.00612535
-0.003897
-0.570636
0.28289
0.444868
0.142683
-0.587551
0.00126376
-0.101511
0.119769
-0.0182573
-0.00604832
0.00592494
-0.17846
0.0152677
0.163192
-0.604116
0.316246
0.28787
-0.107319
0.00394815
0.103371
-0.0359621
0.00477262
0.00531387
-0.0586361
0.0968789
-0.0675418
-0.0530461
0.107759
-0.0116804
0.0091137
0.000698426
0.282804
0.0237322
-0.000935058
0.147351
0.00689325
-0.154244
0.100101
-0.102423
0.00232201
0.00190276
-0.129857
0.127954
0.00566232
-0.00793674
0.44601
-0.12809
0.129993
0.00162621
-0.00623678
-0.00922184
0.530575
0.0185148
-0.54909
0.0290774
0.433816
-0.0968434
0.108612
-0.0117687
0.163134
-0.030261
0.361424
0.265131
-0.626555
-0.00939604
0.0133396
-0.00394355
-0.0696411
0.178627
-0.155104
-0.250774
0.122166
-0.606885
0.484719
-0.00737016
0.00764637
0.0123615
-0.0133425
0.000980995
-0.00566454
0.00588711
-0.000222576
-0.612403
0.28064
0.431525
-0.0337189
-0.397807
0.00999043
-0.104158
0.0401883
-0.0745924
-0.00221128
-0.139295
0.141507
-0.0323719
-0.00474883
0.0371208
0.165815
-0.153709
-0.0121056
-0.213632
0.211939
0.00169272
-0.573665
0.544339
-0.00912378
-6.8634e-05
0.00919241
-0.126841
-0.0267265
-0.00583202
0.0325585
-0.00131738
0.0121772
-0.0108598
0.154946
-0.130723
0.0290131
0.0901359
-0.213764
-0.0292862
0.243051
-3.21433e-05
0.0111105
-0.0110784
0.106764
0.0344391
-0.00139778
0.00392358
-0.0025258
0.00169817
-0.0151439
0.300259
0.296756
-0.172253
0.00996019
0.162293
-0.0316795
0.165105
-0.00690059
-0.00423629
0.0111369
-0.0720435
0.248008
-0.175964
0.637225
-0.325632
-0.311593
0.00866231
-0.20518
0.0215115
0.00471191
0.00825479
4.13416e-05
0.0153936
-0.015318
-7.56029e-05
0.017563
-0.214906
0.197343
0.00372156
-0.0699651
0.0319854
-0.00483928
-0.0271461
0.0913537
0.152412
0.00378113
-0.00127678
-0.00250435
0.0185612
-0.00470808
-0.270539
0.275247
0.0126077
-0.0120467
-0.000560969
0.0156765
-0.00792307
-0.00775348
0.0413544
-0.0641571
0.0721523
-0.00799522
0.00157717
-0.0985405
-0.271767
0.00762264
0.00805391
-0.0979829
0.00271051
0.0952724
0.00263848
0.00628271
-0.159012
0.13096
0.0280519
-0.00168689
0.00455228
-0.107612
0.0107689
0.00419581
-0.117003
-0.218751
0.145556
-0.383842
0.238287
-0.193556
-0.224914
0.41847
0.237935
-0.614239
-0.336626
-0.275777
0.00210671
0.0739468
-0.116237
0.0422901