/*--------------------------------*- C++ -*----------------------------------*\
| =========                 |                                                 |
| \\      /  F ield         | OpenFOAM: The Open Source CFD Toolbox           |
|  \\    /   O peration     | Version:  v2012                                 |
|   \\  /    A nd           | Website:  www.openfoam.com                      |
|    \\/     M anipulation  |                                                 |
\*---------------------------------------------------------------------------*/
FoamFile
{
    version     2.0;
    format      ascii;
    class       volVectorField;
    location    "300";
    object      U;
}
// * * * * * * * * * * * * * * * * * * * * * * * * * * * * * * * * * * * * * //

dimensions      [0 1 -1 0 0 0 0];


internalField   nonuniform List<vector> 
15335
(
(-0.306467 -0.0100168 0)
(1.20094 0.0877559 -3.47397e-20)
(-0.3113 -0.0126056 1.11657e-19)
(0.939731 -0.183857 -2.47231e-20)
(-0.145392 -0.0254953 1.17606e-19)
(0.986171 -0.0326842 -7.96618e-21)
(1.19696 0.0550419 0)
(1.29696 -0.202756 9.26733e-20)
(1.13533 -0.085659 -1.0157e-20)
(-0.287449 -0.00775618 0)
(-0.29942 -0.0121221 -9.59489e-20)
(1.07636 0.0144574 -3.75183e-20)
(-0.12858 -0.0277263 -7.75921e-20)
(-0.0438929 0.00252848 4.44467e-20)
(0.481858 -0.0111838 0)
(1.27177 -0.231756 1.78383e-19)
(1.01802 0.000106575 1.21116e-20)
(0.129705 -0.0348865 3.59589e-21)
(1.03596 -0.00322285 -2.08494e-20)
(-0.176091 -0.0277258 -6.55155e-20)
(-0.0627361 0.0147374 0)
(-0.0532813 0.016114 0)
(1.1957 0.0575292 3.1055e-20)
(1.0309 -0.00657275 4.21805e-21)
(1.28157 -0.0412005 0)
(1.13699 -0.329822 1.01728e-19)
(-0.210738 -0.0106474 -1.06496e-19)
(1.1295 -0.337489 -7.57848e-20)
(0.0267387 -0.0507794 -6.50685e-20)
(0.952916 -0.0813991 -4.51117e-20)
(-0.233619 -0.0123607 -5.34375e-20)
(0.50909 0.0464252 1.53313e-20)
(0.999879 -0.00116808 2.20494e-21)
(1.01762 -0.0553753 2.97107e-21)
(1.0322 -0.038743 1.26356e-21)
(1.32077 -0.0823234 3.92225e-20)
(1.31664 -0.0782192 -5.33088e-20)
(1.17407 -0.622629 1.17036e-19)
(-0.143359 0.00161283 2.22124e-20)
(1.15127 -0.427006 0)
(1.16606 0.097564 8.91723e-21)
(1.31468 -0.0894928 -5.38615e-20)
(0.999755 -0.0410499 0)
(1.09542 0.0241407 1.75256e-20)
(-0.269282 -0.00632686 -3.4345e-20)
(1.01745 -0.00223337 0)
(-0.167392 -0.076863 5.67264e-21)
(0.449949 0.0804734 2.68807e-20)
(-0.021773 0.00618566 -8.70367e-21)
(1.02302 -0.116343 4.35388e-21)
(1.03003 -0.00642637 0)
(0.385809 0.0166104 3.98635e-20)
(1.31769 -0.234626 -1.00265e-19)
(0.999949 -0.000655421 5.56545e-21)
(1.04972 -0.0310591 -8.88852e-21)
(1.19518 0.0493527 0)
(0.766827 -0.396024 0)
(0.430909 0.0185814 6.96819e-23)
(-0.195338 -0.0138114 1.73566e-19)
(-0.300825 -0.0123686 -2.09873e-19)
(-0.0731798 0.0194599 -3.19766e-22)
(0.397926 0.0770311 2.83539e-20)
(0.912184 -0.206949 2.16169e-20)
(0.896738 -0.0631897 2.08997e-20)
(1.04504 -0.0149201 0)
(1.0749 0.0131337 -1.63519e-20)
(1.19786 -0.0168116 0)
(0.463017 0.0426507 -3.16908e-20)
(1.0466 -0.00836658 -7.19855e-21)
(1.02926 -0.000900963 1.48443e-20)
(1.15957 -0.0316001 -8.11323e-20)
(1.04911 -0.0922633 0)
(1.28143 -0.0444065 0)
(-0.0303964 0.024905 0)
(1.11073 0.0215924 -7.78737e-20)
(-0.108388 0.0150821 9.26418e-20)
(1.16539 0.0991981 -1.81417e-20)
(1.26035 -0.114677 -2.41786e-20)
(0.536079 -0.111295 -2.41772e-20)
(0.999836 -0.00286261 3.21425e-21)
(-0.124213 -0.0238262 7.38615e-20)
(-0.175367 -0.00871118 0)
(-0.150016 -0.0218506 -1.74864e-20)
(1.27687 -0.0300156 0)
(-0.32346 -0.0147102 0)
(1.01722 -0.00163079 8.67713e-21)
(1.0354 -0.00291289 9.64127e-21)
(1.09381 0.0249912 0)
(0.971762 -0.0931205 -1.8424e-20)
(1.21305 0.0799252 -4.64107e-20)
(-0.109906 -0.0277568 -1.41666e-19)
(1.17846 0.0483142 -5.52736e-21)
(1.07757 0.00992524 -4.12929e-20)
(0.152319 -0.633242 7.57546e-20)
(-0.180226 -0.0153812 0)
(1.09385 -0.0264921 -3.87903e-21)
(1.01644 -0.00292987 0)
(1.09559 -0.156459 -2.68926e-20)
(1.02527 -0.0105102 0)
(0.999879 -0.00208587 0)
(1.00054 -0.0397503 1.128e-21)
(-0.095575 0.0162786 -1.00936e-19)
(1.31871 -0.0366923 -9.62388e-20)
(1.13728 0.0651075 1.39697e-20)
(1.07708 -0.00885242 0)
(1.13136 -0.0869862 0)
(1.04802 -0.0299509 -7.7755e-21)
(0.82702 -0.0808251 0)
(0.0952501 -0.233397 0)
(1.01212 -0.250675 -9.55123e-22)
(-0.0292153 0.0162209 5.43856e-20)
(1.22071 0.0156113 -3.68436e-20)
(1.00387 -0.0199546 0)
(1.07832 0.0143586 -3.34112e-22)
(1.30972 -0.246092 0)
(0.975614 -0.0927856 1.50356e-20)
(1.15896 -0.0294252 -2.30437e-22)
(0.215884 -0.659237 2.19746e-20)
(-0.123351 -0.0273888 1.51522e-19)
(1.33859 -0.0970768 6.02329e-20)
(-0.112406 -0.0266133 -7.53534e-20)
(1.14399 0.0927413 9.62499e-21)
(-0.0249661 0.0253382 0)
(0.853223 0.105282 0)
(0.985523 -0.0234729 1.08519e-20)
(0.996217 -0.0331213 7.15953e-21)
(0.777373 -0.376075 3.75607e-20)
(0.999295 -0.00821633 0)
(1.13515 0.0648059 0)
(1.04615 -0.0397273 0)
(-0.17302 -0.00190636 1.37745e-19)
(-0.256339 -0.00447332 0)
(1.02013 -0.00113335 0)
(0.941282 -0.300968 0)
(1.25463 -0.114442 -6.77564e-20)
(1.01134 -0.00375067 7.21222e-21)
(-0.139299 -0.0221531 0)
(0.140139 -0.0683895 0)
(0.902796 -0.210967 3.19462e-20)
(1.29827 -0.198242 -1.58032e-19)
(1.17841 0.0464151 -5.5273e-21)
(1.21492 0.0801719 1.24836e-19)
(1.09271 -0.234556 -8.38051e-21)
(1.02724 0.000268423 -1.08731e-20)
(-0.0421884 0.0238435 -5.19571e-20)
(1.04171 -0.529094 -1.30801e-19)
(-0.0427262 0.0219314 2.0089e-20)
(0.0242622 -0.0417817 -1.39828e-19)
(1.21975 -0.276464 6.88701e-20)
(-0.142553 -0.0190314 -8.56298e-21)
(1.10091 -0.0381818 -3.59085e-20)
(0.517412 0.0345681 8.28463e-21)
(0.996999 -0.0335487 3.04127e-21)
(1.09163 -0.0271061 0)
(0.0580122 0.0273986 1.74826e-20)
(0.999849 -0.0014252 -1.44105e-20)
(0.213115 0.0538243 -7.10977e-21)
(-0.152533 -0.000683518 0)
(0.100607 0.324092 -1.27507e-19)
(0.686298 -0.0341207 7.60679e-20)
(0.999709 -0.00173976 2.03464e-20)
(0.881126 -0.0909333 2.6315e-20)
(0.810279 0.101615 8.02724e-21)
(1.18084 -0.0522856 0)
(-0.147154 0.00182359 0)
(-0.245683 -0.00667621 1.83626e-20)
(-0.234249 -0.005668 2.40438e-20)
(1.02873 -0.00670456 1.6386e-20)
(0.192281 0.807487 9.89071e-20)
(-0.165779 -0.017623 -8.06723e-21)
(1.0395 -0.445372 2.35884e-20)
(1.34034 -0.261019 3.12266e-20)
(0.117205 0.0434892 3.05433e-20)
(0.706849 0.102401 -3.12559e-20)
(1.2671 -0.0526458 5.53579e-20)
(0.999805 -0.00263478 -5.45112e-21)
(1.00028 -0.00416933 0)
(0.851772 0.104573 -7.79235e-20)
(0.751665 -0.328838 8.82816e-20)
(1.18064 0.0906503 8.39898e-21)
(1.2719 -0.052584 -7.54329e-20)
(0.107631 0.700747 -9.05596e-20)
(-0.052358 0.0233975 0)
(1.1481 -0.0781864 0)
(1.14725 -0.075606 0)
(-0.196336 -0.000493844 -6.69379e-20)
(1.12305 -0.0455214 2.10194e-22)
(0.942769 -0.176199 2.58359e-20)
(-0.039965 0.0226713 0)
(-0.158345 -0.00184432 -1.04088e-19)
(-0.328447 -0.0121559 -7.42726e-20)
(1.23152 -0.35078 1.03271e-19)
(1.10142 0.0142378 -1.81995e-20)
(1.27587 -0.0465037 7.5276e-20)
(1.33271 -0.068343 1.05315e-19)
(0.000245525 -0.0424891 0)
(1.00285 -0.018565 3.35967e-22)
(-0.254194 -0.00432417 0)
(0.996071 -0.040087 3.95943e-21)
(-0.09554 -0.0316067 -1.42533e-19)
(1.09037 -0.159639 -1.07722e-20)
(0.928995 -0.298184 -6.69998e-21)
(1.0399 -0.223241 -1.25608e-20)
(-0.331576 -0.0122652 2.17449e-19)
(-0.314902 -0.0132072 0)
(1.26022 -0.0755555 0)
(1.00024 -0.0034873 0)
(0.674773 -0.00981704 -2.97284e-21)
(0.867963 -0.109817 -1.13561e-21)
(0.994714 -0.142665 -4.92439e-21)
(1.12625 -0.24883 -4.15419e-20)
(1.00249 -0.0394302 0)
(0.0665833 0.0291227 -5.64273e-21)
(0.955282 -0.0784466 2.8182e-20)
(1.03193 -0.53027 0)
(0.659117 -0.0127572 4.97471e-20)
(-0.313595 -0.0119128 1.12248e-19)
(0.472064 0.0376641 0)
(1.14982 0.0745417 0)
(0.313592 -0.111574 2.09464e-21)
(0.986749 -0.0240596 0)
(1.00661 -0.0236301 3.05844e-22)
(1.12924 -0.0514274 -3.1177e-20)
(1.09237 0.0193636 -2.36004e-20)
(1.24173 -0.267662 0)
(1.29083 -0.0357286 0)
(1.03093 -0.0142486 4.98996e-21)
(-0.143992 -0.000495177 -3.86921e-21)
(1.17769 -0.0608888 6.73783e-20)
(0.952203 0.0680364 0)
(1.01402 -0.0119298 -5.34695e-21)
(1.02079 -0.0034009 -5.13077e-21)
(-0.0104918 0.008045 0)
(0.325727 0.0183523 7.583e-20)
(-0.247238 -0.0103425 -1.29557e-19)
(1.12466 -0.21684 4.5235e-21)
(1.27558 -0.0503391 -8.924e-20)
(1.1504 0.0731266 0)
(1.00044 -0.0054965 1.37784e-22)
(1.31406 -0.0632685 -3.67797e-20)
(0.146054 0.0512302 7.36776e-21)
(1.02128 -0.252594 0)
(-0.0337811 0.0228478 0)
(1.15268 -0.0527681 0)
(-0.31821 -0.0108257 -1.80904e-19)
(1.01831 -0.0126668 0)
(0.997152 -0.0776596 4.96495e-21)
(-0.318385 -0.013086 0)
(0.432835 0.0779643 -5.47919e-20)
(0.409823 0.0766759 5.63079e-20)
(-0.326771 -0.0123586 0)
(-0.255807 -0.00645653 -1.61042e-22)
(1.01984 -0.00152194 1.06061e-20)
(1.02963 -0.00699045 -1.67335e-20)
(1.17764 -0.0535375 2.0625e-21)
(-0.258389 -0.00871837 0)
(1.18163 0.0448167 6.32225e-21)
(-0.161903 -0.00323796 8.43159e-20)
(1.02948 -0.00117882 -1.54326e-20)
(1.26493 -0.0744163 6.36201e-20)
(-0.22236 -0.0046252 1.30812e-19)
(0.999871 -0.00151533 0)
(1.03051 -0.010115 1.04868e-20)
(0.987387 -0.032032 0)
(1.04768 -0.00882675 5.98762e-23)
(1.03023 -0.00135967 -1.32317e-20)
(0.619512 -0.0199624 2.11138e-20)
(-0.12692 0.00330852 5.75541e-21)
(-0.157468 -0.000735561 -2.87614e-20)
(0.976871 -0.0183897 0)
(0.588106 -0.017422 -8.4832e-20)
(-0.215178 -0.003745 0)
(-0.139033 0.000428519 3.28279e-21)
(1.01402 -0.0113951 9.52429e-21)
(-0.109178 0.0016754 1.08851e-19)
(0.972042 -0.0840148 9.06111e-21)
(1.00051 -0.0550297 6.90777e-21)
(1.25562 -0.00368967 4.13863e-20)
(0.901779 -0.0624039 -2.04346e-20)
(1.17574 -0.0586909 -6.82534e-20)
(-0.0467611 0.0045878 -2.09984e-20)
(-0.110441 0.0145581 0)
(1.03768 -0.0147297 1.14077e-20)
(1.18175 0.0426659 -2.23163e-20)
(1.10253 0.00400462 4.25045e-20)
(-0.114568 -0.0200461 1.30921e-19)
(0.18832 0.0531582 0)
(1.10409 -0.0145304 0)
(0.954035 -0.0567913 0)
(1.04389 -0.0567061 0)
(-0.247157 -0.0064233 -4.75984e-23)
(1.0794 0.00953668 3.40855e-20)
(0.868615 -0.27527 -4.45608e-20)
(1.26819 0.0119034 0)
(1.09316 -0.0780825 2.25544e-20)
(0.754046 0.598754 -3.85476e-21)
(1.03007 -0.0106002 0)
(1.19712 0.0803636 -4.12998e-20)
(1.03147 -0.0397763 0)
(-0.175868 -0.00329468 -1.38846e-19)
(0.984387 -0.0241642 -1.38403e-22)
(0.162574 0.0528371 0)
(1.18411 -0.282684 -3.9018e-20)
(0.932262 0.0836889 2.98637e-21)
(1.00956 -0.00294267 5.09714e-21)
(0.426863 -0.084484 9.0695e-20)
(-0.237311 -0.00427121 -5.13756e-22)
(1.00031 -0.00495007 0)
(1.11773 0.0103066 7.69856e-20)
(0.925074 -0.0716367 -3.05986e-20)
(-0.158069 -0.00593119 1.15647e-19)
(1.04904 -0.0104024 -4.99074e-21)
(1.2789 -0.0261234 -4.04286e-21)
(0.901752 0.102384 -3.6236e-20)
(1.06572 0.0111664 -4.09935e-20)
(0.993079 -0.0260763 0)
(0.985973 -0.044682 -2.24771e-20)
(0.081441 0.00698015 -4.66388e-20)
(1.22003 0.0625518 0)
(0.357108 0.0333822 -1.24055e-19)
(1.22852 -0.360922 -9.75747e-20)
(1.04371 -0.0145578 1.72363e-20)
(-0.183138 -0.00453216 0)
(-0.0401884 -0.0236912 0)
(1.12656 -0.0989404 -4.88889e-21)
(0.0535853 0.027471 0)
(-0.158791 -0.00583175 -1.06439e-19)
(0.991071 0.0647023 0)
(1.10108 -0.00324005 1.76285e-20)
(1.09922 -0.0394081 0)
(0.999868 -0.00256835 6.85948e-21)
(1.19157 -0.276449 -4.19164e-20)
(0.968039 -0.0577699 -4.54013e-21)
(1.19686 0.091118 6.94346e-21)
(0.95528 -0.316401 0)
(1.32249 -0.0400107 8.96471e-20)
(1.04556 -0.229605 1.31013e-20)
(-0.0965007 0.00466323 -9.48809e-20)
(-0.291154 -0.0128929 0)
(-0.268054 -0.00526879 0)
(1.19816 0.0485304 0)
(1.15789 0.0863257 -6.78377e-21)
(1.00381 -0.0163728 0)
(1.15901 0.0848785 2.44815e-20)
(1.10004 0.0282876 0)
(0.922598 -0.0683793 0)
(1.01666 -0.0567617 1.36568e-21)
(1.28715 -0.229861 9.51247e-20)
(1.02273 -0.00744168 -6.11713e-21)
(-0.126669 -0.0263078 -1.10134e-20)
(-0.0648569 0.0215036 -6.37261e-20)
(-0.171883 -0.00728468 -1.23863e-19)
(1.05146 -0.0942499 0)
(1.09575 -0.45275 0)
(-0.314665 -0.0104439 4.48892e-20)
(1.00676 -0.0247373 -1.27856e-21)
(0.851082 -0.0747948 0)
(1.08935 -0.179702 1.91056e-20)
(1.13413 0.0491844 2.41592e-20)
(1.23201 -0.0519502 0)
(1.10283 -0.0159269 1.99645e-20)
(1.17693 0.0193794 0)
(1.10098 0.00484697 -3.57923e-20)
(1.15819 -0.0260552 -1.35579e-19)
(0.870163 -0.101992 -2.6752e-20)
(-0.192609 0.00410396 7.12201e-20)
(0.122953 0.278447 6.17205e-20)
(1.17419 0.0201239 -1.81822e-20)
(1.09242 -0.0549136 3.26139e-20)
(1.01213 -0.00284018 0)
(0.969327 0.0842586 0)
(1.02446 -0.120087 -6.83687e-21)
(1.10876 -0.164961 2.12403e-20)
(0.526196 0.0309429 7.426e-20)
(0.992415 -0.0273559 0)
(1.31503 -0.036069 0)
(0.556075 0.00898773 0)
(1.09395 0.0183295 -1.23646e-20)
(0.616455 -0.62967 6.02318e-20)
(0.0614173 0.0293435 1.14271e-20)
(1.00419 -0.0166044 0)
(1.09042 -0.0788954 0)
(-0.192705 -0.0177194 -7.50275e-20)
(1.16519 -0.0113786 0)
(1.12594 -0.0467613 -2.31016e-22)
(1.0149 -0.0115531 -4.97142e-21)
(1.22328 0.0141683 0)
(0.718923 0.115887 3.09093e-20)
(1.15902 0.104386 4.15218e-20)
(-0.268374 -0.00577315 0)
(0.993878 -0.0284666 0)
(0.969429 -0.0856082 5.03163e-21)
(1.01499 -0.0110013 0)
(1.15791 0.10357 0)
(1.10642 0.0169434 0)
(1.21839 -0.304487 -2.98255e-22)
(1.28515 -0.223542 -8.42171e-20)
(1.10098 0.0250563 -3.96831e-20)
(0.81462 -0.242532 2.81226e-20)
(0.194739 0.0559445 -1.29562e-20)
(1.22936 -0.0562919 -6.43758e-20)
(1.23216 -0.0591679 8.85236e-20)
(-0.0921977 -0.0310772 1.433e-19)
(1.0987 -0.00287949 -1.59493e-20)
(1.07031 -0.0478027 -5.30362e-21)
(1.22992 -0.0488123 0)
(1.0928 -0.137004 1.99634e-19)
(0.373855 -0.278521 1.37419e-19)
(0.765479 -0.592808 0)
(1.26585 0.00946052 -7.62743e-20)
(1.2754 -0.0226556 6.36135e-20)
(0.878557 -0.0997741 6.15552e-21)
(1.05601 0.0215464 0)
(-0.0211453 0.01725 1.6041e-20)
(1.16219 0.100262 2.37754e-21)
(0.108551 0.0107553 0)
(-0.0624129 -0.021626 0)
(1.08774 -0.0532164 0)
(0.50781 0.46289 0)
(1.08691 -0.239298 0)
(0.906705 -0.116447 3.6668e-20)
(-0.314344 -0.0120863 -4.79935e-20)
(0.820492 0.103651 6.24344e-20)
(1.01709 -0.00285599 5.67311e-21)
(1.21083 0.0769657 0)
(0.982395 0.0753862 4.75056e-20)
(1.15533 0.0863735 -5.41958e-20)
(0.0892525 -0.00208259 -1.6966e-19)
(1.10793 -0.0205571 0)
(-0.237968 -0.00961404 7.84052e-21)
(0.171121 0.0384672 1.84747e-20)
(1.31577 -0.074632 0)
(-0.324132 -0.0110261 8.06415e-20)
(0.158866 0.0314958 0)
(-0.00583626 0.00756141 3.44027e-20)
(1.21575 -0.285532 1.0123e-21)
(0.147801 0.0515082 -2.68861e-20)
(-0.3187 -0.0125764 -5.06777e-20)
(1.02972 -0.00177679 1.79294e-20)
(1.04462 -0.0382836 0)
(1.30049 -0.0230821 -5.2977e-20)
(-0.157966 -0.00415915 6.12681e-20)
(1.03593 -0.035016 -1.20883e-20)
(1.19456 0.0902897 2.35192e-20)
(1.14254 0.0387098 2.90238e-20)
(0.735305 -0.171581 0)
(-0.125632 -0.0321991 9.78365e-21)
(1.1545 0.0876722 5.07854e-20)
(1.15315 0.0727955 -8.4674e-20)
(1.15554 -0.153851 4.258e-21)
(-0.326329 -0.0120427 2.46878e-20)
(1.21171 -0.0380798 1.30011e-19)
(1.13169 -0.2188 0)
(1.02628 -0.113711 3.40813e-21)
(0.180141 0.0431556 -8.68016e-21)
(0.14009 0.0405675 9.37578e-21)
(0.999683 -0.0444537 -8.31253e-22)
(-0.0709138 0.0150887 0)
(-0.0242521 0.0243834 3.95515e-20)
(1.15395 0.0711782 7.34274e-20)
(0.166654 0.0525851 -6.51626e-21)
(1.27252 -0.320104 0)
(1.1359 -0.425355 -6.05552e-20)
(0.213738 0.0581309 2.22714e-20)
(1.13401 0.04792 -5.25455e-20)
(1.12406 -0.0955158 4.60102e-21)
(1.1144 -0.0597602 -2.55827e-20)
(0.994768 -0.039742 -4.17617e-21)
(0.978559 -0.333191 0)
(0.84 0.10093 3.71005e-20)
(1.16288 0.0990654 1.69889e-20)
(1.19751 0.0854416 2.96386e-20)
(1.14846 -0.0162432 0)
(0.994203 -0.0298585 1.06208e-21)
(1.00019 -0.00342665 -6.88401e-22)
(1.04941 -0.0109683 0)
(0.110769 -0.124425 1.46145e-19)
(0.500913 0.013634 -2.74819e-20)
(-0.158562 -0.00340527 0)
(0.0753754 -0.118006 -1.54315e-19)
(1.23369 -0.267559 6.61065e-20)
(0.238156 -0.0367444 5.56461e-20)
(1.11917 0.0126386 1.33025e-20)
(-0.142892 -0.021925 0)
(0.9569 -0.0557848 0)
(1.04041 -0.0148649 0)
(0.999854 -0.00219719 8.07832e-21)
(1.08698 0.100224 -1.75162e-20)
(1.03454 -0.032254 0)
(-0.057479 0.0229603 7.1481e-20)
(1.02933 -0.00259694 0)
(0.941869 -0.0171983 3.96819e-20)
(1.03106 -0.0159426 -1.2844e-20)
(0.983962 0.075258 0)
(1.24277 -0.460919 1.3704e-19)
(0.999917 -0.00205959 4.90665e-22)
(1.10219 0.024116 0)
(1.19466 0.0520909 5.50958e-20)
(0.9064 -0.122336 0)
(0.88549 -0.0140763 -7.88737e-20)
(0.115027 -0.00158965 5.06782e-20)
(1.10203 0.000618353 6.89108e-21)
(1.19876 0.0825849 -4.743e-20)
(1.07304 0.0134035 3.69112e-20)
(-0.313951 -0.0118494 -6.03271e-20)
(1.07203 -0.0529282 3.36377e-21)
(1.02435 -0.0304591 0)
(-0.326639 -0.0124899 -6.73204e-21)
(1.06004 -0.0629982 -1.03275e-20)
(0.929662 -0.212114 -1.97814e-20)
(1.0194 -0.118502 -1.96086e-19)
(1.01273 -0.00282177 0)
(0.999789 -0.00187103 0)
(-0.311589 -0.0120016 -8.80021e-20)
(1.32015 -0.0922611 3.14147e-21)
(1.31813 -0.0150202 7.42631e-20)
(1.08909 -0.029894 -1.54345e-20)
(1.13839 -0.0868915 1.6677e-20)
(1.0623 -0.0202887 -2.37939e-20)
(0.691787 -0.314649 -1.58389e-19)
(0.969327 0.0525009 -1.30726e-19)
(1.0001 -0.00070856 3.33967e-21)
(-0.172529 -0.00371132 3.26553e-20)
(1.0142 0.056067 0)
(-0.0435156 0.0249842 2.23535e-21)
(-0.109471 0.0146956 0)
(0.9739 -0.0249298 1.29646e-20)
(1.02771 0.0991364 -5.69787e-20)
(0.427599 0.0764455 0)
(-0.140402 -0.0209592 4.28456e-21)
(-0.309086 -0.0122806 -2.30542e-20)
(1.11991 0.014048 0)
(0.481255 0.0847309 4.03622e-20)
(0.818346 -0.256705 -6.99683e-20)
(1.24995 0.0626365 -5.52464e-20)
(1.19886 0.0893071 7.95863e-20)
(-0.0869182 0.0142864 3.70419e-20)
(-0.310552 -0.0112047 7.40951e-20)
(-0.0993874 0.0128328 0)
(-0.0624432 0.0227652 0)
(-0.0812415 0.0177645 -4.11519e-20)
(0.951918 -0.310056 0)
(1.07061 -0.0516359 -2.47781e-21)
(1.10849 -0.0131612 0)
(1.12067 -0.151998 2.56701e-20)
(1.00407 -0.00160547 4.74503e-21)
(1.13247 -0.404669 -8.74187e-20)
(1.20594 -0.18652 -7.79373e-20)
(-0.258046 -0.00992828 -3.66864e-20)
(1.22657 0.00926756 1.13352e-20)
(1.19779 0.0197402 1.55065e-20)
(1.29015 -0.331154 1.01348e-19)
(0.407447 0.077214 0)
(0.252068 0.0599088 0)
(0.0990755 0.0308953 6.69821e-20)
(1.2734 -0.0151463 -1.46518e-19)
(1.01153 -0.515055 0)
(1.00013 -0.0024423 1.37961e-21)
(1.10566 -0.0382666 6.25606e-22)
(1.03019 -0.00165922 -9.97058e-22)
(1.01809 -0.177597 0)
(0.42964 0.0792516 -4.33024e-22)
(1.05987 -0.0227732 5.69304e-21)
(1.1201 0.00900855 0)
(1.22074 -0.158662 -1.95412e-20)
(0.259021 -0.0102613 6.1597e-22)
(1.16715 -0.0660667 6.06189e-20)
(-0.146594 -0.0216174 0)
(1.26535 -0.213528 6.89799e-20)
(-0.122261 0.00305712 1.15628e-20)
(1.03367 -0.038828 -1.45337e-21)
(0.968262 -0.0548095 9.44636e-21)
(0.999835 -0.00159363 -2.77045e-21)
(0.937156 -0.168552 1.08701e-20)
(-0.0694212 -0.0352483 1.75789e-19)
(1.12314 -0.157213 0)
(0.346192 -0.115997 2.48417e-21)
(1.02342 -0.0291355 0)
(1.15675 -0.0410345 0)
(-0.0924966 -0.0228439 -1.73533e-20)
(1.03641 -0.0146596 0)
(1.02976 -0.247308 0)
(0.128678 0.0359992 5.70821e-20)
(0.158824 -0.0352525 -5.74963e-20)
(-0.313618 -0.0119398 0)
(0.987827 -0.0228547 1.27511e-20)
(1.08825 -0.0755597 -3.34074e-22)
(0.926767 -0.0341287 -2.23065e-20)
(0.432775 -0.0111777 0)
(1.21646 -0.17554 -7.65632e-20)
(1.05988 -0.162576 -1.83585e-20)
(1.02885 -0.000940726 1.34608e-20)
(1.0108 -0.00322049 -6.55388e-21)
(0.999737 -0.00304704 -8.79674e-21)
(0.837321 0.1059 5.20473e-20)
(1.17238 0.0839516 2.94384e-20)
(0.0927514 0.133626 7.53964e-20)
(-0.0843598 0.0154321 4.5085e-20)
(1.07437 -0.0600853 -2.24444e-20)
(1.29922 -0.147629 0)
(1.10172 0.0158885 1.76121e-20)
(1.08541 -0.0539056 1.64566e-20)
(0.591093 0.0653988 1.87869e-19)
(1.01414 -0.0442765 0)
(1.12329 -0.0251004 2.78015e-20)
(-0.0851289 0.0179118 2.14372e-20)
(1.03037 -0.0164937 1.84621e-20)
(-0.248904 -0.00452996 0)
(1.0084 0.0478392 1.05213e-19)
(0.919634 -0.214557 -4.7044e-20)
(1.31376 -0.0163908 -2.414e-20)
(0.476076 0.0322549 9.49787e-21)
(0.457328 0.0801533 0)
(1.14459 -0.0988708 -1.19811e-20)
(0.541546 0.0892565 -3.88745e-21)
(1.13652 -0.323296 -3.70486e-20)
(1.04981 -0.11057 0)
(0.999039 -0.00864919 0)
(1.11283 -0.160823 2.83799e-21)
(1.1452 0.0756944 0)
(0.590591 0.0670175 -6.0066e-20)
(1.1636 -0.0329641 0)
(1.00018 -0.000218331 0)
(0.406928 -0.315405 -1.83747e-19)
(1.00277 -0.0177028 -4.60368e-22)
(1.10318 0.00179399 -2.53514e-21)
(-0.111219 -0.0217678 -7.16268e-20)
(1.2233 0.0103269 0)
(1.22111 -0.164053 -8.81946e-23)
(-0.00168338 -0.0468659 0)
(1.12809 -0.0082507 2.99145e-20)
(1.00456 -0.0128052 1.73045e-22)
(1.04959 -0.00437835 1.6569e-20)
(0.986316 -0.164898 0)
(1.0002 -0.00098634 -3.51154e-21)
(0.11421 0.0289087 0)
(1.06224 -0.0642945 4.34722e-21)
(1.19518 0.0211516 0)
(-0.248352 -0.0123402 7.78063e-20)
(1.02459 -0.00296688 0)
(1.08357 -0.0728868 0)
(-0.258457 -0.0122022 0)
(0.974265 -0.164549 -5.90004e-21)
(0.65885 -0.302583 4.56817e-20)
(0.362541 0.027632 1.63668e-19)
(1.04606 -0.0566869 1.08496e-20)
(1.2769 -0.0192302 -7.14336e-20)
(1.00048 -0.00684551 0)
(0.20811 0.058632 -2.83184e-20)
(1.21019 -0.365752 0)
(0.962761 0.0523812 1.65408e-21)
(1.20869 -0.305316 0)
(-0.120436 -0.0267626 -3.98328e-20)
(-0.171224 -0.00650315 1.27828e-19)
(0.856956 -0.282171 0)
(1.24027 -0.0790336 -6.78667e-20)
(1.03401 -0.00289074 0)
(1.14747 0.0761675 4.61692e-21)
(0.688738 -0.339634 -1.2235e-19)
(-0.0904154 -0.0414628 -1.21637e-19)
(0.942032 -0.0151146 -2.62018e-20)
(0.265892 -0.0460304 1.51342e-19)
(1.00345 -0.0197172 -3.54318e-22)
(1.05297 -0.129727 -7.72716e-20)
(1.11123 -0.0610592 2.59136e-20)
(1.31461 -0.086679 -8.36197e-20)
(1.03211 -0.0145771 0)
(1.05857 -0.0238188 -1.95165e-20)
(1.18715 -0.321498 -5.84183e-20)
(1.25764 -0.209956 0)
(0.977568 -0.0168984 0)
(1.11313 0.0288764 4.99422e-20)
(1.0568 -0.0231992 -5.83826e-21)
(1.22029 -0.366979 2.98544e-20)
(-0.163927 -0.0190653 0)
(1.05491 -0.164139 1.74504e-20)
(-0.306138 -0.013214 7.43911e-20)
(-0.164496 -0.0277514 0)
(-0.0758693 0.0198828 -7.47421e-21)
(1.00047 -0.00667487 -4.10115e-23)
(0.2869 0.0590558 0)
(0.999782 -0.0783944 -3.88828e-21)
(1.02146 -0.00381077 -4.36171e-21)
(1.27008 -0.110715 0)
(0.990386 -0.146588 0)
(0.957339 -0.0957427 -3.34017e-20)
(-0.119122 -0.0191687 0)
(1.12024 -0.0244357 -8.14408e-23)
(0.990864 -0.16853 4.32782e-21)
(0.863324 -0.081253 3.51214e-20)
(0.996086 -0.0455857 7.6599e-21)
(1.02517 -0.00298109 -7.82968e-21)
(0.186172 0.05491 3.62218e-20)
(1.0638 -0.111864 -1.13988e-19)
(1.02616 -0.010858 4.18038e-21)
(1.0234 -0.00714887 6.39698e-21)
(1.25079 -0.00457835 -1.26021e-19)
(1.02353 -0.0156872 1.03966e-20)
(-0.135559 0.00128992 0)
(1.03239 -0.240484 -1.90352e-20)
(-0.101256 -0.0303028 -3.80278e-20)
(0.535363 0.0253866 0)
(1.03582 -0.0334879 0)
(1.1179 -0.176361 -1.58608e-20)
(0.250333 0.0577247 4.87247e-21)
(1.17405 0.0251153 0)
(0.9999 -0.0018523 -7.8869e-21)
(0.89792 -0.292022 -5.43258e-20)
(1.15957 -0.0395735 2.09691e-21)
(1.00183 -0.040588 0)
(0.883677 -0.352214 1.6961e-21)
(-0.119259 -0.016996 0)
(1.1537 -0.0561795 0)
(-0.0533389 -0.0306772 0)
(1.31702 -0.0227728 0)
(1.1505 -0.0584785 4.78578e-20)
(1.00097 -0.0136773 -4.08175e-22)
(0.608813 0.0757748 0)
(1.00124 -0.0141737 4.91816e-22)
(1.08569 -0.0758834 -4.52858e-22)
(1.16277 0.0833082 0)
(1.00049 -0.000352244 0)
(1.06176 -0.0233703 -1.40987e-20)
(1.27292 -0.116151 4.71498e-20)
(1.34721 -0.334719 0)
(-0.247038 -0.0117108 1.48869e-19)
(-0.100827 0.0124971 -1.10269e-19)
(0.861414 0.106661 0)
(1.00034 -0.0076266 0)
(-0.12244 0.0135606 -3.47737e-21)
(-0.227957 -0.00523311 -7.06787e-20)
(1.15737 0.000893051 2.90762e-20)
(-0.171032 -0.0158572 1.81738e-20)
(1.29945 0.0261526 4.50578e-20)
(1.19063 0.0918725 0)
(1.19243 0.0923625 -3.4008e-21)
(1.1732 0.0234385 3.62989e-20)
(-0.150979 -0.0107542 0)
(0.809845 -0.0589261 1.26669e-19)
(-0.18671 0.00437708 0)
(0.908145 -0.296483 3.89372e-20)
(1.131 -0.0986128 0)
(0.894713 -0.408058 -7.50051e-21)
(1.19243 -0.313163 6.43659e-20)
(0.925139 -0.72246 4.59724e-20)
(1.0681 0.00412165 -2.40683e-22)
(1.13081 -0.256284 0)
(0.140027 0.0464622 0)
(0.880991 0.00279399 9.97457e-20)
(1.12033 -0.047518 -1.74071e-21)
(0.0914721 0.0290426 -5.08018e-20)
(-0.204678 -0.0138054 -1.40991e-19)
(0.00373459 0.00784049 3.2987e-20)
(0.987479 -0.0455187 7.14982e-21)
(1.3481 -0.27716 0)
(-0.171649 -0.00265941 0)
(0.237179 0.0580576 -3.81998e-20)
(-0.315337 -0.0106605 1.86247e-19)
(1.05588 -0.0347074 -1.25472e-20)
(1.10175 0.0268866 3.59692e-20)
(1.29923 -0.143866 1.03636e-19)
(-0.0173396 0.00560695 0)
(-0.000418274 0.00787427 0)
(1.13952 -0.0244894 -1.25391e-21)
(-0.166384 -0.00977538 -1.77842e-20)
(1.01433 -0.00155079 -8.39431e-21)
(0.794143 -0.611492 0)
(1.11507 0.0259718 0)
(1.04735 -0.108157 9.37809e-21)
(0.166469 -0.0415365 -7.32801e-20)
(1.03038 -0.014823 -4.90264e-21)
(-0.118964 0.00316427 0)
(1.1304 -0.0145028 -1.81e-20)
(0.964769 -0.33123 0)
(0.917612 -0.101036 4.04147e-21)
(0.875971 -0.0860285 -1.01862e-21)
(-0.250263 -0.0141861 1.34362e-19)
(0.99907 -0.00791063 0)
(1.03472 -0.0353438 0)
(-0.180209 -0.0134351 -7.51072e-20)
(-0.279082 -0.00728005 7.95134e-20)
(1.12091 0.0106673 -1.65054e-20)
(1.0176 -0.0117898 0)
(0.993726 -0.136859 -9.85654e-22)
(-0.242933 -0.00457589 -8.29254e-20)
(1.1849 0.0386908 -2.49198e-20)
(-0.196821 0.000320349 -3.94672e-20)
(0.528405 0.0233897 0)
(1.12962 -0.054446 5.60794e-20)
(0.999638 -0.00331556 -1.46917e-22)
(-0.0516047 -0.0349706 0)
(0.881295 -0.420491 -4.44331e-21)
(-0.0885654 0.0126759 8.99753e-20)
(1.12527 -0.00862338 -5.67817e-23)
(0.854573 -0.0816609 0)
(1.17317 0.0511718 -2.27304e-20)
(1.00041 -0.0430055 -2.79487e-21)
(1.0286 -0.000572378 1.2166e-20)
(1.13758 -0.0258249 -1.75229e-20)
(1.23443 0.0591459 0)
(0.635264 -0.299653 6.30449e-20)
(1.16621 0.0814331 -3.806e-20)
(1.02114 -0.00150441 -1.33629e-21)
(-0.32276 -0.0118614 1.09929e-19)
(0.859468 0.106534 0)
(0.976309 -0.0273282 -6.13015e-21)
(1.01362 -0.042683 0)
(0.89996 -0.104651 -5.56869e-21)
(1.00385 -0.0190299 -2.50598e-22)
(1.09076 0.0248277 6.27295e-22)
(1.28984 0.0232639 0)
(1.00227 -0.0278013 -7.98251e-22)
(1.00209 -0.0376765 -6.53482e-21)
(0.99944 -0.00725587 7.14608e-21)
(1.02826 -0.0518398 3.23886e-22)
(1.00121 -0.0202511 3.3676e-22)
(1.02904 -0.00279001 0)
(0.576912 0.00677395 7.03941e-20)
(1.14132 -0.167155 0)
(1.01498 -0.18282 1.3535e-21)
(-0.20837 -0.0123813 1.28672e-19)
(0.998807 -0.00836208 0)
(1.07736 0.0114393 -7.54621e-21)
(1.08789 -0.0362657 1.47635e-20)
(0.302318 -0.0704804 -3.57146e-21)
(0.140676 -0.247888 0)
(-0.053174 0.0155692 -1.21387e-20)
(1.08141 -0.119455 0)
(0.999605 -0.00698448 -7.04157e-21)
(-0.17228 -0.0170249 -7.95704e-20)
(1.01707 -0.0532289 -3.78369e-21)
(0.0731411 0.0300218 7.25548e-22)
(1.10868 -0.0589513 -2.41787e-20)
(1.20131 -0.169071 -4.28643e-21)
(1.32209 -0.0997941 -6.04725e-20)
(-0.204174 0.00285244 -5.33746e-20)
(0.992537 -0.0404257 0)
(1.04052 0.00258481 -7.3159e-23)
(1.0603 0.0168205 -4.80756e-20)
(0.268715 0.0626043 -3.66606e-20)
(1.12423 -0.0204596 0)
(1.01835 -0.166012 0)
(1.03454 -0.00317597 2.26124e-20)
(1.27465 -0.0120408 1.3979e-19)
(1.11343 0.0302926 -4.24151e-20)
(1.12626 -0.019283 1.11425e-21)
(0.977399 -0.0884251 -1.64292e-20)
(1.02922 -0.00216412 -9.0189e-21)
(-0.211461 0.00146586 9.94113e-20)
(1.08592 -0.132025 -2.41226e-20)
(1.02312 -0.00631962 0)
(0.346568 0.697015 9.64486e-20)
(-0.183241 -0.0146275 1.1407e-19)
(-0.211577 -0.0079427 1.4294e-19)
(-0.326306 -0.0109677 -2.72462e-19)
(1.1421 0.0773635 0)
(1.02665 -0.0033899 1.78942e-20)
(-0.236203 -0.00858749 0)
(1.25707 -0.00106856 -5.58803e-20)
(1.3284 -0.341306 4.22369e-20)
(1.11979 -0.0957117 -4.25045e-24)
(0.86788 -0.0873961 6.41689e-20)
(1.17605 0.0509596 5.76905e-21)
(1.01568 -0.16004 -6.3775e-22)
(-0.166192 -0.016781 6.50085e-20)
(1.32384 -0.0485237 1.03157e-19)
(1.01011 -0.00348141 1.79728e-21)
(1.20372 -0.0252283 6.43655e-21)
(1.17029 0.0544305 -4.20636e-20)
(1.00369 -0.049583 6.14348e-22)
(0.0419588 -0.0960609 4.75939e-22)
(1.07942 -0.00307291 -1.50775e-20)
(0.960698 -0.0858618 1.40201e-20)
(0.107713 0.00950324 -4.62217e-20)
(0.457579 0.0778712 0)
(0.997606 -0.0457474 0)
(0.0562851 0.0290255 0)
(-0.0897918 -0.0290585 0)
(1.00411 -0.0156497 2.96509e-22)
(0.999504 -0.0713574 0)
(1.21999 0.0613927 0)
(0.43718 0.62086 -4.55851e-20)
(0.665432 -0.333665 4.94438e-20)
(1.02517 -0.00984009 7.10774e-21)
(1.18029 -0.0393127 0)
(1.162 -0.0492897 0)
(0.434694 0.0792432 6.62596e-20)
(-0.101877 0.0152879 0)
(-0.110261 -0.0221956 6.04359e-21)
(0.721103 -0.167301 -7.9331e-20)
(1.05431 -0.0352153 0)
(-0.155049 -0.0209902 0)
(1.09139 -0.0296036 3.16022e-20)
(0.757072 -0.00358015 -9.17874e-20)
(1.06644 -0.0638094 -1.4085e-21)
(0.409594 0.0756834 -5.34097e-20)
(0.502632 0.515903 5.83883e-20)
(1.06431 -0.0628552 -4.78789e-21)
(1.00552 -0.00101098 5.17867e-21)
(1.12862 -0.0126952 3.47588e-20)
(0.270164 -0.0440763 -7.29256e-20)
(0.369122 -0.156254 0)
(0.998363 -0.0438712 -3.69763e-21)
(0.984221 -0.0253942 5.22016e-21)
(-0.12528 -0.0121154 6.39669e-20)
(1.02252 -0.0309412 8.4501e-22)
(0.381601 0.18695 0)
(1.03042 -0.554948 0)
(1.0239 -0.00863468 1.33908e-20)
(1.0209 -0.0337105 -2.01991e-22)
(0.185885 0.0509395 0)
(1.11749 -0.0461045 -2.46406e-20)
(0.156543 0.0240521 0)
(0.519523 -0.679498 1.77459e-19)
(1.0018 -0.0570696 -3.40654e-21)
(1.07436 -0.0848726 2.60471e-20)
(1.1522 0.0889771 0)
(1.09279 -0.0523893 -3.29809e-20)
(1.20051 -0.00702324 -8.65315e-22)
(1.15011 0.0884058 0)
(0.824916 -0.0990054 -1.32497e-20)
(1.00249 -0.0269263 0)
(1.02406 -0.00931434 -7.25043e-21)
(-0.0704419 0.0214075 0)
(1.11738 -0.0923917 4.1476e-24)
(1.00103 -0.0192136 2.58172e-21)
(-0.0861374 0.0199534 -2.25973e-20)
(-0.17926 -0.0222195 0)
(1.03542 -0.0452731 0)
(0.540345 -0.542857 7.20964e-20)
(1.02391 -0.0282844 -6.94706e-21)
(1.07664 -0.0840012 4.82371e-21)
(0.990281 -0.044892 1.06531e-20)
(-0.208997 -0.000154202 -7.44272e-20)
(-0.142873 -0.01457 -1.27478e-19)
(0.97343 -0.0262475 -8.71957e-21)
(1.03615 -0.0664488 0)
(0.0884823 -0.00428862 0)
(1.10279 -0.00157586 2.48018e-20)
(1.21519 -0.156481 1.7465e-20)
(1.07893 -0.00928696 4.57254e-20)
(1.06006 -0.234019 -2.20086e-20)
(0.981624 -0.0316411 -1.90099e-20)
(1.10111 -0.158362 -7.38204e-23)
(0.996462 -0.0418487 1.86519e-21)
(1.33488 -0.0746143 -9.90334e-20)
(-0.167059 -0.00178306 -7.21355e-20)
(1.07167 -0.0497624 5.83579e-21)
(1.14779 -0.0638395 1.20446e-20)
(-0.0697712 0.0209268 -8.49668e-20)
(1.08085 -0.073414 1.78332e-20)
(0.237091 0.057408 -2.64505e-21)