/*--------------------------------*- C++ -*----------------------------------*\
| =========                 |                                                 |
| \\      /  F ield         | OpenFOAM: The Open Source CFD Toolbox           |
|  \\    /   O peration     | Version:  v2012                                 |
|   \\  /    A nd           | Website:  www.openfoam.com                      |
|    \\/     M anipulation  |                                                 |
\*---------------------------------------------------------------------------*/
FoamFile
{
    version     2.0;
    format      ascii;
    class       volVectorField;
    location    "300";
    object      U_0;
}
// * * * * * * * * * * * * * * * * * * * * * * * * * * * * * * * * * * * * * //

dimensions      [0 1 -1 0 0 0 0];


internalField   nonuniform List<vector> 
15335
(
(-0.306467 -0.0100168 0)
(1.20094 0.0877557 -3.47403e-20)
(-0.3113 -0.0126056 1.11659e-19)
(0.939731 -0.183857 -2.47228e-20)
(-0.145392 -0.0254953 1.17611e-19)
(0.986171 -0.0326842 -7.96635e-21)
(1.19696 0.0550418 0)
(1.29696 -0.202757 9.26754e-20)
(1.13533 -0.085659 -1.01573e-20)
(-0.287449 -0.00775618 0)
(-0.29942 -0.0121221 -9.59508e-20)
(1.07636 0.0144574 -3.75193e-20)
(-0.12858 -0.0277263 -7.75949e-20)
(-0.043893 0.00252847 4.44476e-20)
(0.481858 -0.0111838 0)
(1.27177 -0.231756 1.78387e-19)
(1.01802 0.000106575 1.2112e-20)
(0.129705 -0.0348865 3.59597e-21)
(1.03596 -0.00322285 -2.08501e-20)
(-0.17609 -0.0277276 -6.55134e-20)
(-0.0627361 0.0147374 0)
(-0.0532813 0.0161141 0)
(1.1957 0.0575292 3.10556e-20)
(1.0309 -0.00657275 4.2182e-21)
(1.28157 -0.0412004 0)
(1.13699 -0.329822 1.01733e-19)
(-0.210738 -0.0106474 -1.06498e-19)
(1.1295 -0.337489 -7.57882e-20)
(0.0267387 -0.0507793 -6.50707e-20)
(0.952916 -0.0813991 -4.51122e-20)
(-0.233619 -0.0123607 -5.34386e-20)
(0.50909 0.0464252 1.53316e-20)
(0.999879 -0.00116808 2.20503e-21)
(1.01762 -0.0553753 2.97143e-21)
(1.0322 -0.038743 1.26362e-21)
(1.32077 -0.0823235 3.92232e-20)
(1.31664 -0.0782192 -5.33098e-20)
(1.17407 -0.622633 1.17044e-19)
(-0.143359 0.00161282 2.22127e-20)
(1.15127 -0.427006 0)
(1.16606 0.0975639 8.9174e-21)
(1.31468 -0.0894927 -5.38624e-20)
(0.999755 -0.0410499 0)
(1.09542 0.0241407 1.75261e-20)
(-0.269282 -0.00632685 -3.43455e-20)
(1.01745 -0.00223337 0)
(-0.167385 -0.0768631 5.67302e-21)
(0.449949 0.0804733 2.68812e-20)
(-0.0217731 0.00618565 -8.70385e-21)
(1.02302 -0.116343 4.3546e-21)
(1.03003 -0.00642637 0)
(0.385809 0.0166105 3.98641e-20)
(1.31769 -0.234626 -1.00267e-19)
(0.999949 -0.000655422 5.5657e-21)
(1.04972 -0.0310591 -8.88884e-21)
(1.19518 0.0493527 0)
(0.766827 -0.396024 0)
(0.430909 0.0185815 6.96826e-23)
(-0.195338 -0.0138114 1.73574e-19)
(-0.300825 -0.0123686 -2.09877e-19)
(-0.0731798 0.0194599 -3.1977e-22)
(0.397926 0.077031 2.83544e-20)
(0.912184 -0.206949 2.16167e-20)
(0.896738 -0.0631897 2.09001e-20)
(1.04504 -0.0149201 0)
(1.0749 0.0131337 -1.63524e-20)
(1.19786 -0.0168115 0)
(0.463017 0.0426507 -3.16913e-20)
(1.0466 -0.00836658 -7.19878e-21)
(1.02926 -0.000900963 1.48448e-20)
(1.15957 -0.0316001 -8.11342e-20)
(1.04911 -0.0922633 0)
(1.28143 -0.0444064 0)
(-0.0303964 0.024905 0)
(1.11073 0.0215924 -7.7875e-20)
(-0.108387 0.0150821 9.26433e-20)
(1.16539 0.099198 -1.8142e-20)
(1.26035 -0.114677 -2.41791e-20)
(0.536079 -0.111295 -2.41778e-20)
(0.999836 -0.00286261 3.21436e-21)
(-0.124212 -0.0238261 7.38633e-20)
(-0.175367 -0.00871118 0)
(-0.150016 -0.0218506 -1.74868e-20)
(1.27687 -0.0300156 0)
(-0.32346 -0.0147102 0)
(1.01722 -0.00163079 8.67746e-21)
(1.0354 -0.00291289 9.64159e-21)
(1.09381 0.0249912 0)
(0.971762 -0.0931205 -1.8424e-20)
(1.21305 0.0799252 -4.64115e-20)
(-0.109906 -0.0277568 -1.4167e-19)
(1.17846 0.0483142 -5.52747e-21)
(1.07757 0.00992524 -4.1294e-20)
(0.15232 -0.63324 7.57676e-20)
(-0.180226 -0.0153813 0)
(1.09385 -0.0264921 -3.87914e-21)
(1.01644 -0.00292987 0)
(1.09559 -0.156459 -2.68938e-20)
(1.02527 -0.0105102 0)
(0.999879 -0.00208587 0)
(1.00054 -0.0397503 1.128e-21)
(-0.095575 0.0162786 -1.00938e-19)
(1.31871 -0.0366922 -9.62404e-20)
(1.13728 0.0651075 1.397e-20)
(1.07708 -0.00885242 0)
(1.13136 -0.0869862 0)
(1.04802 -0.0299509 -7.77578e-21)
(0.82702 -0.0808251 0)
(0.0952501 -0.233397 0)
(1.01212 -0.250675 -9.55368e-22)
(-0.0292154 0.0162208 5.43866e-20)
(1.22071 0.0156112 -3.68443e-20)
(1.00387 -0.0199546 0)
(1.07832 0.0143586 -3.34118e-22)
(1.30972 -0.246092 0)
(0.975614 -0.0927856 1.50355e-20)
(1.15896 -0.0294252 -2.30436e-22)
(0.215882 -0.659234 2.19847e-20)
(-0.123351 -0.0273888 1.51526e-19)
(1.33859 -0.0970766 6.0234e-20)
(-0.112406 -0.0266133 -7.53553e-20)
(1.14399 0.0927413 9.62515e-21)
(-0.0249661 0.0253381 0)
(0.853223 0.105282 0)
(0.985523 -0.0234729 1.08522e-20)
(0.996217 -0.0331213 7.15965e-21)
(0.777373 -0.376075 3.75609e-20)
(0.999295 -0.00821633 0)
(1.13515 0.0648059 0)
(1.04615 -0.0397273 0)
(-0.17302 -0.00190634 1.37747e-19)
(-0.256339 -0.00447331 0)
(1.02013 -0.00113335 0)
(0.941282 -0.300967 0)
(1.25463 -0.114442 -6.77579e-20)
(1.01134 -0.00375067 7.21252e-21)
(-0.139299 -0.0221531 0)
(0.140139 -0.0683893 0)
(0.902796 -0.210967 3.19462e-20)
(1.29827 -0.198242 -1.58035e-19)
(1.17841 0.0464151 -5.52741e-21)
(1.21492 0.0801719 1.24838e-19)
(1.09271 -0.234556 -8.38094e-21)
(1.02724 0.000268422 -1.08734e-20)
(-0.0421883 0.0238435 -5.19579e-20)
(1.0417 -0.529102 -1.30804e-19)
(-0.0427262 0.0219314 2.00893e-20)
(0.0242622 -0.0417815 -1.39833e-19)
(1.21975 -0.276464 6.88723e-20)
(-0.142553 -0.0190314 -8.56317e-21)
(1.10091 -0.0381818 -3.59096e-20)
(0.517412 0.0345681 8.28476e-21)
(0.996999 -0.0335487 3.04131e-21)
(1.09163 -0.0271061 0)
(0.0580121 0.0273986 1.7483e-20)
(0.999849 -0.0014252 -1.44111e-20)
(0.213115 0.0538243 -7.10988e-21)
(-0.152533 -0.000683524 0)
(0.100607 0.324092 -1.2751e-19)
(0.686298 -0.0341207 7.60693e-20)
(0.999709 -0.00173976 2.03473e-20)
(0.881126 -0.0909333 2.63154e-20)
(0.810279 0.101615 8.02739e-21)
(1.18084 -0.0522856 0)
(-0.147154 0.00182358 0)
(-0.245683 -0.0066762 1.83629e-20)
(-0.234249 -0.00566799 2.40442e-20)
(1.02873 -0.00670456 1.63865e-20)
(0.19228 0.807488 9.89128e-20)
(-0.165773 -0.0176244 -8.06777e-21)
(1.03951 -0.445362 2.35883e-20)
(1.34034 -0.261019 3.12273e-20)
(0.117205 0.0434892 3.05438e-20)
(0.706849 0.1024 -3.12568e-20)
(1.2671 -0.0526457 5.5359e-20)
(0.999805 -0.00263478 -5.4513e-21)
(1.00028 -0.00416933 0)
(0.851772 0.104573 -7.7925e-20)
(0.751663 -0.328839 8.82856e-20)
(1.18065 0.0906502 8.39912e-21)
(1.2719 -0.052584 -7.54343e-20)
(0.107628 0.700751 -9.05645e-20)
(-0.052358 0.0233975 0)
(1.1481 -0.0781864 0)
(1.14725 -0.075606 0)
(-0.196336 -0.000493843 -6.6939e-20)
(1.12305 -0.0455214 2.102e-22)
(0.942769 -0.176199 2.58356e-20)
(-0.039965 0.0226713 0)
(-0.158345 -0.0018443 -1.0409e-19)
(-0.328447 -0.0121559 -7.42739e-20)
(1.23152 -0.350781 1.03275e-19)
(1.10142 0.0142378 -1.82e-20)
(1.27587 -0.0465036 7.52774e-20)
(1.33271 -0.0683429 1.05317e-19)
(0.000245528 -0.0424892 0)
(1.00285 -0.018565 3.35951e-22)
(-0.254194 -0.00432417 0)
(0.996071 -0.040087 3.95947e-21)
(-0.09554 -0.0316067 -1.42538e-19)
(1.09037 -0.159639 -1.07727e-20)
(0.928995 -0.298184 -6.69968e-21)
(1.0399 -0.223241 -1.25619e-20)
(-0.331576 -0.0122652 2.17453e-19)
(-0.314902 -0.0132073 0)
(1.26022 -0.0755555 0)
(1.00024 -0.0034873 0)
(0.674773 -0.00981706 -2.97294e-21)
(0.867963 -0.109817 -1.13563e-21)
(0.994714 -0.142665 -4.92404e-21)
(1.12625 -0.24883 -4.15437e-20)
(1.00249 -0.0394302 0)
(0.0665832 0.0291227 -5.64284e-21)
(0.955282 -0.0784466 2.81824e-20)
(1.03193 -0.53027 0)
(0.659117 -0.0127572 4.97483e-20)
(-0.313595 -0.0119128 1.1225e-19)
(0.472064 0.0376642 0)
(1.14982 0.0745417 0)
(0.313592 -0.111574 2.09496e-21)
(0.986749 -0.0240596 0)
(1.00661 -0.0236301 3.05933e-22)
(1.12924 -0.0514274 -3.11779e-20)
(1.09237 0.0193636 -2.3601e-20)
(1.24173 -0.267662 0)
(1.29083 -0.0357285 0)
(1.03093 -0.0142486 4.99014e-21)
(-0.143992 -0.000495179 -3.86927e-21)
(1.17769 -0.0608888 6.73799e-20)
(0.952203 0.0680363 0)
(1.01402 -0.0119298 -5.34717e-21)
(1.02079 -0.0034009 -5.13096e-21)
(-0.0104919 0.00804499 0)
(0.325727 0.0183523 7.58322e-20)
(-0.247238 -0.0103436 -1.29557e-19)
(1.12466 -0.21684 4.52369e-21)
(1.27558 -0.050339 -8.92417e-20)
(1.1504 0.0731266 0)
(1.00044 -0.0054965 1.37789e-22)
(1.31406 -0.0632685 -3.67804e-20)
(0.146054 0.0512302 7.36789e-21)
(1.02128 -0.252594 0)
(-0.0337811 0.0228478 0)
(1.15268 -0.0527681 0)
(-0.31821 -0.0108257 -1.80907e-19)
(1.01831 -0.0126668 0)
(0.997152 -0.0776596 4.96482e-21)
(-0.318385 -0.013086 0)
(0.432835 0.0779643 -5.4793e-20)
(0.409823 0.0766759 5.63091e-20)
(-0.326771 -0.0123586 0)
(-0.255806 -0.00645553 -1.60976e-22)
(1.01984 -0.00152194 1.06065e-20)
(1.02963 -0.00699045 -1.67341e-20)
(1.17764 -0.0535374 2.06255e-21)
(-0.25839 -0.00871745 0)
(1.18163 0.0448167 6.32237e-21)
(-0.161903 -0.00323794 8.43173e-20)
(1.02948 -0.00117882 -1.54331e-20)
(1.26493 -0.0744163 6.36214e-20)
(-0.22236 -0.0046252 1.30814e-19)
(0.999871 -0.00151533 0)
(1.03051 -0.010115 1.04871e-20)
(0.987387 -0.032032 0)
(1.04768 -0.00882675 5.98779e-23)
(1.03023 -0.00135967 -1.32321e-20)
(0.619512 -0.0199625 2.11141e-20)
(-0.12692 0.00330851 5.75552e-21)
(-0.157468 -0.000735566 -2.87619e-20)
(0.976871 -0.0183897 0)
(0.588106 -0.017422 -8.48334e-20)
(-0.215178 -0.003745 0)
(-0.139033 0.00042851 3.28285e-21)
(1.01402 -0.0113951 9.52468e-21)
(-0.109178 0.00167539 1.08853e-19)
(0.972042 -0.0840148 9.06116e-21)
(1.00051 -0.0550297 6.90766e-21)
(1.25562 -0.00368962 4.13871e-20)
(0.901779 -0.0624039 -2.0435e-20)
(1.17574 -0.0586909 -6.82551e-20)
(-0.0467612 0.0045878 -2.09988e-20)
(-0.110441 0.0145581 0)
(1.03768 -0.0147297 1.14081e-20)
(1.18175 0.0426659 -2.23167e-20)
(1.10253 0.00400462 4.25057e-20)
(-0.114568 -0.0200461 1.30924e-19)
(0.18832 0.0531582 0)
(1.10409 -0.0145304 0)
(0.954035 -0.0567913 0)
(1.04389 -0.0567061 0)
(-0.247157 -0.0064233 -4.7599e-23)
(1.0794 0.00953668 3.40864e-20)
(0.868615 -0.27527 -4.45605e-20)
(1.26819 0.0119034 0)
(1.09316 -0.0780825 2.25551e-20)
(0.754 0.598757 -3.8538e-21)
(1.03007 -0.0106002 0)
(1.19712 0.0803635 -4.13006e-20)
(1.03147 -0.0397763 0)
(-0.175868 -0.00329467 -1.38848e-19)
(0.984387 -0.0241642 -1.38409e-22)
(0.162574 0.0528371 0)
(1.18411 -0.282684 -3.90194e-20)
(0.932262 0.0836889 2.98642e-21)
(1.00956 -0.00294267 5.09735e-21)
(0.426863 -0.084484 9.06972e-20)
(-0.237311 -0.00427121 -5.13765e-22)
(1.00031 -0.00495007 0)
(1.11773 0.0103066 7.69869e-20)
(0.925074 -0.0716367 -3.05992e-20)
(-0.158069 -0.0059312 1.15649e-19)
(1.04904 -0.0104024 -4.9909e-21)
(1.2789 -0.0261234 -4.04293e-21)
(0.901752 0.102384 -3.62367e-20)
(1.06572 0.0111665 -4.09942e-20)
(0.993079 -0.0260763 0)
(0.985973 -0.044682 -2.24775e-20)
(0.081441 0.00698019 -4.66395e-20)
(1.22003 0.0625521 0)
(0.357108 0.0333823 -1.24059e-19)
(1.22852 -0.360922 -9.75801e-20)
(1.04371 -0.0145578 1.72369e-20)
(-0.183138 -0.00453205 0)
(-0.0401884 -0.0236912 0)
(1.12656 -0.0989404 -4.88904e-21)
(0.0535851 0.027471 0)
(-0.158791 -0.00583175 -1.06441e-19)
(0.991071 0.0647022 0)
(1.10108 -0.00324005 1.7629e-20)
(1.09922 -0.0394081 0)
(0.999868 -0.00256835 6.85973e-21)
(1.19157 -0.276449 -4.19178e-20)
(0.968039 -0.0577699 -4.5402e-21)
(1.19686 0.0911179 6.94359e-21)
(0.95528 -0.316401 0)
(1.32249 -0.0400105 8.96486e-20)
(1.04556 -0.229605 1.31025e-20)
(-0.0965007 0.00466322 -9.48827e-20)
(-0.291154 -0.0128929 0)
(-0.268054 -0.00526879 0)
(1.19816 0.0485304 0)
(1.15789 0.0863256 -6.78391e-21)
(1.00381 -0.0163728 0)
(1.15901 0.0848785 2.44819e-20)
(1.10004 0.0282876 0)
(0.922598 -0.0683793 0)
(1.01666 -0.0567617 1.36587e-21)
(1.28715 -0.229862 9.51271e-20)
(1.02273 -0.00744168 -6.11735e-21)
(-0.126669 -0.0263078 -1.10137e-20)
(-0.0648568 0.0215036 -6.37272e-20)
(-0.171883 -0.00728468 -1.23865e-19)
(1.05146 -0.0942499 0)
(1.09576 -0.452749 0)
(-0.314665 -0.0104439 4.489e-20)
(1.00676 -0.0247373 -1.27879e-21)
(0.851082 -0.0747948 0)
(1.08935 -0.179702 1.91065e-20)
(1.13413 0.0491844 2.41597e-20)
(1.23201 -0.0519502 0)
(1.10283 -0.0159269 1.99651e-20)
(1.17693 0.0193794 0)
(1.10098 0.00484697 -3.57932e-20)
(1.15819 -0.0260551 -1.35581e-19)
(0.870163 -0.101992 -2.67525e-20)
(-0.19261 0.00410484 7.12199e-20)
(0.122953 0.278447 6.17221e-20)
(1.17419 0.0201239 -1.81826e-20)
(1.09242 -0.0549136 3.2615e-20)
(1.01213 -0.00284018 0)
(0.969327 0.0842585 0)
(1.02446 -0.120087 -6.83795e-21)
(1.10876 -0.164961 2.12412e-20)
(0.526196 0.030943 7.42611e-20)
(0.992415 -0.0273559 0)
(1.31503 -0.0360689 0)
(0.556075 0.00898779 0)
(1.09395 0.0183295 -1.2365e-20)
(0.616456 -0.629671 6.02277e-20)
(0.0614172 0.0293435 1.14273e-20)
(1.00419 -0.0166044 0)
(1.09042 -0.0788954 0)
(-0.192705 -0.0177194 -7.50291e-20)
(1.16519 -0.0113785 0)
(1.12594 -0.0467613 -2.31022e-22)
(1.0149 -0.0115531 -4.97162e-21)
(1.22328 0.0141683 0)
(0.718923 0.115887 3.09101e-20)
(1.15902 0.104386 4.15226e-20)
(-0.268374 -0.00577314 0)
(0.993878 -0.0284666 0)
(0.969429 -0.0856082 5.03166e-21)
(1.01499 -0.0110013 0)
(1.15791 0.10357 0)
(1.10642 0.0169435 0)
(1.21839 -0.304487 -2.98265e-22)
(1.28515 -0.223542 -8.42191e-20)
(1.10098 0.0250563 -3.96841e-20)
(0.81462 -0.242532 2.81228e-20)
(0.194739 0.0559444 -1.29564e-20)
(1.22936 -0.0562919 -6.43772e-20)
(1.23216 -0.0591679 8.85255e-20)
(-0.0921976 -0.0310772 1.43305e-19)
(1.0987 -0.00287948 -1.59497e-20)
(1.07031 -0.0478027 -5.3038e-21)
(1.22992 -0.0488122 0)
(1.0928 -0.137004 1.99638e-19)
(0.373852 -0.278532 1.37424e-19)
(0.765479 -0.592808 0)
(1.26585 0.00946051 -7.62756e-20)
(1.2754 -0.0226556 6.36147e-20)
(0.878557 -0.0997741 6.15562e-21)
(1.05601 0.0215465 0)
(-0.0211453 0.01725 1.60413e-20)
(1.16219 0.100262 2.37759e-21)
(0.108551 0.0107554 0)
(-0.0624129 -0.021626 0)
(1.08774 -0.0532164 0)
(0.507811 0.46289 0)
(1.08691 -0.239298 0)
(0.906705 -0.116447 3.66684e-20)
(-0.314344 -0.0120863 -4.79943e-20)
(0.820492 0.10365 6.24356e-20)
(1.01709 -0.00285599 5.67332e-21)
(1.21083 0.0769657 0)
(0.982395 0.0753862 4.75064e-20)
(1.15533 0.0863735 -5.41969e-20)
(0.0892525 -0.00208261 -1.69663e-19)
(1.10793 -0.0205571 0)
(-0.237968 -0.00961404 7.84067e-21)
(0.171121 0.0384672 1.8475e-20)
(1.31577 -0.074632 0)
(-0.324132 -0.0110261 8.06428e-20)
(0.158866 0.0314959 0)
(-0.0058364 0.0075614 3.44034e-20)
(1.21575 -0.285532 1.01233e-21)
(0.147801 0.0515081 -2.68865e-20)
(-0.3187 -0.0125764 -5.06786e-20)
(1.02972 -0.00177679 1.793e-20)
(1.04462 -0.0382836 0)
(1.30049 -0.023082 -5.29779e-20)
(-0.157966 -0.00415915 6.12691e-20)
(1.03593 -0.035016 -1.20888e-20)
(1.19456 0.0902896 2.35197e-20)
(1.14254 0.0387098 2.90245e-20)
(0.735305 -0.171581 0)
(-0.125628 -0.0321996 9.78316e-21)
(1.1545 0.0876722 5.07864e-20)
(1.15315 0.0727955 -8.46757e-20)
(1.15554 -0.153851 4.25808e-21)
(-0.326329 -0.0120427 2.46882e-20)
(1.21171 -0.0380797 1.30014e-19)
(1.13169 -0.2188 0)
(1.02628 -0.113711 3.40852e-21)
(0.180141 0.0431556 -8.6803e-21)
(0.14009 0.0405675 9.37593e-21)
(0.999683 -0.0444537 -8.31249e-22)
(-0.0709138 0.0150888 0)
(-0.0242521 0.0243834 3.95522e-20)
(1.15395 0.0711782 7.34289e-20)
(0.166654 0.052585 -6.51637e-21)
(1.27252 -0.320104 0)
(1.1359 -0.425355 -6.05581e-20)
(0.213738 0.0581308 2.22718e-20)
(1.13401 0.04792 -5.25466e-20)
(1.12406 -0.0955158 4.60117e-21)
(1.1144 -0.0597602 -2.55834e-20)
(0.994768 -0.039742 -4.17622e-21)
(0.978559 -0.333191 0)
(0.84 0.10093 3.71011e-20)
(1.16288 0.0990654 1.69892e-20)
(1.19751 0.0854415 2.96392e-20)
(1.14846 -0.016243 0)
(0.994203 -0.0298585 1.0621e-21)
(1.00019 -0.00342665 -6.88396e-22)
(1.04941 -0.0109683 0)
(0.110769 -0.124425 1.46151e-19)
(0.500913 0.013634 -2.74824e-20)
(-0.158562 -0.00340526 0)
(0.0753754 -0.118006 -1.54322e-19)
(1.23369 -0.267559 6.61085e-20)
(0.238156 -0.0367443 5.5648e-20)
(1.11917 0.0126386 1.33029e-20)
(-0.142892 -0.021925 0)
(0.9569 -0.0557848 0)
(1.04041 -0.0148649 0)
(0.999854 -0.0021972 8.07864e-21)
(1.08698 0.100224 -1.75165e-20)
(1.03454 -0.032254 0)
(-0.0574789 0.0229603 7.14822e-20)
(1.02933 -0.00259694 0)
(0.941869 -0.0171983 3.9683e-20)
(1.03106 -0.0159426 -1.28444e-20)
(0.983962 0.0752582 0)
(1.24277 -0.460918 1.37046e-19)
(0.999917 -0.00205959 4.90688e-22)
(1.10219 0.024116 0)
(1.19466 0.0520909 5.50968e-20)
(0.9064 -0.122336 0)
(0.88549 -0.0140763 -7.88758e-20)
(0.115027 -0.00158966 5.06791e-20)
(1.10203 0.000618353 6.89126e-21)
(1.19876 0.0825848 -4.74309e-20)
(1.07304 0.0134035 3.69122e-20)
(-0.313951 -0.0118494 -6.0328e-20)
(1.07203 -0.0529282 3.36389e-21)
(1.02435 -0.0304591 0)
(-0.326639 -0.0124899 -6.73216e-21)
(1.06004 -0.0629982 -1.03279e-20)
(0.929662 -0.212114 -1.97811e-20)
(1.0194 -0.118501 -1.9609e-19)
(1.01273 -0.00282177 0)
(0.999789 -0.00187103 0)
(-0.311589 -0.0120016 -8.80037e-20)
(1.32015 -0.0922612 3.14153e-21)
(1.31813 -0.0150202 7.42643e-20)
(1.08909 -0.029894 -1.5435e-20)
(1.13839 -0.0868915 1.66775e-20)
(1.0623 -0.0202887 -2.37947e-20)
(0.691785 -0.314651 -1.58399e-19)
(0.969327 0.0525009 -1.30728e-19)
(1.0001 -0.00070856 3.33984e-21)
(-0.172529 -0.00371131 3.26559e-20)
(1.0142 0.056067 0)
(-0.0435155 0.0249842 2.23539e-21)
(-0.109471 0.0146956 0)
(0.9739 -0.0249298 1.2965e-20)
(1.02771 0.0991363 -5.69797e-20)
(0.427599 0.0764454 0)
(-0.140402 -0.0209592 4.28466e-21)
(-0.309086 -0.0122806 -2.30546e-20)
(1.11991 0.014048 0)
(0.481255 0.0847308 4.0363e-20)
(0.818346 -0.256705 -6.9969e-20)
(1.24995 0.0626378 -5.52482e-20)
(1.19886 0.089307 7.95878e-20)
(-0.0869182 0.0142865 3.70425e-20)
(-0.310553 -0.0112052 7.4095e-20)
(-0.0993873 0.0128329 0)
(-0.0624431 0.0227652 0)
(-0.0812415 0.0177645 -4.11526e-20)
(0.951918 -0.310056 0)
(1.07061 -0.0516359 -2.47789e-21)
(1.10849 -0.0131612 0)
(1.12067 -0.151998 2.56711e-20)
(1.00407 -0.00160547 4.74525e-21)
(1.13247 -0.404669 -8.74228e-20)
(1.20594 -0.18652 -7.79395e-20)
(-0.258048 -0.00992843 -3.66865e-20)
(1.22657 0.00926756 1.13355e-20)
(1.19779 0.0197402 1.55068e-20)
(1.29016 -0.331154 1.0135e-19)
(0.407447 0.077214 0)
(0.252068 0.0599088 0)
(0.0990753 0.0308953 6.69835e-20)
(1.2734 -0.0151463 -1.46521e-19)
(1.01153 -0.515055 0)
(1.00013 -0.0024423 1.3796e-21)
(1.10566 -0.0382666 6.25624e-22)
(1.03019 -0.00165922 -9.97091e-22)
(1.01809 -0.177597 0)
(0.42964 0.0792515 -4.33033e-22)
(1.05987 -0.0227732 5.69322e-21)
(1.1201 0.00900855 0)
(1.22074 -0.158662 -1.95417e-20)
(0.259021 -0.0102613 6.15967e-22)
(1.16715 -0.0660665 6.062e-20)
(-0.146594 -0.0216175 0)
(1.26535 -0.213528 6.89817e-20)
(-0.122261 0.00305711 1.1563e-20)
(1.03367 -0.038828 -1.45343e-21)
(0.968262 -0.0548095 9.44652e-21)
(0.999835 -0.00159363 -2.77058e-21)
(0.937156 -0.168552 1.087e-20)
(-0.0694212 -0.0352483 1.75795e-19)
(1.12314 -0.157213 0)
(0.346192 -0.115997 2.48442e-21)
(1.02342 -0.0291355 0)
(1.15675 -0.0410345 0)
(-0.0924965 -0.0228439 -1.73536e-20)
(1.03641 -0.0146596 0)
(1.02976 -0.247308 0)
(0.128678 0.0359992 5.7083e-20)
(0.158824 -0.0352525 -5.74975e-20)
(-0.313618 -0.0119398 0)
(0.987827 -0.0228547 1.27515e-20)
(1.08825 -0.0755597 -3.3408e-22)
(0.926767 -0.0341287 -2.23071e-20)
(0.432775 -0.0111777 0)
(1.21646 -0.17554 -7.65648e-20)
(1.05988 -0.162576 -1.83597e-20)
(1.02885 -0.000940726 1.34612e-20)
(1.0108 -0.00322049 -6.55415e-21)
(0.999737 -0.00304705 -8.79708e-21)
(0.837321 0.1059 5.20483e-20)
(1.17238 0.0839516 2.9439e-20)
(0.0927514 0.133626 7.53985e-20)
(-0.0843598 0.0154322 4.50857e-20)
(1.07437 -0.0600853 -2.24452e-20)
(1.29922 -0.147629 0)
(1.10172 0.0158885 1.76126e-20)
(1.08541 -0.0539056 1.64572e-20)
(0.591093 0.0653988 1.87872e-19)
(1.01414 -0.0442765 0)
(1.12329 -0.0251004 2.78023e-20)
(-0.0851288 0.0179118 2.14376e-20)
(1.03037 -0.0164937 1.84628e-20)
(-0.248901 -0.00452978 0)
(1.0084 0.0478393 1.05214e-19)
(0.919634 -0.214557 -4.70436e-20)
(1.31376 -0.0163908 -2.41404e-20)
(0.476076 0.032255 9.49801e-21)
(0.457328 0.0801532 0)
(1.14459 -0.0988708 -1.19815e-20)
(0.541546 0.0892563 -3.88753e-21)
(1.13652 -0.323296 -3.70503e-20)
(1.04981 -0.11057 0)
(0.999039 -0.00864919 0)
(1.11283 -0.160823 2.8381e-21)
(1.1452 0.0756944 0)
(0.590591 0.0670175 -6.0067e-20)
(1.1636 -0.0329641 0)
(1.00018 -0.000218331 0)
(0.406925 -0.31541 -1.83754e-19)
(1.00277 -0.0177028 -4.60352e-22)
(1.10318 0.00179399 -2.5352e-21)
(-0.111219 -0.0217678 -7.16284e-20)
(1.2233 0.0103269 0)
(1.22111 -0.164053 -8.81955e-23)
(-0.00168338 -0.0468659 0)
(1.12809 -0.0082507 2.99153e-20)
(1.00456 -0.0128052 1.73056e-22)
(1.04959 -0.00437835 1.65695e-20)
(0.986316 -0.164898 0)
(1.0002 -0.00098634 -3.51172e-21)
(0.11421 0.0289087 0)
(1.06224 -0.0642945 4.34739e-21)
(1.19518 0.0211515 0)
(-0.248352 -0.0123402 7.78077e-20)
(1.02459 -0.00296688 0)
(1.08357 -0.0728868 0)
(-0.258457 -0.0122023 0)
(0.974265 -0.164549 -5.89984e-21)
(0.65885 -0.302583 4.56827e-20)
(0.362542 0.027632 1.6367e-19)
(1.04606 -0.0566869 1.08501e-20)
(1.2769 -0.0192303 -7.14349e-20)
(1.00048 -0.00684551 0)
(0.20811 0.0586319 -2.83189e-20)
(1.21019 -0.365752 0)
(0.962761 0.0523812 1.65411e-21)
(1.20869 -0.305316 0)
(-0.120436 -0.0267626 -3.98339e-20)
(-0.171224 -0.00650315 1.2783e-19)
(0.856956 -0.282171 0)
(1.24027 -0.0790334 -6.78679e-20)
(1.03401 -0.00289074 0)
(1.14747 0.0761675 4.61701e-21)
(0.688738 -0.339634 -1.22353e-19)
(-0.0904095 -0.0414546 -1.2165e-19)
(0.942032 -0.0151146 -2.62027e-20)
(0.265892 -0.0460304 1.51345e-19)
(1.00345 -0.0197172 -3.54301e-22)
(1.05297 -0.129727 -7.72731e-20)
(1.11123 -0.0610592 2.59143e-20)
(1.31461 -0.0866791 -8.36213e-20)
(1.03211 -0.0145771 0)
(1.05857 -0.0238188 -1.95171e-20)
(1.18715 -0.321498 -5.84205e-20)
(1.25764 -0.209956 0)
(0.977568 -0.0168984 0)
(1.11313 0.0288764 4.99434e-20)
(1.0568 -0.0231992 -5.83845e-21)
(1.22029 -0.366979 2.98551e-20)
(-0.163927 -0.0190655 0)
(1.05491 -0.164139 1.74515e-20)
(-0.306138 -0.013214 7.43925e-20)
(-0.164494 -0.0277543 0)
(-0.0758692 0.0198828 -7.47434e-21)
(1.00047 -0.00667487 -4.10133e-23)
(0.2869 0.0590558 0)
(0.999782 -0.0783944 -3.8882e-21)
(1.02146 -0.00381077 -4.36187e-21)
(1.27008 -0.110715 0)
(0.990386 -0.146588 0)
(0.957339 -0.0957427 -3.34019e-20)
(-0.119122 -0.0191688 0)
(1.12024 -0.0244357 -8.14383e-23)
(0.990864 -0.16853 4.32741e-21)
(0.863324 -0.081253 3.51221e-20)
(0.996086 -0.0455857 7.65995e-21)
(1.02517 -0.00298109 -7.82996e-21)
(0.186172 0.0549099 3.62224e-20)
(1.0638 -0.111864 -1.1399e-19)
(1.02616 -0.010858 4.18053e-21)
(1.0234 -0.00714887 6.39721e-21)
(1.25079 -0.00457832 -1.26024e-19)
(1.02353 -0.0156872 1.0397e-20)
(-0.135559 0.00128991 0)
(1.03239 -0.240484 -1.90372e-20)
(-0.101256 -0.0303028 -3.80289e-20)
(0.535363 0.0253866 0)
(1.03582 -0.0334879 0)
(1.1179 -0.176361 -1.58615e-20)
(0.250333 0.0577247 4.87256e-21)
(1.17405 0.0251153 0)
(0.9999 -0.0018523 -7.8872e-21)
(0.89792 -0.292022 -5.43244e-20)
(1.15957 -0.0395735 2.09696e-21)
(1.00183 -0.040588 0)
(0.883671 -0.352222 1.69616e-21)
(-0.119259 -0.0169961 0)
(1.1537 -0.0561795 0)
(-0.0533389 -0.0306772 0)
(1.31702 -0.0227728 0)
(1.1505 -0.0584785 4.78591e-20)
(1.00097 -0.0136773 -4.08179e-22)
(0.608813 0.0757749 0)
(1.00124 -0.0141737 4.91819e-22)
(1.08569 -0.0758834 -4.52864e-22)
(1.16277 0.0833081 0)
(1.00049 -0.000352244 0)
(1.06176 -0.0233703 -1.40991e-20)
(1.27292 -0.116151 4.71508e-20)
(1.34721 -0.334719 0)
(-0.247038 -0.0117108 1.48874e-19)
(-0.100827 0.0124971 -1.10271e-19)
(0.861414 0.106661 0)
(1.00034 -0.0076266 0)
(-0.12244 0.0135606 -3.47742e-21)
(-0.227957 -0.00523348 -7.06786e-20)
(1.15737 0.00089305 2.90768e-20)
(-0.171032 -0.0158573 1.81751e-20)
(1.29945 0.0261526 4.50585e-20)
(1.19063 0.0918727 0)
(1.19243 0.0923626 -3.40087e-21)
(1.1732 0.0234385 3.62997e-20)
(-0.150979 -0.0107542 0)
(0.809845 -0.0589261 1.26671e-19)
(-0.186708 0.00437781 0)
(0.908145 -0.296483 3.89362e-20)
(1.131 -0.0986128 0)
(0.894713 -0.408058 -7.49927e-21)
(1.19243 -0.313163 6.43683e-20)
(0.925142 -0.722462 4.59789e-20)
(1.0681 0.00412165 -2.40688e-22)
(1.13081 -0.256284 0)
(0.140027 0.0464622 0)
(0.880991 0.00279399 9.97485e-20)
(1.12033 -0.047518 -1.74076e-21)
(0.091472 0.0290426 -5.08028e-20)
(-0.204678 -0.0138054 -1.40997e-19)
(0.00373445 0.00784049 3.29876e-20)
(0.987479 -0.0455187 7.14993e-21)
(1.3481 -0.27716 0)
(-0.171649 -0.0026594 0)
(0.237179 0.0580575 -3.82006e-20)
(-0.315337 -0.0106605 1.8625e-19)
(1.05588 -0.0347074 -1.25476e-20)
(1.10175 0.0268866 3.59701e-20)
(1.29923 -0.143866 1.03638e-19)
(-0.0173397 0.00560694 0)
(-0.000418397 0.00787428 0)
(1.13952 -0.0244894 -1.25394e-21)
(-0.166384 -0.00977541 -1.77845e-20)
(1.01433 -0.00155079 -8.39463e-21)
(0.794143 -0.611492 0)
(1.11507 0.0259718 0)
(1.04735 -0.108157 9.37869e-21)
(0.166469 -0.0415365 -7.32817e-20)
(1.03038 -0.014823 -4.90281e-21)
(-0.118964 0.00316429 0)
(1.1304 -0.0145028 -1.81004e-20)
(0.964769 -0.33123 0)
(0.917612 -0.101036 4.04152e-21)
(0.875972 -0.0860285 -1.01864e-21)
(-0.250263 -0.0141861 1.34366e-19)
(0.99907 -0.00791063 0)
(1.03472 -0.0353438 0)
(-0.180209 -0.013435 -7.5112e-20)
(-0.279082 -0.00728005 7.95147e-20)
(1.12091 0.0106673 -1.65058e-20)
(1.0176 -0.0117898 0)
(0.993726 -0.136859 -9.85694e-22)
(-0.242933 -0.00457589 -8.29268e-20)
(1.1849 0.0386907 -2.49203e-20)
(-0.196821 0.000320347 -3.94679e-20)
(0.528405 0.0233897 0)
(1.12962 -0.054446 5.60809e-20)
(0.999638 -0.00331556 -1.46922e-22)
(-0.0516047 -0.0349706 0)
(0.881295 -0.420491 -4.44289e-21)
(-0.0885654 0.0126759 8.99767e-20)
(1.12527 -0.00862338 -5.67832e-23)
(0.854573 -0.0816609 0)
(1.17317 0.0511717 -2.27308e-20)
(1.00041 -0.0430055 -2.79485e-21)
(1.0286 -0.000572378 1.21664e-20)
(1.13758 -0.0258249 -1.75234e-20)
(1.23443 0.0591464 0)
(0.635264 -0.299653 6.30466e-20)
(1.16621 0.0814331 -3.80608e-20)
(1.02114 -0.00150441 -1.33633e-21)
(-0.32276 -0.0118614 1.09931e-19)
(0.859468 0.106534 0)
(0.976309 -0.0273282 -6.13031e-21)
(1.01362 -0.042683 0)
(0.89996 -0.104651 -5.56877e-21)
(1.00385 -0.0190299 -2.5055e-22)
(1.09076 0.0248277 6.27305e-22)
(1.28984 0.0232639 0)
(1.00227 -0.0278013 -7.9825e-22)
(1.00209 -0.0376765 -6.53477e-21)
(0.99944 -0.00725587 7.14631e-21)
(1.02826 -0.0518398 3.23898e-22)
(1.00121 -0.0202511 3.36773e-22)
(1.02904 -0.00279001 0)
(0.576912 0.006774 7.03952e-20)
(1.14132 -0.167155 0)
(1.01498 -0.18282 1.35354e-21)
(-0.20837 -0.0123813 1.28677e-19)
(0.998807 -0.00836208 0)
(1.07736 0.0114393 -7.54641e-21)
(1.08789 -0.0362657 1.47639e-20)
(0.302318 -0.0704805 -3.57155e-21)
(0.140676 -0.247888 0)
(-0.053174 0.0155692 -1.21389e-20)
(1.08141 -0.119455 0)
(0.999605 -0.00698448 -7.04179e-21)
(-0.17228 -0.0170253 -7.95754e-20)
(1.01707 -0.0532289 -3.78414e-21)
(0.073141 0.0300218 7.25562e-22)
(1.10868 -0.0589513 -2.41794e-20)
(1.20131 -0.169071 -4.28655e-21)
(1.32209 -0.0997939 -6.04736e-20)
(-0.204174 0.00285245 -5.33754e-20)
(0.992537 -0.0404257 0)
(1.04052 0.00258481 -7.31609e-23)
(1.0603 0.0168205 -4.80764e-20)
(0.268715 0.0626042 -3.66613e-20)
(1.12423 -0.0204596 0)
(1.01835 -0.166012 0)
(1.03454 -0.00317597 2.26132e-20)
(1.27465 -0.0120408 1.39792e-19)
(1.11343 0.0302926 -4.24162e-20)
(1.12626 -0.019283 1.11428e-21)
(0.977399 -0.0884251 -1.64292e-20)
(1.02922 -0.00216412 -9.0192e-21)
(-0.211461 0.00146587 9.94129e-20)
(1.08592 -0.132025 -2.41236e-20)
(1.02312 -0.00631962 0)
(0.346569 0.697019 9.6452e-20)
(-0.183241 -0.0146277 1.14076e-19)
(-0.211575 -0.00794294 1.42939e-19)
(-0.326306 -0.0109677 -2.72467e-19)
(1.1421 0.0773635 0)
(1.02665 -0.0033899 1.78948e-20)
(-0.236204 -0.00858635 0)
(1.25707 -0.00106852 -5.58813e-20)
(1.3284 -0.341305 4.22381e-20)
(1.11979 -0.0957117 -4.25059e-24)
(0.86788 -0.0873961 6.417e-20)
(1.17605 0.0509596 5.76917e-21)
(1.01568 -0.16004 -6.38446e-22)
(-0.166192 -0.0167815 6.50132e-20)
(1.32384 -0.0485237 1.03158e-19)
(1.01011 -0.00348141 1.79735e-21)
(1.20372 -0.0252282 6.43669e-21)
(1.17029 0.0544305 -4.20644e-20)
(1.00369 -0.049583 6.1433e-22)
(0.0419588 -0.0960607 4.75824e-22)
(1.07942 -0.00307291 -1.50779e-20)
(0.960698 -0.0858618 1.40203e-20)
(0.107713 0.00950328 -4.62224e-20)
(0.457579 0.0778712 0)
(0.997606 -0.0457474 0)
(0.056285 0.0290255 0)
(-0.089773 -0.0290634 0)
(1.00411 -0.0156497 2.96543e-22)
(0.999504 -0.0713574 0)
(1.21999 0.0613927 0)
(0.437182 0.62086 -4.55866e-20)
(0.665432 -0.333665 4.94448e-20)
(1.02517 -0.00984009 7.10799e-21)
(1.18029 -0.0393127 0)
(1.162 -0.0492897 0)
(0.434694 0.0792431 6.62609e-20)
(-0.101877 0.0152879 0)
(-0.110261 -0.0221957 6.04388e-21)
(0.721103 -0.167301 -7.93327e-20)
(1.05431 -0.0352153 0)
(-0.155049 -0.0209902 0)
(1.09139 -0.0296036 3.16031e-20)
(0.757072 -0.00358017 -9.17897e-20)
(1.06644 -0.0638094 -1.40856e-21)
(0.409594 0.0756833 -5.34107e-20)
(0.502633 0.515903 5.83901e-20)
(1.06431 -0.0628552 -4.78807e-21)
(1.00552 -0.00101098 5.1789e-21)
(1.12862 -0.0126952 3.47596e-20)
(0.270164 -0.0440763 -7.29271e-20)
(0.369122 -0.156255 0)
(0.998363 -0.0438712 -3.69764e-21)
(0.984221 -0.0253942 5.22031e-21)
(-0.12528 -0.0121154 6.39681e-20)
(1.02252 -0.0309412 8.4505e-22)
(0.381601 0.18695 0)
(1.03042 -0.554948 0)
(1.0239 -0.00863468 1.33913e-20)
(1.0209 -0.0337105 -2.02001e-22)
(0.185885 0.0509395 0)
(1.11749 -0.0461045 -2.46413e-20)
(0.156543 0.0240521 0)
(0.519384 -0.679511 1.77463e-19)
(1.0018 -0.0570696 -3.40648e-21)
(1.07436 -0.0848726 2.60481e-20)
(1.1522 0.0889771 0)
(1.09279 -0.0523893 -3.29819e-20)
(1.20051 -0.00702322 -8.65333e-22)
(1.15011 0.0884058 0)
(0.824916 -0.0990054 -1.325e-20)
(1.00249 -0.0269263 0)
(1.02406 -0.00931434 -7.2507e-21)
(-0.0704418 0.0214075 0)
(1.11738 -0.0923917 4.14773e-24)
(1.00103 -0.0192136 2.58174e-21)
(-0.0861373 0.0199534 -2.25976e-20)
(-0.17926 -0.0222195 0)
(1.03542 -0.0452731 0)
(0.540345 -0.542857 7.20992e-20)
(1.02391 -0.0282844 -6.94736e-21)
(1.07664 -0.0840012 4.8239e-21)
(0.990281 -0.044892 1.06532e-20)
(-0.208997 -0.000154199 -7.44284e-20)
(-0.142873 -0.01457 -1.2748e-19)
(0.97343 -0.0262475 -8.71983e-21)
(1.03615 -0.0664488 0)
(0.0884823 -0.00428866 0)
(1.10279 -0.00157586 2.48024e-20)
(1.21519 -0.156481 1.74655e-20)
(1.07893 -0.00928696 4.57267e-20)
(1.06006 -0.234019 -2.20102e-20)
(0.981624 -0.0316411 -1.90104e-20)
(1.10111 -0.158362 -7.38088e-23)
(0.996462 -0.0418487 1.8652e-21)
(1.33488 -0.0746143 -9.90352e-20)
(-0.167059 -0.00178304 -7.21366e-20)
(1.07167 -0.0497624 5.83599e-21)
(1.14779 -0.0638395 1.2045e-20)
(-0.0697711 0.0209268 -8.49682e-20)
(1.08085 -0.073414 1.78338e-20)
(0.237091 0.0574079 -2.6451e-21)
(1.26831 -0.0654311 3.30838e-20)