/*--------------------------------*- C++ -*----------------------------------*\
| =========                 |                                                 |
| \\      /  F ield         | OpenFOAM: The Open Source CFD Toolbox           |
|  \\    /   O peration     | Version:  v2012                                 |
|   \\  /    A nd           | Website:  www.openfoam.com                      |
|    \\/     M anipulation  |                                                 |
\*---------------------------------------------------------------------------*/
FoamFile
{
    version     2.0;
    format      ascii;
    class       volScalarField;
    location    "300";
    object      ddt0(k);
}
// * * * * * * * * * * * * * * * * * * * * * * * * * * * * * * * * * * * * * //

dimensions      [0 2 -3 0 0 0 0];


internalField   nonuniform List<scalar> 
14804
(
-5.1672e-11
-2.38839e-11
3.22647e-06
-1.02134e-11
1.04854e-11
3.57801e-10
-3.56082e-07
-2.86854e-10
-1.13116e-09
-1.16652e-10
-1.66005e-07
1.91022e-07
1.83025e-05
-7.70034e-05
6.44757e-07
-2.31763e-11
-1.29473e-07
-6.30166e-05
-2.41886e-11
-4.73427e-11
-9.89954e-11
-1.54084e-11
1.20321e-09
-3.76092e-11
5.76358e-05
-3.7567e-07
-3.46892e-07
-1.04935e-11
6.64804e-07
-3.64123e-07
2.01711e-05
-1.08939e-07
2.47061e-10
-2.43444e-10
-1.74953e-06
-1.10474e-11
-1.59256e-12
-2.98483e-11
-1.57154e-05
-3.8386e-11
-1.66294e-06
-4.46931e-08
-2.60249e-09
1.7848e-11
-9.31231e-05
-2.05984e-05
-6.52481e-08
-1.13398e-11
4.97451e-09
-1.06516e-10
-1.47802e-12
-3.27953e-11
7.25619e-10
6.07568e-09
2.48313e-10
-1.59225e-11
-3.57358e-07
-1.7246e-07
-1.20347e-05
2.44337e-05
-1.65665e-07
-1.74769e-06
-3.91777e-11
-2.42099e-11
5.2704e-11
3.01385e-07
3.70625e-05
-9.69126e-11
-3.7552e-10
1.48921e-10
6.23108e-11
-1.94458e-10
2.70915e-11
1.1834e-09
3.24607e-06
-1.74971e-12
3.20259e-11
1.70601e-09
-2.86238e-11
1.54055e-08
2.31213e-08
-7.73879e-10
-2.5941e-09
-3.15448e-07
-4.5753e-11
-6.60675e-12
-3.10675e-11
-1.92299e-11
3.29124e-10
3.01686e-10
-1.44521e-05
-1.96898e-11
-3.914e-11
-2.95084e-11
-7.48727e-10
-1.01011e-06
-2.24332e-11
-9.92475e-05
-2.08289e-10
6.88653e-08
-1.99344e-05
-1.8926e-06
-1.83807e-08
7.20102e-11
-6.92448e-09
2.37278e-05
-9.26969e-11
-2.93739e-11
-3.0121e-10
1.04117e-07
-2.43384e-11
-2.18335e-10
6.23853e-06
3.6087e-10
-1.47986e-10
2.57077e-06
6.48812e-08
-2.94992e-09
-2.38971e-11
-1.0126e-10
3.13021e-06
7.68205e-09
-2.87829e-11
-1.65877e-09
-2.89764e-11
2.11761e-10
-1.97228e-11
-3.8455e-11
-4.17664e-10
-3.17642e-07
-1.72823e-11
-1.20098e-06
2.87751e-10
5.7568e-05
4.93884e-10
-1.34148e-05
1.3676e-05
-9.15641e-09
3.22813e-06
1.81169e-05
-1.61713e-12
1.62162e-09
-8.49378e-09
1.88749e-11
-0.000306942
2.48196e-10
-3.37526e-08
-1.74198e-06
-3.14866e-07
-5.88625e-10
3.71441e-05
-1.50351e-11
-1.50365e-08
0.000106514
-5.90629e-11
-1.10798e-11
2.75284e-05
3.45322e-11
-7.53856e-12
-2.74048e-07
7.20298e-12
-3.62312e-10
-4.12822e-11
9.29449e-10
-2.17102e-10
-2.69659e-06
-3.52646e-11
-7.26225e-10
-1.87283e-06
3.51726e-11
8.96555e-12
2.72644e-11
1.10639e-06
7.09561e-11
8.61135e-07
-1.27501e-07
7.57541e-07
3.25716e-07
1.31442e-06
-2.43398e-06
2.81145e-10
5.15044e-09
-4.01279e-11
-2.07718e-05
1.18045e-10
3.02022e-06
-1.41184e-05
-4.53618e-08
5.23512e-05
-4.58511e-11
9.34801e-11
3.57403e-07
-4.47892e-07
3.68369e-06
-1.39006e-05
-2.48704e-05
-7.90499e-06
-9.26785e-08
-3.42123e-11
-8.99138e-07
-3.12425e-12
-1.69945e-11
-4.13483e-10
-4.50279e-07
3.96605e-10
3.32211e-09
2.92079e-05
8.7548e-05
3.35695e-10
-2.18159e-11
-4.34221e-11
2.91075e-06
-3.23533e-10
-7.97695e-12
-5.95459e-07
-5.4598e-13
1.34979e-06
-1.91702e-11
1.43221e-07
7.73426e-05
-4.20219e-09
-4.83884e-05
-2.33531e-11
-1.86404e-06
1.5203e-07
2.86774e-09
-1.79387e-07
4.07103e-12
3.80911e-05
-1.008e-06
1.34123e-09
-1.26078e-05
-2.86201e-11
-2.6862e-11
-4.92358e-05
-1.61876e-11
1.83462e-06
-9.09014e-06
1.13598e-11
-7.01467e-06
-1.77006e-06
4.56367e-09
4.9062e-05
7.89335e-08
-4.14694e-11
-1.50025e-11
3.72398e-09
-1.42571e-07
-4.74136e-10
-1.53608e-10
1.99344e-06
-2.31646e-06
3.2436e-10
6.07865e-10
-3.91453e-11
-7.50166e-06
-3.50164e-07
1.27019e-06
-1.00713e-06
5.39567e-08
7.89764e-10
6.2544e-05
-3.54369e-11
1.5456e-07
8.18816e-11
-3.87417e-07
-6.43506e-12
-4.35841e-05
-4.24333e-07
-3.91051e-11
-2.31767e-11
-9.05347e-08
1.03712e-08
-2.32671e-06
-8.47904e-10
-7.01668e-05
-3.19526e-11
6.60807e-10
-3.84001e-11
-6.39732e-05
-8.60714e-12
1.4326e-06
-2.1838e-11
1.37078e-09
1.44565e-11
5.5801e-09
-5.39045e-11
-2.90282e-07
4.27726e-12
-2.95281e-09
-3.40901e-07
-7.86883e-10
3.94142e-06
-2.16454e-06
-1.39775e-11
-7.75586e-11
1.04844e-06
-4.57677e-11
-1.3758e-10
-1.45091e-11
2.9787e-09
9.9048e-10
5.68446e-12
2.52961e-09
-1.89071e-11
-1.01245e-05
-2.33331e-06
-1.01086e-11
-1.78692e-06
1.72458e-08
-2.85454e-11
-1.48189e-11
1.89925e-06
-9.6185e-12
-2.13005e-06
-2.10585e-10
7.43087e-09
-2.60598e-11
2.31925e-06
-3.38989e-11
2.01103e-09
-1.12578e-11
1.76695e-06
3.99238e-05
-3.16075e-11
-6.72518e-11
-4.47736e-09
2.50174e-06
7.1894e-07
1.07092e-08
-4.71287e-08
-5.76804e-11
-3.78861e-11
-3.1113e-07
-4.60394e-10
-2.69022e-08
-5.56704e-10
-3.02878e-07
3.11959e-06
-3.7641e-08
-6.597e-08
-4.00543e-09
-8.18422e-07
2.63028e-06
2.94378e-11
3.98757e-11
-1.60653e-06
-5.75975e-07
-4.2264e-11
-2.62702e-11
3.13943e-10
-1.35309e-10
-4.77576e-11
5.98851e-05
-7.33636e-11
5.84855e-10
-8.49789e-06
-5.82889e-11
4.30552e-05
-3.25433e-11
-2.21821e-08
-1.86682e-11
-2.13764e-06
1.72182e-06
-2.84194e-07
-1.44919e-09
-2.77148e-11
-2.97102e-05
1.49217e-06
-2.80341e-08
4.09684e-10
-2.86215e-07
-8.51944e-10
-2.15061e-05
-8.33686e-08
2.77381e-06
1.7215e-07
2.37117e-07
7.85233e-13
-3.33403e-09
-1.95319e-11
1.06639e-07
-1.97198e-06
-1.4688e-10
-1.4157e-09
-2.84987e-11
-4.94076e-11
-7.88591e-11
1.54185e-07
-2.62334e-11
1.48776e-06
-1.17077e-08
1.24644e-10
-3.38746e-11
-1.61495e-11
5.59917e-08
3.80075e-07
5.36316e-10
-2.94754e-07
-2.83454e-08
2.37519e-10
2.62226e-09
-3.34333e-08
7.89889e-07
-9.22069e-09
-4.99517e-10
1.60735e-08
-2.12694e-11
-6.59453e-09
-7.9797e-11
-1.03083e-11
-7.78021e-09
-1.07042e-07
-3.19286e-07
9.48931e-06
-4.98585e-11
3.30804e-05
5.59682e-12
7.58752e-11
2.23498e-10
-1.37783e-05
-5.42792e-11
-5.12057e-10
-2.36244e-06
-1.11852e-10
-2.49817e-12
2.85576e-10
3.44971e-07
5.03288e-10
-2.2851e-11
-5.42971e-11
-1.37469e-10
-8.23161e-06
6.90549e-08
2.61082e-11
-2.19421e-06
-2.16108e-09
3.2306e-07
-7.19332e-13
2.89126e-07
-1.11112e-07
1.5869e-11
1.97227e-08
-3.36556e-11
2.66295e-10
4.42943e-09
1.94809e-05
2.92992e-10
-5.69568e-12
4.68858e-05
-3.26105e-08
-1.64655e-05
8.0064e-07
1.99478e-07
-1.80628e-07
-1.17149e-11
2.55893e-05
-1.89955e-11
1.41117e-09
-4.25951e-09
-5.21545e-11
-6.78714e-10
9.86642e-10
5.35846e-05
-8.15427e-12
1.58738e-06
2.77124e-10
-9.67679e-09
-2.87802e-07
1.63139e-11
-2.02708e-11
-1.24261e-11
-8.61188e-09
7.48472e-06
-9.66161e-07
-5.07189e-09
-1.28374e-10
-4.91542e-10
-3.24014e-10
1.21493e-08
1.73972e-10
-1.68288e-06
-7.18144e-07
-9.03902e-09
3.21349e-06
8.18011e-07
-3.2483e-05
-1.88965e-11
1.8097e-06
-7.91748e-08
2.93204e-07
9.37345e-09
-1.0221e-09
-7.58953e-06
3.53575e-07
-6.71928e-11
1.08154e-10
3.08742e-05
-2.2632e-11
-1.25774e-10
3.76041e-10
1.61323e-11
-6.10866e-10
3.60355e-08
3.49569e-10
-2.33931e-08
-1.24534e-09
8.8675e-10
-1.61159e-10
-1.66738e-07
-2.92728e-10
3.84566e-07
-2.41335e-05
-1.04663e-11
3.2782e-09
3.97893e-05
-2.50745e-07
2.23541e-07
-1.04918e-11
9.16153e-09
3.44591e-11
-3.19416e-08
1.2166e-07
-3.0637e-06
-7.54912e-08
-2.30347e-07
-2.91823e-08
-1.43729e-06
5.14604e-07
-5.41846e-07
2.65914e-05
-1.20265e-11
-3.01455e-07
7.14775e-06
1.29877e-05
-2.81272e-11
2.15898e-05
4.46702e-11
-9.36988e-08
-6.0026e-07
-7.80675e-12
-5.69856e-06
-2.96839e-12
-1.5477e-08
-1.97295e-09
3.69412e-10
-1.4557e-07
-5.177e-12
3.60438e-10
-5.13003e-11
-5.53265e-11
-2.02308e-11
-9.67022e-12
-1.77609e-11
6.64542e-09
-2.78261e-11
1.92382e-05
-6.12079e-05
-5.4073e-11
4.20749e-08
-2.97952e-11
-1.93665e-07
7.87722e-13
2.34601e-05
2.60742e-11
8.86678e-07
1.88155e-10
-6.94167e-07
5.33475e-07
-7.9269e-11
2.15514e-10
5.75907e-08
1.89496e-06
-4.40783e-07
7.93043e-09
3.94315e-10
6.06436e-05
1.56541e-06
-5.02071e-07
-2.70966e-11
5.42602e-07
-8.18604e-11
1.5178e-08
-9.68815e-07
-2.06044e-08
-3.8939e-08
-2.32777e-12
-7.75063e-12
-1.28319e-11
-9.0223e-12
-9.69684e-07
5.99371e-11
2.48075e-05
4.28294e-05
1.26771e-05
4.4639e-07
-3.18633e-07
-3.13454e-07
6.16117e-09
4.60973e-10
-1.57109e-06
1.45778e-06
-2.72851e-12
-3.66501e-08
-3.06755e-07
-5.72861e-06
-4.9738e-10
2.92391e-05
-8.78566e-12
-1.81907e-08
3.28617e-07
1.88948e-11
-1.11291e-05
7.80199e-07
-1.02395e-05
-1.58393e-07
3.4324e-10
1.47821e-11
3.18985e-07
-1.40266e-10
-5.71254e-10
-2.31565e-08
-6.80843e-08
4.91115e-07
-9.43531e-10
1.61638e-10
-2.55926e-05
-5.41832e-11
4.68086e-06
2.16594e-10
-9.16325e-11
-3.49879e-11
-2.92196e-07
-1.76528e-12
3.42675e-10
-2.97459e-11
-7.53832e-10
-3.33734e-05
6.08997e-10
-2.09971e-10
-7.54072e-06
-3.58006e-05
-5.31841e-13
2.64483e-09
-1.9254e-11
-9.7868e-11
7.68582e-11
-3.91043e-11
-9.43357e-12
-1.636e-09
3.36208e-05
3.60044e-07
-1.9603e-11
3.64335e-10
-5.23143e-08
-3.5675e-05
5.26569e-05
5.25401e-10
-2.04368e-09
-7.45143e-08
1.08227e-05
-4.07999e-11
1.8639e-06
-1.07228e-11
-5.47217e-08
7.15992e-07
4.45441e-07
-1.34692e-08
4.10742e-07
-3.60899e-11
-1.77046e-06
2.5185e-09
2.72234e-11
1.71007e-06
3.47034e-09
4.01061e-11
-6.58123e-05
-8.21986e-09
-7.41452e-06
2.55402e-08
-3.98736e-11
3.0233e-08
-1.41188e-05
3.89835e-07
-2.17791e-08
-4.32027e-11
-3.74391e-06
-1.25723e-09
-2.75549e-11
-1.22974e-09
-1.5053e-11
-1.82166e-06
-4.79051e-07
3.26484e-10
-5.95637e-11
-5.76259e-11
4.02799e-10
-1.98023e-06
-1.07007e-09
1.46693e-07
-1.2902e-09
-1.46587e-05
-1.60472e-11
-3.61288e-11
1.41941e-06
-2.0513e-07
-3.54278e-07
1.73555e-06
4.6705e-11
7.02213e-07
-2.65078e-13
2.47539e-08
-2.39589e-07
-1.15159e-07
2.89338e-07
2.44706e-08
-5.36193e-11
-1.68574e-10
2.28537e-07
-4.49819e-06
4.87441e-05
1.83893e-10
-2.30898e-11
-2.47764e-09
-2.22017e-06
1.78189e-05
-2.02111e-11
-4.07584e-10
-2.24983e-11
-3.4853e-05
-8.2379e-08
2.35296e-05
4.22117e-06
-2.27412e-06
7.73625e-07
-4.33804e-12
-5.99359e-11
-1.8165e-12
-3.05304e-06
-1.5769e-09
-2.6084e-08
1.95588e-05
-2.01609e-12
1.61292e-10
-2.78737e-07
-3.61339e-09
2.77236e-06
-6.15173e-11
-1.26945e-11
-7.59451e-12
-4.77273e-09
3.78055e-09
5.80359e-06
5.37441e-09
-3.58675e-07
-5.5802e-10
5.2305e-05
7.23423e-11
1.51155e-06
2.52906e-11
-1.6945e-08
-1.3778e-11
9.24161e-07
-1.00984e-05
-3.38691e-07
3.20935e-06
-2.70862e-11
-2.57328e-11
-3.47577e-07
3.05164e-05
3.50421e-07
9.64853e-07
-3.40589e-11
2.54241e-11
-1.25705e-06
1.39279e-08
7.83624e-10
2.97412e-11
-2.55414e-06
-4.23008e-06
2.59524e-06
-6.97745e-10
-9.23262e-12
-3.09858e-07
1.13881e-09
-2.0258e-06
-9.32859e-07
-1.12686e-08
-1.28709e-11
5.51511e-07
3.91565e-07
6.32636e-09
-2.25693e-11
4.63251e-10
-1.0527e-11
1.51859e-08
-3.29966e-06
3.43448e-05
1.82406e-11
6.29306e-12
1.95201e-06
-1.26184e-11
-6.65646e-13
-1.33603e-05
-2.82286e-11
-7.96936e-11
-3.91134e-12
-1.40319e-08
-2.03821e-11
-2.61876e-08
8.28686e-07
-1.44121e-11
1.38749e-07
2.00272e-11
2.69189e-06
1.04994e-13
-2.49386e-12
-1.74174e-08
7.61923e-06
9.06287e-07
-4.0924e-09
-3.40123e-05
-4.32153e-09
-4.12804e-11
1.92213e-06
-1.06236e-11
-2.17494e-11
-6.7846e-12
-1.96061e-11
9.9933e-07
-2.51863e-11
-1.53664e-11
-3.37901e-07
-1.31144e-11
1.28364e-06
4.69418e-10
-2.09956e-06
-1.15711e-11
-5.88086e-08
5.78348e-07
2.99095e-06
1.01776e-05
-7.92091e-12
-9.07849e-07
9.65977e-07
1.23857e-06
-2.73184e-11
4.47724e-09
-1.8915e-09
-2.60902e-10
-1.9742e-10
-4.90451e-12
-2.38076e-07
2.25651e-06
-1.90063e-09
8.57824e-10
7.5186e-13
-2.17617e-08
3.66126e-07
-5.25953e-07
-1.09974e-11
-1.28955e-10
2.8803e-05
3.11626e-06
-1.18256e-11
-3.08523e-11
2.73306e-06
1.1581e-08
1.53415e-06
2.60979e-06
5.11378e-09
5.02323e-11
-3.31702e-11
4.29278e-05
-1.10073e-11
-2.74851e-11
3.26386e-10
-2.95003e-07
-1.3448e-11
-1.77879e-11
-1.46113e-11
-1.84872e-11
-1.32293e-09
-6.47263e-10
-8.06367e-12
1.5211e-07
-1.67649e-05
9.08404e-06
-9.94632e-06
-2.07483e-06
-3.91608e-13
-1.02795e-10
-2.23968e-07
1.66413e-10
-2.20126e-11
-2.66372e-06
-2.05213e-11
-3.11829e-08
2.27998e-06
1.62578e-10
-4.13419e-11
-4.75991e-12
-4.41267e-09
4.82531e-11
-4.3174e-10
-6.11915e-10
-1.20213e-09
1.01074e-06
-1.05136e-05
2.28006e-09
-1.26773e-09
-1.19034e-11
5.46985e-07
4.16591e-06
-2.15851e-09
2.25548e-08
-1.86405e-05
4.27062e-13
1.59627e-08
-2.90243e-07
5.90866e-10
-1.32586e-10
5.85315e-11
1.09443e-11
3.14254e-06
9.59127e-07
1.48932e-10
-1.38657e-08
-9.62351e-10
3.93377e-11
-2.41688e-11
-3.09005e-11
2.1489e-11
-3.27522e-11
1.38496e-05
4.23446e-07
-6.27086e-10
6.23293e-09
-3.01249e-05
-1.90001e-06
3.85765e-11
-5.06789e-09
-1.78526e-05
2.65242e-06
2.81656e-07
-2.84334e-05
-8.01234e-12
8.85613e-09
-2.22762e-07
-4.12113e-11
-4.783e-11
3.16313e-11
-7.07818e-11
-2.36826e-07
2.43077e-09
5.22813e-10
5.30547e-09
9.74769e-08
-3.08184e-06
-3.06427e-11
-1.40624e-09
3.32145e-06
1.23091e-11
-2.18635e-11
-5.76963e-09
-3.17048e-11
2.84381e-11
-4.9274e-11
3.52261e-06
-7.83558e-10
1.78048e-06
-3.0355e-07
-4.51181e-09
-1.39443e-08
-1.71918e-08
6.44823e-06
-1.98078e-11
-3.41742e-10
3.26345e-11
1.55954e-07
1.14138e-11
2.42923e-06
1.3698e-07
5.60974e-06
1.14065e-11
-1.19659e-07
-6.30233e-07
9.3083e-09
1.48961e-09
-2.7957e-10
-4.8627e-09
-2.55091e-08
-1.1106e-05
2.31743e-06
-2.93736e-11
-3.08981e-06
1.9081e-09
6.25445e-11
-1.90292e-06
-2.25882e-06
-8.97867e-11
2.05e-07
-8.48877e-08
-1.28623e-11
1.71334e-05
9.81644e-07
-1.92155e-06
2.20083e-11
-6.73596e-09
-2.09191e-08
-9.8407e-12
3.50677e-07
-2.63188e-11
5.80398e-09
-1.44072e-10
2.0299e-06
-4.38133e-11
1.11069e-10
-7.43754e-09
2.19004e-10
-7.52701e-08
9.26332e-07
1.95497e-06
9.81e-09
1.31253e-09
1.76514e-06
2.40518e-06
-1.03193e-11
-1.29877e-10
2.76903e-12
1.13118e-11
6.51217e-07
-2.09393e-09
-2.40676e-10
-4.70566e-07
-6.8836e-10
1.32282e-13
-1.16232e-11
2.48897e-09
-2.44994e-09
-2.2371e-11
-3.48473e-12
-9.43529e-11
2.40921e-12
-1.29373e-05
-1.48698e-08
4.2888e-06
1.29783e-08
2.03216e-06
1.34409e-05
3.70344e-05
-3.02846e-05
-2.59165e-12
-2.25503e-06
5.7665e-07
-6.11048e-06
-3.81001e-11
-2.94767e-11
-4.99346e-12
7.37575e-07
5.37532e-07
-2.14555e-11
7.16993e-07
2.16249e-12
-1.71892e-11
4.45739e-08
1.3524e-07
2.58435e-08
-7.08128e-12
1.48166e-10
2.15935e-10
-1.2236e-11
1.49404e-09
-1.37148e-10
2.06279e-11
-3.8112e-11
1.94004e-06
-1.69454e-11
-2.48709e-11
-4.89742e-11
-6.29409e-06
1.16705e-06
-9.05184e-11
-4.54312e-11
2.00928e-09
-3.56717e-11
1.63974e-05
-6.44938e-09
2.75971e-10
1.86214e-13
-1.05157e-07
3.38215e-10
2.37552e-06
-5.84884e-12
2.6571e-07
-4.94664e-07
4.44476e-10
1.11448e-06
-7.45278e-06
-1.06899e-10
7.45585e-09
1.64279e-06
-3.31411e-05
3.21798e-07
-1.03477e-10
-1.25771e-05
-3.27214e-07
8.58732e-07
-3.84474e-11
-6.47923e-09
-3.27962e-10
5.07021e-06
-6.35794e-09
2.45508e-11
-2.81594e-06
3.42272e-08
2.21797e-11
-3.80914e-11
-3.10959e-07
-1.95212e-06
-2.81722e-07
-1.59979e-05
1.446e-07
5.44454e-09
1.13668e-09
-9.85027e-10
1.83593e-06
-3.77673e-07
2.45756e-06
-1.98335e-09
-4.61143e-11
5.73571e-06
-3.36119e-11
8.22836e-12
7.21332e-07
-1.18955e-10
1.69583e-07
-9.18194e-11
4.22888e-12
-7.46704e-11
-1.47426e-11
-2.81064e-11
6.11738e-05
-3.36645e-11
1.20635e-08
-2.18681e-05
-3.98287e-11
3.34342e-10
1.71897e-06
-1.51422e-05
6.20944e-13
-4.29919e-11
-1.34179e-11
2.42041e-07
-1.27399e-10
-6.5793e-06
-9.11072e-11
-2.02138e-10
2.85665e-07
6.35662e-07
-7.81122e-06
1.24377e-05
2.70046e-10
-4.31086e-11
2.1072e-05
5.32642e-07
-2.47847e-06
-5.34929e-11
4.73758e-07
-1.0192e-10
-6.49647e-12
-7.21087e-11
-7.55719e-11
2.6519e-06
-4.22018e-08
-5.84365e-09
2.15407e-07
-9.57286e-06
-3.41603e-06
1.02336e-06
-5.61024e-10
-1.13756e-09
1.04451e-06
1.02493e-11
3.87687e-10
5.8014e-13
1.17386e-09
-1.73989e-05
-3.84271e-11
-6.95232e-09
2.25629e-05
-9.5277e-07
-9.71805e-10
-8.19697e-11
-2.34146e-11
9.48734e-12
4.75869e-05
-2.09003e-08
2.39315e-07
-1.2636e-10
-1.55409e-05
3.18513e-06
2.46555e-07
2.49064e-06
2.65101e-05
-1.95687e-08
-1.28507e-07
-2.41302e-05
-4.12533e-06
-1.96649e-08
-1.18086e-09
2.60939e-06
-7.29844e-09
9.0372e-07
-1.46586e-06
-2.41993e-05
1.42074e-11
-1.83047e-07
-2.93233e-06
8.51447e-06
-3.80364e-06
-1.16951e-08
-5.82313e-11
-1.0758e-11
-1.54917e-06
3.83137e-10
-2.40755e-11
-1.01814e-10
-7.49892e-12
-7.42174e-11
1.66914e-07
-6.33665e-09
-3.27755e-06
1.20826e-11
-1.68004e-05
-1.12796e-10
3.90072e-06
-2.22762e-11
1.65945e-06
-2.87469e-06
4.31083e-10
1.25932e-05
-5.79283e-11
-2.8133e-07
1.37098e-06
1.90056e-09
1.16082e-11
-9.55515e-11
6.19373e-11
1.43104e-09
3.30623e-09
-1.29822e-08
-1.57524e-07
-8.58784e-10
-2.4459e-06
2.97386e-10
1.08407e-07
7.55934e-08
-9.65588e-09
-1.02564e-07
1.89954e-06
-8.12068e-11
-1.24782e-09
-3.69806e-11
2.8899e-07
-2.06368e-11
1.6784e-05
9.79403e-09
-8.27515e-12
-2.56223e-11
-4.59263e-12
2.26505e-06
4.38994e-10
-3.08785e-07
2.93422e-06
-4.06486e-11
1.70588e-06
-1.89383e-08
3.05302e-11
0.000104156
-1.13629e-11
-1.54666e-11
5.43225e-11
-1.41001e-08
-7.9792e-09
4.16757e-07
-2.81271e-07
-6.44086e-11
2.06687e-08
1.20898e-06
-5.62484e-11
3.11268e-06
1.02185e-06
-1.28206e-05
-1.36672e-12
4.12571e-07
2.97577e-09
2.01352e-06
-2.86316e-11
2.73658e-10
-1.57744e-07
1.64793e-09
-2.26618e-09
-4.10083e-06
-2.82129e-07
-3.5419e-11
2.47528e-06
-2.86348e-09
2.30608e-11
6.55674e-12
3.96891e-13
-2.95635e-09
-1.00683e-10
5.73662e-07
-2.12709e-07
9.17595e-07
-2.44097e-10
1.09616e-08
-2.16385e-07
4.42827e-10
8.33254e-07
1.69042e-06
-1.09691e-06
-2.1146e-11
1.53028e-08
-9.27191e-11
2.72213e-07
3.30399e-06
-4.38394e-10
-2.53592e-06
9.13327e-07
4.93175e-09
-1.23306e-06
-2.72197e-11
-8.61674e-12
-2.51205e-07
3.93038e-07
4.6161e-12
-1.01753e-06
1.20618e-06
-1.47347e-06
-3.89334e-12
-4.54181e-09
-3.54435e-07
3.68031e-07
-3.02308e-11
2.54473e-06
-1.81084e-11
4.99603e-11
8.65266e-07
6.02032e-05
1.35256e-11
-3.12128e-11
-3.46e-09
1.50066e-07
6.286e-12
-2.76409e-10
-3.0941e-11
-5.17782e-05
-8.45936e-11
-3.4677e-07
3.14349e-13
9.11472e-10
2.63197e-06
-8.29354e-10
-2.12557e-05
4.53812e-10
8.33971e-11
-1.96685e-07
1.94816e-07
-6.71041e-06
-6.2743e-11
-2.26218e-11
-4.4221e-06
-3.03437e-07
3.56606e-07
-3.45349e-09
-9.51446e-11
3.90279e-11
-5.97471e-10
-1.29074e-11
2.79747e-06
-2.26071e-07
-1.77878e-11
-1.4732e-05
2.49955e-11
2.60228e-05
6.68823e-07
5.22062e-09
2.4367e-07
-2.00604e-06
-6.81734e-08
1.33028e-06
7.98501e-10
5.73785e-08
1.24708e-11
-1.42067e-05
-2.09004e-06
6.92904e-11
-2.95193e-11
7.54708e-12
-4.36655e-08
-3.52532e-06
6.82732e-07
1.79178e-06
-2.17238e-11
-1.39146e-11
1.35411e-06
-1.01608e-08
-4.78153e-11
-2.88051e-11
-2.13869e-06
-9.31742e-06
-6.63415e-12
1.43617e-10
-9.12202e-11
-3.87322e-08
1.03829e-11
-4.16354e-12
-4.00836e-11
1.84966e-11
-1.57962e-06
2.1038e-07
5.37751e-08
3.27209e-06
-2.39535e-07
-2.52771e-11
1.15299e-10
-8.34905e-09
-9.10093e-09
-1.07811e-05
-1.80772e-08
7.92899e-07
-2.4574e-07
-1.77814e-11
-6.30381e-11
-7.61821e-12
3.13912e-12
8.56371e-09
4.2913e-06
-2.32498e-06
2.14472e-08
-1.98049e-08
-1.28388e-09
6.22595e-07
2.78818e-07
-9.68284e-06
6.40855e-11
-6.57745e-11
-3.58152e-12
-6.55545e-12
-4.87265e-08
-6.50497e-07
7.17817e-09
-1.29894e-09
-4.4421e-11
-1.2926e-10
-5.12252e-09
1.0822e-11
-1.64161e-07
-4.26946e-11
5.98447e-09
1.61661e-06
4.92906e-05
-3.03768e-10
-8.51884e-07
6.70774e-08
5.82806e-12
-3.21459e-07
-9.81938e-07
-6.19034e-05
1.68977e-11
3.24592e-09
-8.94181e-12
-4.29924e-07
-9.70957e-11
2.27288e-07
-7.01737e-11
-1.39783e-05
-1.7146e-06
-1.75577e-11
-1.5131e-10
-4.58138e-08
1.75818e-05
2.42129e-07
5.71564e-10
-2.07975e-07
2.25558e-12
-3.17139e-06
9.45411e-08
-1.72093e-11
-3.71796e-11
8.73756e-09
-1.03684e-07
6.00807e-07
-9.25398e-09
-4.00312e-06
4.19852e-11
-1.58262e-10
-2.49939e-11
3.20891e-11
-9.74917e-10
-1.66091e-05
1.05689e-09
-3.25187e-08
1.37833e-06
-3.41022e-07
1.97972e-06
1.48459e-10
-1.39177e-07
-1.24579e-09
1.00432e-08
-1.52263e-11
3.75914e-11
-6.87209e-08
-4.47175e-08
5.64032e-07
1.13658e-09
2.19054e-11
-1.81226e-11
-1.01583e-10
1.53711e-12
1.4227e-08
-2.11791e-07
-8.30395e-11
-2.74597e-12
2.45695e-12
-6.02206e-09
1.55743e-06
-8.00776e-11
1.76176e-06
-3.03747e-11
3.16544e-06
7.11094e-08
-4.96577e-07
-3.80964e-06
6.74265e-07
-1.77482e-05
-4.06195e-06
-2.07896e-05
6.10096e-10
1.92007e-09
-5.54541e-06
1.07405e-09
2.92775e-10
3.20598e-05
-2.81037e-08
-1.16439e-08
-1.94357e-11
-3.64256e-11
1.20837e-11
1.23102e-05
2.34595e-06
1.95553e-08
1.87238e-06
-4.48711e-07
-5.86255e-07
-2.16089e-06
-1.98347e-07
-1.07434e-06
4.21547e-10
8.19159e-12
-4.30912e-13
-6.79705e-10
-3.41463e-12
7.12992e-06
-1.93105e-05
3.23066e-11
-2.46519e-08
2.4768e-06
3.9113e-11
3.10243e-10
-1.22569e-11
-2.3307e-10
7.23574e-06
5.10696e-07
1.79976e-09
-1.46828e-09
7.31701e-11
5.61066e-11
-9.98426e-09
8.3887e-05
2.58396e-07
4.98694e-09
1.1624e-10
7.7201e-10
2.34361e-11
-2.2533e-10
-2.02055e-11
6.29907e-10
5.71984e-11
2.96406e-10
1.09711e-08
-5.17921e-07
-2.36898e-11
-3.39425e-07
1.8979e-09
5.19723e-05
-2.73588e-05
1.83472e-08
2.59408e-12
-7.07025e-09
-3.64114e-11
-1.62266e-09
3.01791e-06
-1.02447e-05
2.10264e-09
-1.71066e-05
-1.72699e-11
2.14558e-06
1.51169e-06
3.48742e-10
2.61804e-10
-2.36256e-07
-2.14375e-08
4.08587e-12
-2.98282e-12
-2.16469e-11
7.88258e-08
-2.53004e-06
1.44866e-09
1.22455e-06
-6.69742e-09
8.74973e-12
4.41577e-12
-7.44124e-08
-1.40822e-06
-1.31071e-12
-8.64347e-06
-3.01595e-07
1.66285e-05
3.34305e-11
-1.01501e-10
-1.42831e-05
2.82337e-06
-4.07262e-09
4.33754e-09
2.85934e-10
-1.74887e-06
2.32522e-08
3.51979e-09
6.94871e-08
-7.83753e-09
1.3124e-10
4.85302e-07
-1.9823e-11
-1.3571e-08
-6.45911e-06
-5.18159e-12
-8.56865e-08
1.23241e-10
2.98343e-11
-3.25678e-11
-3.94212e-07
-3.01038e-11
1.0406e-10
2.06148e-10
2.52337e-10
-9.21442e-09
3.05982e-06
-2.67109e-07
-7.67315e-09
5.59558e-05
4.33684e-11
-5.45846e-11
3.80144e-07
3.55782e-10
-6.20044e-12
-1.80185e-05
-9.78109e-11
-3.77058e-11
-1.25021e-09
2.09341e-11
2.60251e-05
-1.0472e-05
-5.12124e-10
8.27602e-07
-1.86451e-11
4.19154e-10
-3.07602e-07
-1.2685e-08
-2.76147e-06
4.37631e-10
-1.81698e-13
1.3971e-11
-5.84281e-07
-1.6045e-10
5.34342e-10
5.28276e-09
6.96547e-09
9.36709e-10
-1.80151e-05
1.18983e-07
9.20381e-12
2.59406e-08
4.79232e-08
1.683e-08
-3.3528e-12
-2.13847e-06
2.43632e-06
-2.22131e-09
3.61521e-06
3.13841e-06
-2.06838e-06
1.52991e-06
-2.18143e-10
-1.37034e-07
-1.08241e-08
8.90971e-09
2.13747e-07
-4.04398e-10
8.90601e-09
2.88314e-06
-2.28001e-09
-2.56385e-05
4.41711e-09
-2.27369e-10
3.38072e-06
-2.88015e-06
2.7396e-07
-2.56909e-08
-3.20328e-09
-1.33267e-11
8.47339e-06
-3.79714e-07
-1.76334e-06
-1.6266e-11
7.14641e-10
5.52081e-08
2.03493e-09
-2.14108e-09
-4.98219e-08
3.15227e-10
3.12888e-10
2.82106e-10
5.33526e-05
8.49858e-06
6.41892e-09
-9.66726e-09
2.59817e-06
-1.41835e-06
1.66882e-10
1.11536e-07
8.67619e-09
9.89041e-08
-9.62803e-11
-1.27252e-06
1.89732e-11
3.83828e-12
-1.49572e-11
-2.40327e-11
2.67488e-08
-1.00012e-10
-4.54049e-11
-1.62416e-10
-8.44398e-11
6.58102e-12
0.000102434
1.36697e-08
-1.34578e-07
-5.4908e-06
-3.26168e-09
1.26572e-09
5.97352e-09
3.59621e-09
-3.46794e-11
1.70805e-12
-1.00145e-05
-1.15845e-08
-9.16066e-11
2.30204e-11
-3.73602e-10
2.16064e-10
-4.76885e-10
4.30457e-05
2.70502e-10
1.67769e-11
1.76401e-08
4.19147e-05
-4.92393e-10
3.74418e-11
2.76752e-11
2.55892e-06
2.74002e-06
1.00127e-10
-9.82623e-06
1.34441e-06
-7.19476e-07
8.58148e-09
-3.02238e-07
-3.86069e-11
-2.65323e-06
1.41875e-12
-8.72427e-13
6.82396e-12
-7.4428e-09
2.05329e-10
-6.39509e-11
-4.91686e-11
1.0779e-09
-1.88466e-08
1.87379e-06
-6.61495e-10
-1.15103e-10
3.63027e-10
-4.14658e-05
-3.15479e-12
1.09851e-06
-3.91832e-11
6.10235e-07
-1.41238e-11
-9.70368e-11
-5.30695e-08
2.37237e-11
-2.04744e-10
3.6973e-10
4.51088e-12
1.86746e-07
4.8335e-08
3.95775e-10
-1.28929e-11
3.26738e-05
1.05118e-05
3.61302e-10
-1.67911e-06
-3.02777e-06
7.06902e-09
3.26324e-06
-1.03183e-05
-9.47233e-06
4.42137e-09
-1.33655e-08
-4.98113e-10
3.50063e-09
-3.2824e-07
-1.74447e-11
3.27508e-08
-1.85623e-11
1.59437e-09
1.36987e-11
-4.79624e-07
1.04612e-10
3.47082e-11
-3.81628e-07
2.02603e-07
1.90449e-08
7.3505e-09
4.9692e-12
0.00301396
1.55424e-06
3.50378e-08
2.86047e-08
9.79164e-08
1.85722e-07
-2.38198e-11
3.05685e-11
1.14028e-08
-1.66158e-06
-3.27951e-07
-9.02695e-06
5.11744e-12
2.81678e-09
-1.31176e-11
2.14778e-06
6.15466e-05
-2.36373e-07
-1.74262e-06
4.01884e-07
-2.10792e-11
3.69322e-05
-1.42016e-09
4.03591e-11
1.08032e-05
-2.05497e-11
2.47662e-07
-3.58302e-08
6.17764e-06
2.38877e-06
-7.81778e-11
9.3359e-07
2.17538e-07
-1.204e-07
-1.21879e-11
-4.08039e-11
-2.56037e-07
4.37818e-12
-1.04787e-06
-3.06637e-10
-2.72584e-12
-1.55146e-10
4.69188e-06
-8.51785e-12
2.94197e-06
-3.70082e-06
-1.1246e-06
-2.30554e-10
1.29593e-05
4.51715e-07
-9.7239e-06
1.64355e-06
8.58603e-08
5.0565e-07
-1.78589e-09
-1.153e-12
-4.22166e-10
-2.17051e-07
-9.41052e-07
2.65793e-08
1.16115e-11
-1.29726e-11
1.85236e-06
-6.16745e-09
-1.79717e-10
-1.32176e-08
-5.99375e-11
-3.79147e-12
7.64238e-08
-1.1281e-11
-2.41611e-06
-6.58092e-12
5.52967e-07
-7.78513e-11
-7.93226e-11
3.01872e-06
-4.73303e-10
-4.2696e-08
4.35958e-13
-1.43184e-05
-9.57006e-09
-4.32541e-10
-1.37104e-07
2.40538e-05
-7.78047e-06
-2.70843e-11
-9.62255e-11
-6.55979e-11
-7.86582e-10
1.18452e-07
1.72334e-05
7.46253e-09
-2.35219e-11
1.95501e-08
7.89067e-06
1.87706e-06
-3.93165e-07
1.57572e-06
-2.99555e-06
-2.2036e-11
-3.68704e-09
3.29345e-06
5.94359e-07
1.05766e-08
4.51828e-07
-5.632e-11
1.63288e-06
-9.23143e-09
-3.30735e-11
-1.60376e-10
1.58893e-09
6.90571e-06
-3.92673e-11
-9.75938e-10
4.31818e-07
-6.05951e-11
-3.36228e-07
3.57477e-09
2.77935e-06
4.11312e-07
1.43679e-07
-2.23382e-11
1.14829e-07
4.64969e-07
4.75275e-08
-6.23178e-11
2.21783e-05
3.54212e-07
-3.53105e-11
-3.56269e-08
9.24682e-10
-2.18089e-11
-8.62868e-07
-1.53122e-09
-7.2559e-11
-6.14408e-11
-1.85368e-05
2.22208e-10
-3.30285e-07
-1.55366e-10
-2.59897e-10
1.96944e-08
7.45032e-10
2.9065e-06
-3.14182e-06
-1.10847e-10
5.48122e-11
-3.67864e-08
-1.14166e-08
-1.06823e-05
2.79451e-11
-3.52747e-10
2.21969e-06
-1.62007e-06
-3.42969e-07
-1.63637e-06
-1.11833e-08
-1.97334e-06
4.84212e-10
-8.01954e-06
5.78935e-09
1.42098e-08
3.26761e-09
7.19221e-12
-2.67891e-07
3.31874e-06
3.28532e-07
2.99148e-06
-5.98728e-07
-1.93935e-09
3.83751e-07
-2.65063e-07
4.57627e-07
-2.74951e-06
8.45464e-08
-2.3262e-08
-1.69843e-08
-3.00275e-08
3.29185e-10
-4.36565e-11
1.90654e-07
-2.01572e-09
-6.75785e-12
-2.4992e-07
-4.42218e-10
2.49255e-10
-6.57756e-11
3.398e-07
1.55833e-07
3.0375e-07
-3.32399e-09
3.24041e-07
2.06896e-10
-3.53298e-07
4.13876e-08
-2.24541e-05
2.38906e-11
5.62128e-07
-7.00788e-10
-1.73089e-08
1.90062e-10
2.91866e-07
1.7605e-10
-9.99578e-10
7.08395e-07
1.89928e-11
-1.73744e-08
-2.17835e-07
-2.0289e-12
-1.47202e-12
-3.24136e-07
-5.81948e-09
-6.01078e-10
-1.4213e-06
8.13797e-10
5.24848e-07
4.12941e-10
1.3023e-09
4.85527e-12
-1.29486e-08
2.85903e-11
-2.00355e-08
-1.23695e-06
-2.69025e-09
-5.30773e-11
2.04445e-06
3.51987e-09
-1.6832e-11
-6.09205e-09
-4.96028e-11
-1.04646e-09
-1.34872e-05
-2.20319e-08
-2.78442e-07
1.56309e-08
9.18606e-09
3.52779e-05
-7.89752e-10
-1.96136e-11
-4.73938e-09
2.93202e-05
-1.38488e-06
-2.86041e-06
-3.28747e-11
8.01601e-07
1.62695e-11
-2.09248e-06
6.23218e-07
3.04479e-07
8.41339e-10
-2.14034e-06
4.76533e-06
6.57829e-12
-2.82017e-07
1.04047e-07
-1.23251e-11
-5.15683e-11
-3.06233e-07
-2.9025e-11
9.48772e-09
-2.48396e-10
3.97936e-10
-8.82609e-10
3.25651e-12
3.76592e-11
-5.04873e-09
-1.46171e-06
-5.61708e-11
6.3857e-07
-3.51951e-06
-3.55026e-08
-1.61803e-06
-1.86083e-07
6.92951e-12
6.03441e-07
-2.76238e-08
-1.29282e-10
-3.61966e-07
6.23365e-09
-1.05774e-10
2.67255e-07
-3.15408e-11
-1.87019e-09
6.67127e-07
-1.11895e-10
-1.11907e-06
-1.51379e-11
-3.89904e-11
-2.66164e-11
-1.17535e-07
-2.5288e-07
-1.99788e-06
-5.78646e-11
7.53505e-06
-9.82484e-07
-1.85617e-08
-4.788e-11
2.18461e-06
-4.80567e-09
-6.71058e-12
5.16168e-07
-1.07587e-08
-8.16871e-08
-3.98163e-11
-1.06344e-11
4.6626e-11
3.21654e-10
-2.91451e-11
7.73708e-10
-2.40418e-06
-1.76829e-11
-6.94984e-06
-1.97085e-06
1.20597e-06
-9.34147e-06
-2.97636e-10
1.43054e-08
1.91915e-07
-2.54145e-06
4.2738e-08
4.27e-05
2.87472e-06
-4.56037e-11
2.59171e-06
3.45065e-11
-2.58377e-07
3.01192e-13
1.42242e-10
-2.35639e-11
1.42615e-06
2.58462e-06
-1.91351e-11
-4.01671e-07
-1.38489e-05
1.55977e-10
-5.55636e-10
5.5346e-10
4.02849e-09
-9.21986e-11
1.23038e-08
-1.65614e-06
5.40748e-10
7.1384e-08
-9.47633e-06
-2.1798e-05
2.83703e-05
-5.6814e-08
-5.7072e-12
7.74563e-12
-1.03622e-05
2.91209e-06
2.90003e-08
-5.75995e-06
3.68713e-09
2.18808e-08
-3.29741e-05
3.46147e-05
2.44979e-08
1.73944e-05
2.81082e-10
-3.08674e-07
-1.91079e-11
-2.47639e-06
-4.6485e-11
-8.98774e-09
2.59619e-10
-2.01672e-05
7.71231e-09
-4.33268e-06
-1.16953e-09
-2.51887e-11
1.53425e-05
6.79437e-07
3.05421e-06
6.46162e-05
9.66464e-08
-1.65e-06
2.17075e-09
-6.18761e-12
-3.76059e-07
3.38759e-10
2.70181e-06
1.27435e-07
-1.30849e-06
-1.8506e-06
-9.38068e-09
-1.92679e-08
-1.26308e-09
-4.83076e-08
-1.58343e-11
-4.06606e-06
-4.70769e-07
-3.80952e-11
6.15164e-07
1.95111e-08
-6.83397e-08
-3.45099e-11
6.38591e-10
-1.02098e-05
-2.14481e-09
-3.45653e-09
-2.63687e-06
-1.44756e-11
1.30229e-08
-1.44919e-09
-1.47549e-06
1.32777e-06
3.68597e-08
3.23797e-08
-7.34149e-07
-3.13086e-09
1.93636e-12
-1.27128e-05
-1.9259e-07
-1.68717e-10
3.06546e-06
-1.41679e-06
1.30837e-06
-3.8612e-11
-1.57709e-06
-2.75094e-12
6.2322e-11
5.06168e-11
6.95315e-07
-3.78428e-07
-5.4486e-10
6.05859e-07
1.43111e-11
-1.46859e-12
-6.66268e-09
1.11374e-08
-3.12872e-07
-4.24205e-12
-2.01981e-11
-2.26954e-07
1.97423e-09
1.9143e-09
-5.73773e-11
-4.52464e-08
-1.04372e-11
-2.27599e-09
1.05381e-05
1.51214e-07
-1.3025e-08
5.32175e-10
2.35825e-10
-1.75886e-06
-1.01263e-05
-1.30276e-07
1.22634e-06
-1.21952e-10
7.56387e-09
3.89197e-05
-7.65838e-06
1.66813e-05
2.1261e-06
-7.87565e-12
-9.19626e-06
-1.87058e-10
-7.85823e-09
9.06285e-08
-2.50713e-09
-1.77728e-07
-6.19722e-10
4.21194e-07
1.14322e-09
-3.79268e-06
-1.67803e-11
-2.1793e-09
-4.57157e-11
-1.81856e-07
-9.98057e-05
-8.84982e-12
-1.57116e-09
2.3787e-07
3.17455e-12
-1.42205e-07
-1.48556e-07
-5.06437e-05
-1.19304e-05
1.71887e-06
-6.16819e-13
-2.45897e-09
2.36759e-11
-6.69258e-10
-4.09826e-06
-3.6236e-07
2.42453e-05
-5.02003e-09
5.16088e-09