/*--------------------------------*- C++ -*----------------------------------*\
| =========                 |                                                 |
| \\      /  F ield         | OpenFOAM: The Open Source CFD Toolbox           |
|  \\    /   O peration     | Version:  v2012                                 |
|   \\  /    A nd           | Website:  www.openfoam.com                      |
|    \\/     M anipulation  |                                                 |
\*---------------------------------------------------------------------------*/
FoamFile
{
    version     2.0;
    format      ascii;
    class       volScalarField;
    location    "300";
    object      ddt0(omega);
}
// * * * * * * * * * * * * * * * * * * * * * * * * * * * * * * * * * * * * * //

dimensions      [0 0 -2 0 0 0 0];


internalField   nonuniform List<scalar> 
14804
(
-3.38677e-09
-2.23984e-09
5.37208e-07
-7.41109e-10
-9.01964e-08
4.46171e-08
-9.74262e-07
-5.50107e-08
-8.44753e-08
-2.36322e-08
-2.86274e-05
1.9831e-05
0.000257478
-0.00117732
-3.91673e-06
-1.34578e-09
-0.000142344
-0.00118846
-1.12185e-09
-3.27187e-09
-7.91446e-09
-9.01825e-08
2.44877e-06
-1.29113e-08
-2.60439e-05
-9.45974e-07
-1.29125e-05
-8.39349e-10
-5.50499e-06
4.99287e-05
0.000390529
-0.000140523
-8.80897e-08
-3.16552e-08
2.19958e-05
-8.91649e-10
-1.58586e-10
-1.23242e-08
0.00021837
-2.57333e-09
0.000176669
3.11095e-06
-8.48039e-06
-7.27539e-09
-0.000424061
-0.00042337
2.63922e-05
-8.35505e-10
5.20701e-07
-8.18404e-09
-2.40349e-10
-4.98918e-09
3.71759e-08
3.28621e-06
-8.76119e-08
-1.05507e-09
-1.62818e-05
-6.12243e-05
-0.0012113
1.38085e-05
-5.27979e-05
2.08984e-05
-2.56255e-09
-2.39183e-09
-1.17087e-08
1.15898e-06
4.30043e-05
-3.28307e-07
-3.43707e-08
9.61591e-09
5.50257e-09
-2.17135e-07
-1.58753e-08
-5.44297e-07
-1.61779e-06
-2.53418e-10
5.9662e-09
-8.99488e-08
-1.78079e-09
-3.67587e-06
-3.72332e-06
9.53233e-06
-6.99847e-07
1.42506e-05
-5.95955e-09
-2.09087e-09
-4.51447e-09
-1.45322e-09
6.71453e-09
2.36841e-09
-0.0001079
-1.52323e-09
-2.67275e-09
-1.94456e-09
-5.6474e-08
0.000138286
-3.36632e-09
-0.0005919
-4.30196e-08
1.60295e-05
-0.000487429
-1.84498e-05
-9.5403e-07
-1.40194e-08
1.06706e-05
-0.000188836
-6.349e-09
-4.29063e-09
-6.0815e-08
-2.46687e-05
-3.81238e-09
-1.13282e-08
0.00103518
-3.02485e-07
1.2778e-07
3.96446e-06
8.64525e-05
-1.84366e-05
-8.10226e-09
-7.12711e-09
-2.57856e-06
9.95952e-07
-2.10782e-09
-1.16316e-06
-7.11343e-09
-3.14375e-07
-2.86337e-09
-4.17808e-09
1.08658e-08
5.55245e-05
-1.32142e-09
0.000143052
-4.69907e-08
0.000595993
3.07858e-08
-7.66612e-05
-0.0015569
-3.46548e-06
-1.17414e-06
0.00071741
-1.54232e-10
1.68288e-07
-2.66035e-06
-9.74463e-09
-0.00249432
1.05703e-08
-1.79341e-06
-7.9252e-05
7.10509e-06
-3.9287e-08
7.36594e-05
-1.18676e-09
3.21117e-06
0.00307336
-3.74325e-09
-8.69134e-10
-0.000312915
-7.24408e-09
-4.06404e-09
6.85863e-06
5.24825e-10
-3.09771e-08
-4.4801e-09
2.34943e-07
-1.52155e-08
-0.000211079
-4.66468e-09
-7.12609e-08
-0.000377202
-6.57469e-09
5.769e-10
-1.63836e-08
1.2497e-05
1.34644e-08
0.00018116
2.8454e-06
0.000226765
-5.49874e-05
4.26771e-06
-0.000346187
8.31253e-09
5.87354e-07
-3.39869e-09
-0.00136252
1.42073e-09
4.57659e-07
-9.4798e-05
-1.5745e-07
0.000501859
-5.73895e-09
6.5581e-09
1.30541e-05
-1.03087e-05
5.59332e-05
-0.000197332
-0.000810356
-5.76074e-05
1.42056e-06
-2.55087e-09
2.76641e-05
-4.65654e-10
-3.95572e-09
-3.50362e-08
1.46474e-05
4.77531e-08
-4.59468e-06
0.000528537
0.000679762
-4.46199e-07
-1.56552e-09
-5.67339e-09
-7.92493e-06
4.02378e-08
-6.13529e-10
2.97591e-05
-8.98955e-11
-0.000161495
-1.19298e-09
-4.12113e-05
0.000559901
-6.45633e-08
-0.00106778
-3.80844e-09
-0.000208091
-2.33158e-05
-1.39064e-05
3.75212e-06
2.05474e-10
0.000508181
-0.000517541
-2.16015e-07
-0.000193538
-2.76454e-09
-1.88278e-09
8.87981e-05
-3.50801e-09
6.07508e-06
-6.06922e-05
3.85235e-09
-0.000548865
-0.000685491
8.95751e-07
7.48848e-05
-4.04641e-06
-6.17168e-09
-1.65054e-09
1.00718e-06
-4.44708e-05
9.51363e-09
-3.25099e-08
1.50421e-06
-2.90473e-05
1.88941e-08
6.02423e-08
-5.93487e-09
-0.00156488
1.6485e-05
5.76359e-06
2.72103e-05
-2.6104e-06
7.71506e-08
0.000211592
-4.32783e-09
5.32047e-05
4.03384e-09
-4.07777e-06
-4.66665e-10
-0.00117786
0.000168785
-2.67197e-09
-1.53706e-09
-2.56905e-07
1.84995e-05
-0.000776589
4.66186e-05
-0.000272518
-4.54081e-09
-2.27183e-05
-2.50993e-09
-0.00112384
-5.99993e-10
-2.93623e-05
-2.13389e-09
6.93583e-07
4.47377e-09
-2.23594e-06
-1.20364e-08
6.44961e-06
1.94626e-10
-1.74931e-06
-2.98821e-05
-1.06175e-05
0.000607494
1.46219e-05
-1.27589e-08
1.15058e-07
7.93305e-06
-3.23647e-09
-4.50165e-08
-1.96922e-09
1.92232e-07
1.04946e-06
2.4646e-10
-5.50026e-08
-3.40954e-09
0.000537624
-0.00097439
-9.29624e-10
6.07757e-05
-2.16962e-06
-4.27474e-09
-1.18362e-09
-1.16058e-05
-7.78869e-10
-0.000248852
-1.55396e-08
-3.95612e-06
-4.1918e-09
-0.000194118
-5.16741e-09
1.05236e-07
9.86811e-09
8.13605e-06
0.000804433
-1.85768e-09
-5.61912e-09
-3.03489e-07
-1.86184e-06
1.05951e-05
-3.56153e-06
-1.03384e-05
-7.7745e-09
-2.71083e-09
1.00075e-05
-2.03177e-08
-1.26129e-07
0.000112566
5.0112e-05
4.33805e-06
2.18515e-07
4.42885e-07
7.68048e-06
-0.00016848
-1.2417e-06
3.67049e-08
5.244e-09
6.84426e-05
-4.22849e-05
-8.36694e-09
-1.26646e-08
-3.07989e-07
-8.85396e-09
-2.9962e-09
0.000539018
-6.13032e-09
1.22738e-08
-0.000447767
-8.41081e-09
0.00076802
-2.48506e-09
-6.97028e-06
-2.51522e-09
-6.29796e-05
1.28037e-05
2.6167e-05
1.25793e-06
-2.09094e-09
0.00171631
1.52264e-05
-5.43596e-06
-5.29562e-08
7.65909e-06
-1.14592e-07
-0.000810162
-1.05349e-05
-9.88477e-06
-8.90179e-05
5.54757e-05
3.80181e-11
-6.13985e-07
-2.91405e-09
3.14952e-05
0.000278063
-3.01172e-08
-1.07107e-07
-2.59594e-09
-3.29245e-09
-7.07312e-09
-2.1544e-05
-3.93425e-09
-3.25469e-05
-2.64002e-06
-1.33611e-07
-4.79781e-09
-1.27312e-09
-3.47311e-06
-8.02748e-05
-1.43147e-07
9.66146e-05
-3.04939e-05
-7.07241e-08
1.4446e-05
-3.97311e-07
9.83177e-06
1.69882e-05
2.03491e-09
-5.69406e-06
-2.88496e-09
3.78709e-06
-6.77538e-09
-1.5713e-09
-0.000423753
-0.00012721
7.77542e-06
-0.00057853
-4.84044e-09
0.00148529
2.19788e-10
1.3321e-08
-6.16176e-08
0.000874179
-1.57548e-08
-7.33299e-06
-1.78282e-05
1.74277e-08
-3.94481e-10
8.17145e-06
-6.56893e-05
2.15752e-05
1.04309e-08
-7.55097e-09
-8.40673e-09
0.000291856
3.56855e-05
1.05521e-09
-1.18754e-05
7.38329e-06
-6.3491e-05
-3.17263e-11
-2.99244e-05
1.68196e-06
4.16435e-09
8.70972e-07
-4.99036e-09
1.9945e-07
7.2241e-07
0.000540301
4.70479e-08
-8.17859e-10
0.000680143
5.35628e-06
0.000595838
-4.50888e-05
-2.87851e-05
3.99879e-06
-1.32219e-09
0.000785995
-1.47726e-09
-1.90788e-05
-5.07004e-07
1.08737e-07
6.651e-06
-1.51937e-08
5.3169e-05
-3.94015e-10
0.00142201
2.18123e-07
-2.24123e-06
2.33141e-05
4.87584e-09
-1.0381e-09
-9.12392e-10
-1.38987e-06
0.0017157
-6.54763e-05
-0.00018455
-8.25575e-09
1.60226e-05
-9.68237e-08
6.28607e-06
1.76072e-08
0.000247251
2.96624e-05
1.03005e-05
3.45326e-06
0.000170136
0.00216035
-8.64279e-09
9.29985e-06
1.14894e-06
-2.58944e-05
-2.45761e-06
4.95497e-07
-0.000801791
-3.008e-05
-3.62083e-09
-2.55919e-09
0.000476952
3.9955e-10
-7.93862e-08
-1.71502e-07
-6.91448e-09
-1.18102e-07
-2.2559e-06
3.93556e-08
-1.08514e-06
1.61457e-06
2.13731e-08
-1.04359e-08
1.44708e-05
-1.24194e-07
-3.14497e-05
-7.98238e-05
-1.09153e-08
0.000277943
0.000826394
5.92026e-06
-2.10578e-05
-7.39231e-10
-5.46956e-07
1.63022e-09
-5.01951e-05
3.44617e-05
-5.35135e-05
8.25384e-07
5.51348e-06
-4.15096e-06
0.000580072
-2.64097e-05
0.00249718
0.00173559
-9.85128e-10
6.83055e-06
-0.000532824
-0.000841754
-3.50285e-09
0.00127099
-1.49997e-09
-0.00012344
0.000242651
-2.05489e-09
-0.00197103
-1.07051e-09
-4.63746e-06
-1.89179e-07
4.38426e-08
-0.0150409
-4.01319e-10
1.99575e-08
-6.4337e-09
-6.71748e-09
-2.78266e-09
-7.69661e-10
-1.71951e-09
1.7337e-05
5.36567e-10
-0.000401415
-0.000448483
-5.25152e-09
-3.16181e-06
-4.05262e-09
-5.73052e-05
3.78448e-11
0.00139704
1.60445e-09
0.000184523
8.56386e-09
-0.000626576
1.47531e-05
-1.2202e-08
-1.3066e-07
0.000136919
-1.13611e-06
0.000103112
3.0112e-06
-4.33947e-07
0.000585217
1.23891e-05
-0.000152017
-2.47543e-09
2.99799e-05
-5.57382e-09
1.03565e-06
0.00125368
-6.40952e-07
1.93037e-07
-5.43837e-10
-9.04444e-10
-9.67486e-10
-1.83066e-09
-0.000236194
5.23031e-09
-0.000309738
0.000450707
-0.000252409
-2.1388e-05
-4.35565e-05
2.99635e-05
1.78056e-05
3.35726e-08
4.95396e-05
4.86714e-06
-2.07961e-10
2.82028e-07
1.89033e-05
-0.000980443
-3.91947e-08
0.000440537
-7.75076e-09
-3.20738e-06
-3.33051e-05
3.43129e-09
-8.95603e-05
-4.52886e-05
-2.1877e-05
-0.000132519
-0.000117652
1.41681e-09
-2.52574e-05
-1.00366e-08
-0.000132787
-5.48645e-06
6.6519e-05
4.62397e-05
-6.76751e-08
2.49852e-09
0.000381392
-2.16546e-08
0.000770861
6.16674e-09
-5.82908e-09
-2.33026e-09
2.42512e-05
-8.99295e-10
1.96109e-08
-1.82068e-09
1.9226e-05
-0.00127687
-1.44654e-06
1.74703e-08
0.000110846
-0.000281525
-9.25428e-10
7.33357e-08
-2.00779e-09
-1.2142e-08
7.91026e-09
-2.69369e-09
-6.387e-10
-3.25401e-05
0.000544292
-0.000121726
-7.98718e-09
2.27582e-08
-2.57069e-06
-0.000917501
-0.000143707
-2.81508e-06
-0.000214436
1.10483e-05
-0.000653385
-3.64608e-09
5.81588e-06
-4.60466e-09
1.58636e-06
-4.40486e-05
-3.5425e-05
1.53519e-05
0.000118845
-2.3126e-09
0.000114576
8.64058e-07
1.80192e-09
0.000431568
1.20402e-06
2.57004e-09
-0.00143348
-8.76245e-07
0.00094111
-2.32488e-06
-2.37635e-09
2.2299e-05
-0.000110403
-3.57911e-05
-1.68487e-06
-1.48808e-09
-4.12161e-06
-8.55342e-08
-4.19386e-09
-2.45101e-07
-1.74145e-09
0.000150452
0.000112862
3.53368e-08
-1.51578e-07
-2.61506e-09
4.44025e-08
-0.000513969
-9.87364e-06
-4.6764e-05
-8.96478e-08
-9.82319e-05
-1.60156e-09
-4.71958e-09
-3.98648e-05
-5.24405e-05
-1.46818e-05
5.08105e-06
4.91235e-09
-4.46234e-05
-2.62215e-11
3.13561e-05
4.03808e-06
1.90359e-06
-8.92567e-05
0.000127402
-4.54781e-09
-1.23365e-08
-4.99997e-05
-0.00242925
0.000254715
-1.53406e-08
-2.9354e-09
-1.82381e-06
3.98867e-07
0.000617961
1.03712e-08
-1.51163e-08
-2.99375e-09
-0.00131745
-0.000132454
0.000462966
-0.000669496
-0.000462692
8.63556e-05
-3.93742e-10
-1.47848e-09
-4.67295e-10
-1.24825e-05
2.64567e-06
-5.96537e-07
-0.000183437
-1.80339e-10
-7.96292e-09
2.71905e-05
-7.55773e-07
0.00165943
-5.20732e-09
-9.51921e-10
1.21228e-10
-9.40615e-07
-6.89621e-08
0.00141822
1.1256e-06
7.65385e-05
-1.72624e-07
0.000516732
6.74071e-09
1.61185e-06
-5.64505e-10
2.48746e-06
-1.10743e-09
4.02019e-05
-8.44905e-05
-6.04089e-06
2.29879e-05
-3.66529e-09
-3.52594e-09
1.83324e-05
0.000634334
-2.00091e-05
4.41598e-05
-4.87717e-10
1.4475e-09
7.00681e-06
2.80453e-06
-3.1581e-07
5.11636e-09
-0.00231685
0.000319393
1.80698e-05
-4.92914e-08
-3.00022e-09
1.83985e-05
6.20414e-07
-2.49487e-06
2.6124e-05
-4.72766e-06
-7.84355e-10
3.02725e-05
0.000323664
-9.19449e-07
-3.05511e-09
5.32242e-08
-8.21239e-10
1.06636e-06
-2.11923e-06
9.48656e-05
1.17119e-09
3.26316e-10
0.000972378
-1.36788e-09
-2.61915e-10
-0.000118939
-1.75536e-09
-2.50733e-08
-6.54941e-10
-6.3772e-06
-1.92472e-09
-6.23458e-06
-4.47591e-05
-1.69517e-09
-1.87604e-05
-9.763e-09
8.819e-06
-1.98271e-11
-3.17388e-09
-1.09991e-06
0.000224373
-4.59292e-05
-2.58628e-07
0.000321104
-2.2389e-07
-3.71933e-09
-8.54524e-06
-8.76738e-10
-1.39354e-09
-5.32297e-10
-1.52613e-09
-4.51505e-05
-1.00396e-09
1.06846e-08
-0.000364413
-1.06752e-09
-3.93026e-05
3.64527e-08
-0.000161461
-9.7974e-10
-4.94215e-06
1.62328e-05
3.63665e-05
0.000325106
-1.42352e-09
2.72352e-05
1.13913e-05
2.03971e-05
-1.96591e-09
4.61679e-06
-1.73042e-07
-1.74751e-08
-1.4047e-08
-3.88842e-10
1.33689e-05
5.03034e-06
-1.45992e-07
3.91756e-05
-1.46017e-09
-6.99539e-06
2.07341e-05
5.45638e-05
1.13088e-08
-3.41813e-08
-0.000223536
2.848e-07
-1.07279e-09
-2.25777e-09
8.85242e-06
2.25591e-06
1.74989e-05
1.27645e-05
-4.68175e-07
-3.87637e-09
-4.57836e-09
0.000519069
-1.74851e-09
-3.8238e-09
-2.79506e-07
8.80221e-06
-2.19515e-09
-1.58232e-09
-1.59764e-09
-1.36668e-09
-3.51102e-07
-5.00258e-08
-7.71903e-10
3.36536e-05
-0.000258121
0.00315438
-0.000736871
0.000790521
-8.20615e-11
-1.0926e-07
4.56917e-06
1.60954e-08
-8.21577e-09
-1.17676e-05
-2.67078e-09
-5.18082e-05
4.73202e-06
8.01066e-08
-2.67719e-09
-4.19022e-10
1.88944e-06
5.54751e-09
-6.44651e-06
2.80129e-06
-9.74116e-08
-7.68126e-05
-3.89357e-05
1.2231e-06
6.76902e-07
-1.09988e-09
1.22989e-05
0.000160071
-4.01954e-07
-3.2008e-06
-0.000411258
6.31186e-11
0.000478856
4.01283e-05
3.89393e-08
-2.94887e-08
-2.51108e-09
5.08115e-09
2.52116e-05
8.72336e-06
-3.97384e-07
-5.17232e-06
-6.88893e-08
6.27447e-09
-2.38631e-09
-4.51395e-09
-8.22954e-09
-1.50932e-09
-0.000734305
4.7748e-05
2.31327e-08
-9.56468e-05
-0.00037145
7.68486e-05
5.68598e-08
-4.32907e-07
-0.000340892
6.87488e-07
3.63303e-05
-0.00387864
-2.09406e-08
-1.02193e-07
3.93618e-05
1.05639e-07
-5.96422e-09
3.04207e-09
-6.77997e-09
1.32692e-05
9.35857e-07
4.18756e-08
-2.65426e-07
0.000172128
-4.06917e-06
-5.24796e-09
-7.40497e-07
1.01735e-05
6.49644e-10
-1.47036e-09
-1.28116e-06
-1.59281e-08
1.8347e-09
-7.80849e-09
0.00128481
-6.33896e-08
0.00078308
7.35686e-05
-5.81013e-07
-8.28598e-06
-1.24531e-05
0.0002487
-1.37838e-09
-2.42245e-08
-1.78532e-08
-7.75596e-05
8.77307e-10
1.38704e-05
3.28053e-05
0.0003772
8.26236e-10
1.66394e-06
-0.000723455
8.17923e-07
6.09543e-07
-1.50914e-08
2.14998e-06
-1.03722e-05
-3.54271e-05
1.17626e-05
-4.45918e-09
-0.000706208
1.59094e-07
-9.89626e-09
3.78155e-05
-0.000330216
-8.35855e-09
-1.91554e-05
-5.42689e-05
-9.74e-10
0.000409828
4.72243e-05
9.99822e-06
2.00083e-09
-9.45388e-07
1.78365e-06
-4.74269e-09
-8.1047e-05
-3.46552e-09
2.66396e-05
-3.44501e-08
-1.70569e-05
-2.89537e-09
6.10515e-08
2.9183e-06
2.0802e-08
-1.93534e-06
3.47723e-05
9.93048e-07
1.32419e-05
6.42848e-07
8.89065e-07
9.61343e-06
-9.12491e-10
-8.93654e-09
7.95776e-09
8.68951e-10
0.000500109
-1.58224e-07
-1.64896e-08
1.09242e-05
1.68018e-05
-3.29012e-11
-9.97093e-10
7.46919e-07
-4.60142e-07
-1.97251e-09
-4.06958e-10
-7.39138e-09
4.56953e-11
-0.00218594
-2.05359e-06
0.000619001
-2.15138e-07
-9.95813e-07
-0.00291026
0.000573639
-0.000284524
1.02129e-08
-0.000742171
2.62192e-05
0.00103885
-2.36354e-09
-2.7599e-09
-5.35022e-10
0.000274279
-1.70013e-05
6.73938e-09
0.000121186
1.50191e-10
7.2343e-09
2.9971e-05
-2.41233e-05
4.65206e-05
3.98712e-09
1.07633e-08
1.24277e-08
-9.26533e-10
1.76092e-05
-1.24074e-08
1.55277e-08
-2.61401e-09
-2.96931e-06
7.76675e-09
-1.06137e-08
-7.86613e-09
-0.000141381
6.75665e-06
-7.41356e-09
-5.04136e-09
0.00014657
-2.5246e-09
0.0017398
-1.36184e-05
-1.74084e-07
-2.30476e-11
-5.20165e-05
5.41433e-08
0.000884883
-1.25833e-09
-2.65836e-05
-4.03973e-05
-2.71054e-07
-4.32602e-05
-2.19543e-05
-9.75632e-09
-1.93214e-05
5.53148e-06
-0.00131365
0.000183127
-2.80435e-08
-0.000117987
2.25382e-05
1.09723e-05
-2.80858e-09
-5.4124e-07
-1.97192e-08
0.00129403
-1.12064e-05
-4.41988e-09
0.000416263
2.09753e-05
-9.33192e-09
-1.20909e-08
0.000110205
-0.000298063
4.55442e-06
-0.000176664
-1.97931e-05
1.52139e-05
-3.80413e-08
-7.43621e-08
-1.39764e-05
7.24281e-06
7.93743e-06
3.39258e-07
-2.51379e-09
-0.000773387
-2.38972e-09
-7.11246e-09
0.000118047
-1.59221e-08
1.34299e-05
-8.00286e-09
1.87146e-10
-7.78177e-09
1.10383e-08
-3.8834e-09
0.00234619
-2.13265e-09
-6.81635e-06
-0.0006705
-2.66936e-09
-2.21082e-07
5.43295e-06
-0.000118743
2.32794e-11
-6.52012e-09
-1.04133e-09
-1.26465e-05
-3.7882e-09
-0.000603798
-4.60731e-08
-8.64045e-09
-2.66229e-05
1.1602e-05
-3.32439e-05
0.00185399
-1.00474e-06
-3.16241e-09
0.000330338
0.00016149
-3.65434e-07
-4.52116e-09
-1.34783e-05
-6.87194e-09
-1.10003e-09
-3.21559e-09
3.97822e-09
2.08292e-05
-1.04232e-05
1.27215e-05
5.55634e-05
0.000107679
-2.6477e-06
1.07861e-05
-1.73954e-07
-7.29364e-08
0.000578755
6.09294e-10
1.47512e-05
9.17083e-09
7.10428e-07
-0.000241265
-2.30145e-09
1.71664e-06
4.8892e-05
-2.46159e-05
7.17717e-07
-7.10807e-09
-1.36281e-09
-8.72973e-10
-0.000135653
-1.86863e-06
-2.3435e-05
1.27933e-05
-0.00018459
1.71259e-07
-2.59306e-05
2.38772e-06
0.000425383
-7.10275e-07
4.58088e-06
9.02737e-05
-1.78033e-05
-2.37694e-06
-8.25454e-08
8.64265e-05
-1.59877e-06
2.83164e-05
3.042e-05
1.49362e-05
8.99199e-10
-3.10482e-07
0.00031377
-0.000976414
-6.7182e-05
-2.51249e-07
-3.0092e-09
-7.39146e-10
1.88349e-05
2.5026e-08
-1.68212e-09
-7.59233e-09
-1.09288e-08
-4.23808e-09
0.000109394
2.01392e-05
7.32642e-06
8.46788e-10
-0.00106218
-6.16532e-09
0.00073329
-1.92258e-09
-1.04741e-05
-4.16473e-05
2.92158e-08
0.00242492
-4.00833e-09
6.02437e-06
-3.624e-05
-8.01337e-07
9.17044e-09
-6.07071e-09
2.97662e-09
-6.10554e-07
2.38934e-07
-3.68598e-07
-0.000147188
-3.60496e-07
-0.000951449
-3.24606e-07
0.000140341
-3.21975e-06
6.61486e-07
-0.000127426
1.24467e-05
-4.25147e-07
-3.2802e-07
-3.21977e-09
-4.6148e-05
1.39633e-09
-0.000692895
-4.5331e-06
-7.89957e-10
-2.99684e-09
-3.80719e-10
7.68903e-06
1.40496e-06
1.20524e-05
1.62516e-05
-2.86995e-09
-2.36704e-05
4.64766e-07
-1.25462e-08
0.00083259
-6.77956e-10
-2.28797e-09
4.8666e-09
-8.00817e-07
-7.5728e-06
-2.96959e-05
1.25731e-05
-1.35164e-09
-1.03364e-06
-3.49234e-05
-4.88555e-09
3.58959e-05
0.000121295
-9.4092e-05
4.19066e-08
-5.56714e-06
3.61196e-06
0.000346728
-2.0033e-09
3.05539e-08
2.91136e-06
1.77263e-06
-2.10904e-07
-0.00136921
1.59216e-05
-2.78042e-09
3.43256e-07
-2.48806e-07
-8.52565e-09
5.90854e-10
2.19949e-10
-2.39827e-07
-5.2973e-09
-4.12125e-05
5.06072e-06
1.56162e-05
-1.17833e-07
7.82048e-05
2.06374e-05
2.67443e-08
1.46621e-05
-2.61989e-06
-0.0021629
-1.61905e-09
2.97449e-05
-6.17548e-09
-2.32814e-05
6.93462e-06
-7.37273e-08
0.000339649
1.066e-05
-1.25427e-05
0.000110991
-2.38638e-09
-3.35157e-10
1.67838e-05
-3.11272e-05
-1.79349e-09
3.77892e-05
8.77684e-06
2.16519e-05
-3.79507e-10
-9.14524e-06
1.75045e-05
1.51671e-05
-2.01381e-09
2.51326e-05
-2.41774e-09
3.9472e-09
3.80489e-05
0.000847227
1.02404e-09
-1.90922e-08
5.0564e-06
-1.88804e-05
5.29983e-10
-4.65939e-08
-2.03628e-09
-0.00116166
-4.26061e-09
-0.000145252
-2.78628e-11
8.75013e-08
3.03177e-05
-8.48504e-08
0.000150554
-3.0205e-07
-8.55891e-09
4.50403e-06
-6.56998e-05
-0.000190308
-4.14747e-09
5.57718e-09
-6.94558e-05
-2.24856e-05
9.84178e-05
4.87855e-06
-9.35619e-09
3.56923e-09
8.12946e-06
-1.27351e-09
2.50167e-05
8.10503e-05
-1.70483e-09
-0.000102181
2.35339e-09
-0.000758895
-1.80974e-05
2.65249e-05
-8.03268e-05
-0.00100801
2.65859e-06
-3.26966e-05
-1.20529e-07
8.17731e-06
2.59033e-09
-0.000684073
0.000126502
-1.13209e-08
-2.65944e-09
5.26276e-10
2.83619e-07
-3.31333e-05
-3.46193e-05
-1.0326e-05
-2.233e-09
-4.9237e-10
4.22472e-06
-1.19932e-06
-5.24216e-09
-4.44757e-09
1.46986e-05
-0.000318583
-1.63266e-09
2.65991e-08
-7.80482e-09
-8.26373e-06
-5.08135e-09
-6.27252e-10
-3.73002e-09
1.2909e-09
1.4617e-05
-2.59391e-05
-4.10126e-06
9.19954e-06
-0.000167048
-3.04172e-09
6.60201e-09
-5.47192e-06
-2.43381e-05
0.000128065
-1.81537e-06
4.19814e-05
-0.000522168
9.78548e-09
-5.83982e-09
-1.2662e-09
1.06394e-10
2.99265e-05
0.000693294
1.77101e-06
5.84619e-05
-0.000585875
-2.98617e-05
-1.33537e-05
-9.60865e-05
-0.000707268
9.0696e-08
-4.43868e-09
-2.36936e-09
-3.1571e-09
-3.3138e-05
2.97139e-05
2.80056e-07
-2.44912e-07
-3.26064e-09
-1.12744e-08
-6.6711e-06
-7.87954e-09
-0.000237047
-3.19595e-09
-3.44013e-06
-2.79126e-05
-0.000103883
-3.18203e-07
-2.15959e-05
-6.00116e-06
4.05622e-10
2.15566e-05
0.000399938
-0.00123988
1.09543e-09
6.40943e-10
-7.98202e-10
0.000164454
-4.0201e-10
1.40166e-05
-3.40237e-09
-8.48853e-05
1.97432e-05
-1.24584e-09
-2.34266e-07
2.62171e-05
0.000348422
-6.26599e-05
-2.45809e-07
8.14184e-06
8.83925e-11
8.78623e-06
1.75761e-05
-3.55302e-09
-4.75829e-08
1.32136e-06
1.68314e-06
0.000100281
1.47692e-06
1.87656e-06
2.98827e-09
-1.69823e-08
-2.4063e-09
2.56032e-08
-2.23344e-07
-0.00052015
-2.47846e-08
-6.36251e-05
1.38856e-05
1.34483e-05
-9.06752e-06
6.52343e-05
3.88518e-05
2.45943e-06
1.47669e-06
-4.85506e-09
4.65785e-09
-2.39114e-05
-6.03073e-05
1.82337e-06
5.48384e-08
2.38602e-09
-6.69137e-10
-7.92104e-09
5.68595e-11
1.72309e-05
-0.000205362
-6.25313e-09
-2.46649e-10
1.39648e-10
-9.87515e-06
-2.37751e-05
-6.23078e-09
2.72077e-07
-2.09815e-09
1.12317e-05
-8.01118e-06
-3.86039e-05
-1.68217e-06
-9.46999e-06
-0.000536392
0.00013968
-0.000364173
6.5508e-08
1.37785e-07
0.00011269
5.11004e-07
2.8676e-08
0.00425383
4.45461e-05
-1.9215e-05
-9.3719e-09
-2.39997e-09
-4.83669e-10
-0.00319292
1.66061e-05
3.95723e-05
2.61613e-06
8.41176e-05
-0.000341977
9.30781e-06
-1.77743e-05
-2.04472e-05
4.63524e-07
6.3721e-10
-3.66797e-11
-1.93481e-07
-7.56793e-09
0.000347178
-0.000296257
3.66416e-09
-3.77772e-05
2.02259e-05
-1.55445e-08
6.58963e-08
-2.64918e-09
4.26625e-09
-0.000100114
9.0938e-06
6.6002e-07
-9.4804e-07
-3.80579e-08
2.5289e-09
2.02679e-05
0.000881135
4.43267e-05
-1.72757e-05
3.67604e-08
-9.69857e-07
-8.92362e-09
-1.70475e-08
-1.38393e-09
4.38087e-07
4.10672e-09
7.69517e-08
3.36129e-05
-2.02341e-05
-4.62874e-09
-6.44747e-06
1.68452e-07
0.000398596
-0.000464049
1.47816e-06
3.41669e-10
-3.28539e-06
-3.55309e-09
-8.11453e-07
-0.000176291
-0.00013629
8.66016e-06
-0.000184742
-1.25728e-09
-2.81012e-06
0.000983717
3.67893e-08
8.47875e-08
5.02509e-06
-0.000215511
1.50261e-10
8.52318e-09
-3.30047e-09
0.000163021
2.10043e-05
1.11158e-07
1.97279e-05
-5.56207e-07
2.87638e-09
2.55294e-10
2.09147e-06
-0.00290313
-1.33095e-10
-0.000186475
-1.54906e-05
0.00056104
2.27199e-09
-7.01796e-09
-0.00029898
1.16572e-05
1.73422e-06
1.33144e-07
2.55723e-07
1.94371e-05
1.15396e-05
-2.92606e-05
1.92479e-05
-1.59498e-06
5.8368e-08
0.000171145
-1.4011e-09
-4.36999e-06
4.39717e-05
-3.42904e-10
3.37278e-05
7.48362e-08
3.91828e-09
-3.0487e-09
4.4351e-05
-3.59122e-08
2.28249e-08
-1.37417e-08
2.65664e-08
-0.000100989
1.60763e-05
4.40215e-05
2.97912e-06
-0.000197386
-2.9391e-07
-3.92369e-09
0.00017817
3.02438e-07
-3.00265e-08
-0.000232843
-8.57939e-09
-2.24147e-09
-3.01126e-07
3.70656e-09
-0.00107051
-3.64807e-05
-3.32894e-08
0.000101589
-4.86218e-09
5.78126e-07
-1.77148e-05
3.55068e-07
4.30843e-05
2.86852e-07
-1.23082e-10
-6.9003e-09
-0.00019641
-1.28952e-09
3.81172e-07
3.17365e-05
-2.53369e-06
4.66103e-08
-0.000271432
-8.38562e-05
-1.24791e-08
3.20305e-06
9.64685e-05
2.56755e-06
-1.3454e-09
-0.00027673
0.000490051
-4.56766e-07
-0.000219872
-3.94491e-06
1.55849e-05
0.000991853
-1.12909e-07
-0.000914986
-3.71878e-06
7.58858e-06
-2.37708e-05
-1.17751e-08
2.31216e-06
-2.82036e-06
-0.000301298
-0.000593098
-7.34073e-08
-1.08743e-07
0.000400227
2.60564e-05
9.71009e-05
-9.73899e-06
-1.80359e-05
-8.08179e-09
0.000178834
1.8584e-05
0.000108319
-1.0884e-09
4.61558e-07
8.10885e-05
1.28996e-06
-4.18193e-06
3.97078e-05
7.06673e-08
3.02968e-07
-1.83555e-07
6.54902e-05
-0.00090241
-2.70952e-09
2.94875e-06
-7.83389e-06
-8.93991e-06
-2.05223e-08
3.0479e-05
1.68868e-06
-0.000154385
2.7362e-08
2.52438e-05
-2.39473e-09
3.18732e-10
-1.17949e-09
3.13178e-10
5.07583e-06
-9.29493e-09
-2.91308e-09
-1.89441e-09
-6.80043e-09
3.92645e-10
0.000377659
6.97974e-06
-1.60074e-05
-0.000408286
1.74294e-06
1.51455e-07
-1.78993e-05
-5.27822e-07
-3.46783e-09
4.93869e-11
-0.000208339
-1.40263e-05
-7.51256e-09
2.12897e-09
-2.18626e-08
-1.26692e-07
-1.4595e-07
0.000631484
-1.87801e-07
9.55741e-10
8.71206e-06
0.000480618
-3.9416e-08
6.38656e-09
-9.42997e-09
9.19981e-06
1.30218e-05
-3.12913e-08
9.36121e-05
0.000372383
0.000279896
-2.55487e-06
2.95694e-05
-2.81186e-09
0.000731924
1.04961e-09
-1.08734e-10
4.74884e-10
-7.00082e-07
-1.24874e-07
-4.68178e-09
-8.76427e-08
9.71133e-08
-9.3746e-06
0.00043876
-9.89906e-08
-9.07448e-09
-1.94611e-07
-0.00086876
-3.43647e-10
-3.58944e-06
-6.00714e-09
-3.39381e-05
-1.11803e-09
-7.37646e-09
2.6506e-05
1.45079e-09
2.56459e-08
2.21663e-08
2.2557e-10
-8.96617e-05
1.0137e-05
5.2548e-08
-1.03978e-09
0.000609794
0.000300483
-1.10582e-07
3.69597e-05
6.41039e-06
1.56246e-06
3.2686e-06
-5.94243e-05
-0.00040558
4.22299e-07
2.22339e-05
-3.81194e-08
5.50368e-05
8.85588e-06
-1.96856e-09
7.56455e-06
-1.82711e-09
-8.27944e-05
-2.6081e-08
-0.000293638
-4.05353e-08
-4.36752e-08
2.67956e-05
-0.000129699
-8.59048e-06
9.6018e-07
6.07781e-10
0.0583641
-1.36153e-05
4.68181e-06
4.7033e-05
0.000131102
0.000209267
-1.68332e-09
2.20506e-09
1.94862e-06
0.000193253
5.15793e-05
-0.000499091
2.66806e-10
4.40532e-05
-9.21508e-10
1.09366e-06
0.000478716
2.89009e-06
5.96526e-05
-4.40342e-05
-1.46311e-09
0.000609799
-1.11671e-07
2.84323e-09
0.00117992
-4.36406e-08
0.000211196
-0.000450876
0.000181978
6.97139e-06
-5.69219e-08
6.09907e-05
-0.000197884
2.23794e-06
-5.24226e-09
-3.73816e-09
3.04676e-05
2.32229e-09
4.86335e-05
-4.6082e-08
-4.52022e-10
-1.18823e-08
-0.000792326
5.84519e-10
1.19907e-05
0.000168293
-0.000394606
-2.7401e-08
-9.8165e-05
6.33605e-06
0.000492481
1.0944e-05
-1.16247e-05
-3.87317e-05
1.83647e-05
-1.42433e-10
-1.75725e-07
-3.60913e-05
1.38731e-05
3.95277e-06
6.99045e-10
-1.41089e-09
1.97404e-05
9.57184e-07
-1.89284e-08
-1.99688e-06
-7.43134e-09
-3.43999e-10
1.8135e-05
-1.86756e-09
0.000213333
-5.97478e-10
-1.35502e-05
-1.28425e-08
-7.41847e-09
2.56692e-05
-2.3572e-07
-1.16322e-05
-5.90312e-11
0.00077018
-3.27427e-05
1.73441e-08
-6.91394e-05
0.000409754
-6.54287e-05
-3.05867e-09
-1.34355e-08
-6.54523e-09
-1.99354e-07
0.000132352
0.000442972
0.00018308
-2.25904e-09
1.24844e-05
8.71315e-05
-8.97146e-06
1.31269e-05
-0.000221636
0.000146635
-2.2501e-09
-5.84385e-07
0.000559324
2.95379e-05
1.73793e-05
5.75185e-06
-3.82395e-09
-3.45753e-05
0.000265404
-2.92891e-09
2.91036e-08
2.33294e-07
-0.00145071
-3.41214e-09
-2.39368e-08
0.000133491
-3.60648e-09
-1.79994e-05
2.38271e-09
3.41266e-05
-3.29704e-06
-0.00028806
-1.54165e-09
0.000131837
1.07764e-05
0.000182875
-3.21436e-08
0.000220662
3.2098e-05
-7.92787e-09
-6.14959e-05
-5.71199e-08
-8.14217e-10
6.27702e-05
6.95752e-06
-6.49242e-08
-4.78743e-09
-0.000332819
1.08345e-07
-0.00012561
1.04226e-07
-2.66338e-08
-4.88279e-06
1.8399e-05
2.12628e-06
-4.0838e-05
-8.52171e-09
-4.70943e-08
-2.96563e-05
-8.88705e-07
-7.29988e-05
4.06364e-09
-1.36953e-07
-4.30107e-06
3.43596e-05
2.04258e-06
5.3421e-05
-1.81706e-05
-0.000980893
2.4973e-08
-0.000207385
1.33488e-06
2.25055e-06
-1.9543e-07
7.39717e-10
4.07245e-05
-0.0007515
-3.22117e-05
5.75851e-06
6.59085e-05
-7.41582e-06
0.00019951
5.64309e-06
1.41904e-05
7.43699e-06
0.000258898
-8.81219e-07
7.936e-06
-1.5649e-06
5.38523e-08
-4.92665e-09
0.000394002
5.41926e-07
-9.20292e-10
5.3961e-06
-1.70829e-07
-5.79198e-06
-4.92036e-09
6.61589e-05
-1.64501e-05
-1.86095e-05
2.09258e-08
0.000416391
-3.48221e-09
0.000110625
-8.11853e-07
-0.000401773
-7.52159e-09
-4.22875e-06
-2.08312e-07
2.23034e-05
1.94475e-08
0.000138171
1.26364e-07
-4.56134e-06
0.000585106
-1.26922e-08
-4.71534e-06
4.1237e-05
3.34214e-10
-1.32829e-10
-1.99248e-06
5.30611e-06
-1.79136e-07
1.88067e-05
6.38805e-08
-1.76344e-05
1.58629e-07
8.91282e-08
-4.07602e-09
-1.11476e-06
5.32207e-09
6.10041e-06
2.54597e-05
-3.28248e-07
-5.31864e-09
-0.000190871
-1.57829e-07
-2.26225e-09
-8.68488e-07
6.26111e-11
2.06769e-07
-0.000152628
-0.000468371
9.12637e-06
-2.92505e-06
5.94949e-06
0.000672006
-5.71366e-08
4.44725e-09
2.02282e-06
0.000377845
2.08388e-05
8.09473e-06
-6.57129e-09
0.000109827
-6.19121e-09
6.39505e-05
0.000322336
0.00036731
4.88588e-07
2.77577e-05
-0.00328096
-1.21152e-10
5.20341e-06
-5.15321e-05
-1.68178e-09
-4.1018e-09
5.45834e-05
-2.59342e-09
0.000419381
-1.71164e-09
2.28294e-08
-3.05285e-07
1.85681e-10
4.19133e-09
2.25397e-05
9.50657e-07
-4.33791e-09
-4.29932e-05
8.58537e-06
-4.01881e-05
2.11322e-06
-1.96542e-05
3.13038e-10
0.000463081
-1.97897e-05
-1.32181e-08
5.29756e-05
3.43323e-07
-1.51513e-07
-5.70973e-05
-2.25242e-09
-1.40827e-07
-2.94178e-05
-1.90262e-07
0.00010696
-9.77445e-09
9.13073e-09
-2.08344e-09
-0.000155876
4.12607e-06
0.000228852
-4.88517e-09
0.0013354
2.10266e-05
-7.24322e-06
-6.30524e-09
0.000185655
9.03564e-06
-4.85476e-10
1.16962e-05
-1.31906e-06
-4.22375e-05
-3.18595e-09
-8.31726e-10
7.04653e-09
3.297e-07
-1.38845e-09
-1.48988e-07
0.00028425
-1.31823e-09
-0.000181246
0.000239815
1.11619e-05
-4.93879e-05
-1.30081e-07
1.73873e-05
-2.17259e-05
4.89424e-05
6.88691e-06
0.000250456
3.4997e-05
-3.3398e-09
-0.000147356
3.5091e-09
3.71847e-05
5.71364e-11
-2.17571e-07
-1.61677e-09
0.000373831
0.000374929
-9.822e-09
5.6381e-05
-0.000409375
1.48565e-08
-4.28919e-06
3.61204e-07
1.57069e-06
8.07773e-08
5.84968e-06
-4.66693e-05
-1.36877e-07
8.32087e-05
-0.000239281
0.000269637
0.00186805
4.4939e-07
-4.48971e-10
6.44916e-10
0.000209
2.55391e-05
5.04195e-06
-0.000113542
1.64317e-05
9.224e-06
-0.000460072
0.000347968
2.39757e-06
-4.72848e-05
2.57239e-07
-0.000127996
5.15455e-09
0.000318848
-5.05446e-09
-1.32787e-06
-2.52768e-07
-0.000312801
-3.56984e-07
-4.93247e-05
-2.11319e-07
-1.70045e-09
0.00017706
1.24388e-05
1.1971e-05
0.000522301
3.83365e-05
1.08045e-05
-5.55549e-06
-4.62205e-10
1.85237e-06
3.45052e-08
3.25577e-05
0.000186407
8.8411e-05
0.000287455
5.85184e-05
-1.15094e-05
-4.94449e-06
2.74327e-07
-5.01068e-09
-2.17792e-06
3.97444e-05
-5.19359e-09
1.50286e-05
-1.23815e-05
-1.73053e-05
-4.65665e-09
-8.49665e-08
-0.000614589
2.17617e-07
1.58299e-08
1.48311e-05
-1.06909e-09
1.69723e-06
-5.28201e-07
1.94474e-05
9.19778e-06
6.61616e-05
-3.18686e-06
-0.000104058
2.79334e-05
-2.57051e-11
-0.000504966
1.46685e-05
-1.88968e-08
0.000620539
0.000112071
0.000646701
-2.53582e-09
1.27652e-05
1.49331e-10
4.6347e-09
3.61432e-09
7.93216e-06
1.13777e-05
-6.5489e-07
2.92913e-05
2.35951e-09
3.89219e-09
4.07834e-05
2.43722e-05
1.60256e-05
-5.47151e-09
-5.25881e-09
1.54268e-05
1.97015e-07
2.23754e-07
-4.56077e-09
-1.29212e-05
-6.5867e-10
-1.38744e-07
0.00129851
0.000246954
-2.94592e-06
-4.1725e-08
-1.70381e-07
0.000201058
-7.8998e-05
2.77394e-05
2.2447e-05
-1.55901e-08
8.14881e-07
0.00121486
-0.000550859
-6.8139e-05
6.64114e-06
-1.75863e-09
-6.21121e-05
9.84101e-09
-1.24772e-06
0.000298164
-4.75396e-05
1.02135e-05
-4.88885e-08
4.18252e-05
3.71249e-07
-2.9425e-05
-1.12244e-09
7.74379e-06
-3.09369e-09
1.8211e-05
-0.00062588
-1.58901e-10
-1.70178e-07
-2.78339e-05
1.99614e-10
2.51849e-06
5.2212e-05
0.00198932
-7.59434e-05
0.000132168
-8.82471e-11
-4.0858e-07
-1.08615e-08
-2.87923e-07
-7.90162e-06
1.07444e-05
1.3156e-06
-2.49565e-07
2.77595e-07
0.00035887
-6.27399e-09
4.36047e-05
6.02946e-06
-1.08316e-09
3.72473e-09
0.000100433
4.70046e-11