/*--------------------------------*- C++ -*----------------------------------*\
| =========                 |                                                 |
| \\      /  F ield         | OpenFOAM: The Open Source CFD Toolbox           |
|  \\    /   O peration     | Version:  v2012                                 |
|   \\  /    A nd           | Website:  www.openfoam.com                      |
|    \\/     M anipulation  |                                                 |
\*---------------------------------------------------------------------------*/
FoamFile
{
    version     2.0;
    format      ascii;
    class       surfaceScalarField;
    location    "300";
    object      ddtCorrDdt0(phi);
}
// * * * * * * * * * * * * * * * * * * * * * * * * * * * * * * * * * * * * * //

dimensions      [0 3 -2 0 0 0 0];
oriented        oriented;


internalField   nonuniform List<scalar> 
21967
(
9.38695e-08
-1.53988e-07
6.03135e-08
-1.40207e-08
4.57293e-09
9.58547e-09
-1.23644e-06
6.98947e-08
1.16754e-06
2.41715e-08
-1.38793e-08
-1.02112e-08
-4.43025e-08
-5.89246e-09
5.0352e-08
5.19134e-07
-3.36076e-07
-1.83133e-07
-6.05926e-08
4.48199e-08
1.59402e-08
1.3749e-07
-8.28454e-08
-5.4858e-08
5.14957e-06
-4.80796e-06
-3.40573e-07
-5.79581e-07
1.3287e-07
4.46791e-07
5.90589e-05
-6.80315e-05
8.97255e-06
7.94239e-06
-3.21886e-06
-4.72297e-06
-0.000200607
0.000196072
4.53488e-06
-0.000269682
0.000124608
0.000145075
4.18944e-07
1.7197e-07
-5.90929e-07
-1.97792e-08
1.56276e-08
4.13138e-09
-4.19886e-07
3.68843e-07
5.12819e-08
-0.000131758
-0.000137925
-1.06891e-08
-8.91768e-09
1.4621e-07
-5.25741e-08
-3.14096e-08
4.17854e-08
-1.05266e-08
-4.5025e-08
8.509e-10
-2.52517e-05
1.04836e-05
1.47687e-05
4.75133e-08
-6.68998e-08
1.97166e-08
-0.000275698
4.79218e-05
0.000227777
-8.16509e-08
-4.7562e-08
1.29269e-07
-5.95157e-08
-1.23246e-09
-5.71187e-08
2.22498e-08
3.44463e-08
5.8741e-07
-1.6839e-07
2.7698e-07
1.71192e-06
-1.98819e-06
1.9124e-05
5.01006e-05
-6.92253e-05
-3.56557e-07
-6.29725e-08
7.0766e-09
-5.1492e-08
4.3952e-08
6.40405e-08
7.33401e-08
5.5239e-07
-1.32738e-07
-4.20391e-07
1.95971e-08
9.92618e-09
-2.93282e-08
2.52271e-08
-3.63891e-08
1.09932e-08
8.63559e-08
-3.90306e-08
-4.22911e-07
-1.213e-06
1.62176e-06
-5.69287e-08
-8.50996e-08
1.4202e-07
1.17725e-06
-1.06594e-06
-1.09873e-07
-3.79327e-07
-3.27014e-08
4.98746e-06
-3.75484e-06
-1.23248e-06
2.81731e-08
1.34761e-08
-4.16294e-08
-0.000255256
0.000146034
0.000109221
-2.63799e-05
-2.02794e-05
4.66593e-05
1.7342e-06
-1.37973e-06
-3.54868e-07
1.19588e-08
1.24595e-08
-3.68633e-06
-5.50323e-10
3.68682e-06
3.08199e-08
-6.21702e-08
-5.58342e-08
2.54822e-08
3.00641e-08
2.25835e-08
-2.47149e-08
2.04485e-09
1.6046e-07
-2.89321e-07
1.28901e-07
-5.40719e-06
-1.98444e-05
4.49533e-08
-3.81334e-08
-2.52258e-08
-3.21315e-08
5.97769e-08
-1.41624e-07
4.10626e-07
-4.18846e-08
0.00018427
0.000316539
-0.000500808
-0.000205393
4.78604e-06
-4.64561e-07
1.08235e-07
1.49109e-07
4.02568e-07
9.53803e-08
-1.55769e-07
6.02501e-08
-1.04887e-08
-3.42774e-09
6.38503e-08
-5.36471e-08
-1.09307e-08
4.36345e-06
3.58268e-06
0.00010509
-0.000536641
0.000431551
-4.87697e-06
-2.84547e-06
7.72067e-06
-1.5684e-07
-4.22768e-07
2.5826e-07
-2.03646e-07
-5.47305e-08
5.23376e-08
9.07756e-08
-1.42983e-07
7.82904e-07
-5.65973e-06
-2.15969e-08
-4.36735e-08
6.51518e-08
-2.80451e-07
-1.1019e-07
3.90243e-07
-8.66988e-07
1.26041e-06
-3.93162e-07
-2.9425e-08
-2.68523e-08
-1.88982e-08
-1.06683e-09
2.0024e-08
1.41131e-06
6.12167e-07
-2.02381e-06
-6.14849e-08
1.80236e-07
-1.18746e-07
-4.48795e-05
2.42907e-05
2.05859e-05
-1.27186e-05
-3.21625e-05
5.22731e-05
-7.7071e-05
2.4798e-05
-2.15018e-07
1.7776e-08
1.97562e-07
-1.15184e-06
3.47654e-07
8.04326e-07
-2.2067e-08
2.20854e-08
-5.13281e-08
6.68996e-09
4.4381e-08
3.99441e-10
-3.67381e-09
3.25927e-09
-1.99685e-08
-1.75857e-08
3.77252e-08
1.55222e-08
-9.83113e-08
8.24162e-08
6.99679e-08
-5.44607e-08
-2.1098e-05
2.12808e-05
-1.82423e-07
1.73414e-08
-3.61605e-08
7.50923e-08
-1.32144e-07
-1.11682e-08
-2.20374e-08
3.29793e-08
-4.0818e-07
7.56191e-07
-3.48165e-07
-1.93284e-06
2.26934e-06
-3.3594e-07
1.27263e-08
-1.36767e-08
1.03685e-09
-0.000130648
-3.51243e-07
1.21178e-07
2.2985e-07
3.43521e-05
1.7921e-05
-4.29555e-05
1.65759e-05
5.29196e-06
-1.46702e-06
-3.82808e-06
-1.22755e-06
1.07104e-06
1.56561e-07
3.50652e-08
2.86259e-08
8.31538e-07
-1.92705e-07
-6.38337e-07
5.88061e-05
-0.000334505
-4.64617e-07
3.59517e-07
1.04877e-07
1.34956e-08
8.78361e-10
-1.37274e-08
-1.89488e-07
-1.61905e-07
5.502e-07
-5.89224e-07
3.93747e-08
1.11002e-08
2.83401e-09
6.10544e-08
-5.25511e-07
-9.78404e-06
1.85178e-05
-6.10121e-08
-1.51164e-07
2.12606e-07
-2.88476e-07
2.10848e-07
7.69145e-08
3.04941e-07
-1.19895e-06
8.94087e-07
7.21511e-07
-1.46989e-06
7.46054e-07
1.23334e-07
4.86412e-06
-4.42829e-08
2.25629e-08
2.12931e-08
-2.00538e-07
8.3931e-08
1.16685e-07
2.26308e-07
-1.09294e-06
1.34028e-07
6.97806e-07
1.74046e-08
-2.87447e-08
-6.42188e-08
-1.50191e-07
-2.85276e-08
1.30189e-07
-1.91066e-07
7.78633e-10
-2.97991e-10
1.31848e-09
1.32336e-09
-2.54285e-09
-2.91864e-08
-5.35305e-08
-1.56467e-06
1.84202e-06
8.7355e-09
-6.39785e-09
-2.33062e-09
-2.40652e-06
4.7326e-07
3.86718e-06
1.28261e-06
-0.000162738
8.7047e-05
7.56915e-05
-3.31434e-07
4.91968e-07
-1.59894e-05
2.99543e-05
-1.39653e-05
5.20896e-06
3.99478e-06
-9.20597e-06
1.01797e-05
2.18624e-05
-3.20491e-05
-1.00995e-06
0.00031186
-2.42174e-05
-0.000287643
3.17409e-08
-6.6898e-09
-2.61924e-06
-1.33179e-07
2.75307e-06
-9.6403e-06
1.98187e-05
4.12355e-08
-1.30566e-08
-5.44831e-06
-1.42554e-06
6.89473e-06
-1.78451e-06
1.30964e-06
4.74749e-07
1.55264e-06
-8.32815e-07
-1.77135e-06
5.62599e-07
-2.95803e-07
5.65897e-07
-2.69925e-07
-1.22677e-07
-2.76777e-07
4.00406e-07
0.000385138
-0.000280048
3.78306e-09
5.02699e-09
-4.23678e-07
-8.0366e-07
-1.26116e-05
7.18695e-06
-3.43481e-08
-1.2062e-07
-3.47894e-09
-4.07708e-09
7.71161e-09
0.000388832
-6.8313e-05
-0.000320519
-5.47641e-08
4.05838e-08
1.45765e-08
3.00739e-08
7.55582e-10
-3.08463e-08
-6.33677e-07
3.37836e-07
-4.99875e-08
2.11447e-08
2.8664e-08
-3.24068e-07
-2.64439e-07
5.88192e-07
-2.98522e-09
4.36805e-09
1.24976e-06
-9.92778e-08
1.43738e-07
-4.4283e-08
-1.04949e-05
-1.96556e-05
3.01522e-05
4.77954e-09
1.88382e-09
-6.58495e-09
3.3591e-07
-7.44053e-07
-0.000226977
0.00023477
-7.79343e-06
-1.88117e-08
-3.58838e-08
-2.40814e-08
-2.5695e-08
3.64029e-08
-5.78005e-08
2.16906e-06
-9.90295e-07
-1.17809e-06
-7.13656e-07
-1.07103e-06
-1.78006e-05
3.51115e-05
-1.73105e-05
-2.87739e-07
2.83568e-07
4.15068e-09
-1.63663e-06
-1.94842e-06
3.58593e-06
-3.15729e-07
4.68073e-06
1.84455e-06
3.24738e-07
-0.000223416
-3.5616e-06
2.16134e-07
-2.0703e-07
-9.22942e-09
-2.75973e-06
-9.26737e-07
-2.25113e-08
-2.00118e-08
4.23125e-08
-0.00020192
0.000386189
1.95294e-07
-2.4008e-07
4.46728e-08
-1.07777e-06
-8.5598e-08
1.1636e-06
1.00807e-05
-2.60694e-05
-5.45326e-09
-2.62772e-07
2.6828e-07
-9.04899e-05
-7.22484e-05
8.10715e-09
-3.31449e-09
-2.63287e-07
3.36133e-08
2.29331e-07
-6.23448e-07
9.07721e-07
-2.85034e-07
7.47814e-06
5.40258e-06
-1.28845e-05
-0.000202491
0.000108402
9.40886e-05
-2.00246e-05
2.64989e-05
-6.4751e-06
4.81552e-05
-0.000201835
0.000153686
1.15635e-05
-1.58682e-05
4.30462e-06
1.73917e-07
-1.79401e-07
2.46482e-08
-4.71469e-08
1.19797e-06
9.00273e-07
-2.09824e-06
1.75548e-08
-3.35894e-08
1.54111e-08
-1.65929e-07
1.63616e-07
2.3352e-09
-7.36752e-07
4.12434e-07
-1.10965e-06
4.89943e-07
6.27349e-07
1.43617e-07
3.75022e-07
-7.68615e-07
1.03616e-06
-2.6808e-07
-8.05491e-05
9.96736e-05
-0.000362731
7.79927e-05
0.000284738
4.53964e-08
-3.25674e-07
4.32608e-08
-2.24472e-08
-2.08705e-08
4.23961e-09
-3.73966e-09
-5.88531e-10
-1.60932e-07
-9.16683e-07
1.4245e-06
-1.55714e-06
9.60294e-09
-2.34518e-08
-2.84209e-06
1.36669e-06
1.47551e-06
8.59675e-09
7.46896e-10
-9.58599e-09
-0.000190668
0.00024765
-5.69826e-05
8.54333e-09
1.09231e-08
-1.96885e-08
2.65398e-06
2.56221e-06
-0.000276402
-8.6329e-05
-2.74577e-06
4.73684e-06
-1.99218e-06
5.51612e-05
0.000114041
-0.000169199
-4.40226e-08
3.00454e-08
1.41567e-08
-0.00036067
0.000137254
-5.09223e-08
-4.61381e-07
5.12724e-07
-9.66613e-07
1.98232e-07
-1.47196e-07
-1.40408e-07
9.43022e-09
-9.16307e-10
0.000281173
-0.000286984
5.81056e-06
-2.65587e-07
-6.51724e-06
6.78232e-06
-7.98725e-07
2.20921e-06
9.07385e-07
-2.09325e-05
-3.57703e-08
9.23953e-09
2.60495e-08
2.123e-08
-0.000273575
0.000201068
7.25063e-05
-1.11468e-08
-4.02936e-08
1.29704e-06
-4.40381e-07
-8.56381e-07
1.90854e-05
-7.52285e-06
-2.63494e-08
2.53549e-08
7.02144e-10
0.000250733
-0.000131011
-0.000119723
6.14335e-06
-2.83047e-06
-3.3171e-06
3.5334e-06
-1.62037e-06
-1.91324e-06
-0.000101075
9.88227e-05
2.25738e-06
5.10208e-07
5.6359e-08
3.24325e-08
1.12704e-08
-4.3167e-08
1.25777e-08
-4.90454e-09
-7.78359e-09
2.75096e-06
1.71591e-07
-2.92245e-06
4.60871e-07
-4.76985e-07
1.63524e-08
-5.52353e-08
-2.24672e-10
5.58811e-08
-5.4026e-08
-3.39455e-08
-1.02391e-06
1.05769e-06
-6.38704e-07
5.93062e-06
-7.32093e-08
-1.29485e-06
7.6681e-07
5.28226e-07
8.87904e-11
-2.36191e-08
2.39255e-08
0.000469665
-0.000193692
-0.000275973
-1.04187e-06
-1.09621e-07
-2.7314e-07
9.18626e-07
-6.45343e-07
2.3989e-06
-1.2005e-06
6.28284e-07
-1.17781e-07
-5.64789e-07
-7.30152e-07
-0.000280323
0.000328245
-2.32779e-08
2.37524e-08
3.25086e-06
-9.40834e-05
9.08332e-05
-1.43493e-07
-1.19872e-07
-3.50649e-08
-3.00857e-07
3.36406e-07
3.30001e-08
-1.64435e-08
-1.66405e-08
0.000329204
0.000140461
-8.98356e-07
1.91417e-06
-1.01465e-06
1.47712e-07
-5.25197e-08
1.74964e-08
1.69952e-08
-3.48727e-08
-4.45701e-06
5.73867e-06
-1.28186e-06
6.04667e-07
5.67441e-07
1.48569e-06
4.65691e-06
-4.36734e-07
1.13253e-07
3.22231e-07
-0.00012754
1.12136e-09
3.12385e-09
1.05275e-06
-5.78669e-07
-4.71888e-07
6.24511e-08
-0.000149635
0.000204797
1.73662e-08
1.55545e-08
8.84351e-07
-2.80378e-07
-6.0463e-07
-1.1724e-08
-2.43726e-08
4.2064e-08
-1.67608e-06
1.63427e-06
-6.00083e-09
-2.04593e-08
3.22227e-07
-5.05933e-07
1.83623e-07
-4.42259e-08
-5.20218e-08
2.35128e-07
-1.83205e-07
-4.77027e-08
2.76255e-08
1.95236e-08
-5.69101e-07
4.03067e-07
1.66234e-07
-3.32514e-07
2.97569e-07
6.50645e-07
4.02275e-07
-0.000221536
-0.000139135
5.64609e-07
-4.19493e-07
4.6295e-08
3.99577e-08
-2.06835e-07
-8.20505e-08
-4.04922e-07
-4.7362e-07
8.78208e-07
-3.0871e-08
-1.3558e-08
4.4417e-08
4.4023e-08
1.81446e-10
-4.43716e-08
-3.43107e-09
2.75578e-10
3.207e-09
-2.60418e-06
-1.82126e-06
4.42532e-06
-5.62686e-06
1.32483e-06
4.30231e-06
-2.66198e-08
-2.19831e-06
2.81064e-06
-2.55324e-08
-1.83518e-08
-5.49513e-05
-5.21478e-05
0.0001071
0.000771132
-0.000228771
-0.00054236
4.02205e-08
-2.30001e-08
-1.71859e-08
-7.41507e-06
4.26147e-06
3.15479e-06
2.65121e-05
-6.92825e-06
-1.95864e-05
1.94603e-09
-1.16905e-08
1.01588e-08
-8.39613e-09
1.67606e-08
1.1627e-06
-3.42437e-07
-8.20759e-07
2.92725e-08
-5.59095e-06
5.32621e-06
-7.79529e-08
7.20467e-08
5.34239e-09
1.37924e-05
5.01359e-09
-4.29206e-09
-6.55262e-10
8.86006e-07
7.86627e-09
-3.06953e-09
-4.78008e-09
-3.28372e-06
6.79557e-07
1.72248e-08
-1.20912e-08
-6.16657e-09
2.8495e-07
1.01236e-06
2.93174e-05
8.16387e-05
-0.000110956
3.49043e-08
-5.64026e-08
2.87531e-08
2.75913e-08
2.27604e-06
-5.02205e-06
1.17233e-06
-8.67238e-07
6.3255e-07
1.21724e-08
-6.48498e-07
1.49234e-07
-1.78669e-07
2.92547e-08
-1.21771e-05
-1.82257e-05
3.04045e-05
1.3892e-07
-1.01056e-07
-3.79145e-08
-4.6318e-08
-1.96342e-07
1.44328e-07
-1.62671e-08
-1.24651e-06
1.26095e-06
5.13317e-07
-1.91059e-07
-1.26357e-07
-3.1198e-07
-2.46974e-07
2.74398e-07
-2.72506e-08
-1.03414e-06
9.48659e-07
-5.58015e-08
-3.33974e-07
8.29927e-08
2.50748e-07
4.31185e-08
1.21401e-06
-1.25512e-06
-3.86634e-06
-2.2255e-06
6.0916e-06
-4.28772e-07
-7.70088e-07
3.15967e-07
1.10874e-06
6.93902e-09
-2.57701e-08
1.76143e-06
-4.04315e-06
2.2851e-06
-2.44581e-06
9.92343e-06
-1.30202e-07
-3.56229e-08
-1.2003e-07
5.25028e-08
6.71116e-08
2.13274e-07
-3.23619e-07
-1.1328e-07
1.65782e-07
-5.24034e-08
-1.62992e-08
8.48771e-09
8.42956e-09
5.50492e-06
7.87738e-05
-8.42782e-05
-2.79561e-08
4.70261e-08
-1.95508e-08
-3.13172e-06
-1.52052e-07
1.3497e-05
6.75932e-06
-2.02569e-05
4.07415e-08
-8.13851e-09
-7.98753e-05
0.000109193
-2.0454e-08
3.02847e-09
1.75355e-08
-2.54585e-05
1.55982e-05
9.85905e-06
2.87586e-09
-3.84398e-09
1.24868e-09
6.29633e-06
-3.98869e-06
-2.30707e-06
-1.47942e-06
2.90044e-07
1.19064e-06
-2.8522e-07
3.83186e-08
-5.30292e-06
-3.23981e-07
-1.25009e-08
-8.08775e-09
-5.51176e-05
5.74067e-06
-3.32125e-07
-1.14688e-06
-1.28281e-05
-1.26304e-05
-2.1333e-06
-9.98436e-07
4.52144e-07
-7.36444e-07
2.83979e-07
-1.95692e-06
1.03701e-06
9.20295e-07
0.000351412
-0.0005107
0.000159288
1.42738e-05
4.4785e-05
-9.67828e-07
8.06888e-07
-1.20819e-06
1.03729e-06
1.71116e-07
3.52042e-05
-0.000103236
3.31058e-08
-1.5596e-08
-1.75093e-08
-1.33494e-06
-4.15112e-07
1.74877e-06
-6.57576e-09
8.84916e-09
-4.18668e-05
2.29043e-06
1.76921e-07
-2.46856e-06
3.83067e-08
-9.24122e-08
-8.33208e-08
-1.87332e-06
2.26283e-10
4.14107e-09
-4.29481e-09
-1.49146e-08
-1.26866e-09
-5.0182e-08
2.22563e-08
-4.9127e-07
4.40425e-07
1.40304e-08
-1.56395e-09
-1.78915e-08
9.01803e-07
-2.31869e-06
9.76731e-06
-7.44777e-06
3.96186e-08
-3.31564e-08
-6.37767e-09
6.74566e-10
7.18446e-09
1.77944e-08
-5.86425e-07
5.53184e-07
3.35506e-08
1.52866e-06
-1.52357e-07
-1.37759e-06
4.30681e-08
-9.46603e-09
-3.37355e-08
-3.9618e-05
2.18181e-05
-3.6148e-07
-1.7804e-07
5.39211e-07
-3.15032e-08
6.61535e-08
-3.45317e-08
2.87341e-06
4.28152e-05
-4.56824e-05
1.0412e-07
-3.35131e-07
2.31103e-07
-2.99386e-07
9.30821e-07
1.03399e-06
1.29431e-07
-1.16539e-06
-4.89959e-09
-5.0441e-08
-1.74154e-06
-4.10285e-06
5.84344e-06
4.2952e-09
-3.58983e-09
4.26433e-07
-2.70881e-05
2.66662e-05
-2.36346e-08
-3.27176e-08
3.31816e-08
-3.48228e-08
1.27832e-09
-4.14953e-07
1.13961e-07
3.00022e-07
-3.53284e-09
-1.81527e-07
0.000188863
0.000582269
7.39044e-09
1.31483e-07
-7.16582e-05
5.98658e-05
1.17911e-05
-3.53609e-08
2.184e-08
1.32219e-08
-8.44089e-08
1.36789e-07
-6.63025e-08
3.47972e-08
-0.000110069
-7.36474e-08
3.74657e-06
-3.20091e-06
-5.45218e-07
-5.34656e-06
1.04446e-05
-5.09722e-06
-2.75353e-06
1.40807e-06
1.34624e-06
-1.4909e-08
2.6827e-09
1.24849e-08
-1.24752e-06
1.29131e-06
1.1618e-06
-3.91924e-07
-7.68806e-07
-2.65536e-07
-9.43764e-08
3.57022e-07
3.41538e-08
-3.0605e-08
-3.94015e-09
-1.96807e-07
6.6657e-08
8.75765e-08
-2.28055e-07
1.40383e-07
0.000393989
-0.000692889
0.000298901
-3.02812e-07
1.62225e-06
-1.31884e-06
-1.34831e-07
1.48395e-07
-1.33698e-08
1.31962e-06
-6.66521e-06
-1.42589e-06
7.15306e-07
7.11171e-07
6.45387e-07
5.17405e-07
-5.73051e-09
-9.45338e-09
1.33962e-09
3.32815e-07
-3.35265e-07
-1.60066e-07
3.74433e-08
-2.97261e-08
-7.98691e-09
6.23661e-06
-7.97865e-06
2.43012e-08
-1.89358e-09
8.37005e-07
-7.21387e-07
-1.1586e-07
7.7367e-07
0.000154394
-0.000121566
-3.28288e-05
-2.80358e-06
5.13186e-08
3.39815e-08
-1.6566e-08
1.83111e-05
-9.81862e-05
1.53146e-06
-4.98142e-07
-7.27806e-05
0.000103379
-3.05993e-05
-5.21414e-07
-1.33279e-07
6.5498e-07
1.19176e-07
1.40926e-06
3.4022e-08
2.98459e-07
-3.32061e-07
-1.96936e-08
3.34547e-08
-1.34375e-08
0.000124966
-4.33277e-05
-8.82918e-09
1.30065e-08
-4.33389e-06
-3.72034e-06
3.49098e-07
3.37061e-06
-3.43735e-07
1.36443e-07
-3.78243e-08
-3.72614e-06
2.53819e-06
1.18605e-06
-4.33982e-05
-2.82593e-05
1.82792e-08
1.91674e-08
-3.77194e-08
-8.39281e-06
5.94714e-06
3.60806e-07
4.76211e-07
-7.49551e-06
5.17671e-06
7.32254e-07
5.24905e-07
-1.25571e-06
1.19459e-08
2.53912e-08
3.52619e-08
-1.11785e-08
2.31874e-08
-5.43309e-07
2.00793e-07
3.42356e-07
1.14364e-05
-7.36914e-06
3.50403e-06
-3.01767e-07
-1.12988e-07
6.93234e-07
-1.11679e-06
-2.76062e-06
6.27307e-07
-8.43399e-07
2.42277e-07
6.01399e-07
1.02271e-08
1.53433e-07
-1.63794e-07
-1.15872e-07
-6.11235e-07
-2.23081e-06
1.34714e-06
-6.53507e-07
2.87496e-08
-1.00908e-06
9.80831e-07
-0.000108221
6.6354e-05
-2.51349e-05
7.22161e-08
-6.30598e-08
-9.30271e-09
-1.29477e-06
1.25338e-06
4.21842e-08
-1.58668e-07
-3.9926e-07
4.00321e-07
4.13553e-07
-5.43091e-07
1.29412e-07
-1.68567e-06
2.64638e-06
-9.63021e-07
0.000401136
-4.97258e-05
-3.78086e-07
-1.33064e-07
5.11293e-07
3.69446e-08
-1.19817e-07
8.2872e-08
-3.66808e-07
1.01937e-07
2.64812e-07
0.000205826
-9.79979e-05
-0.000107828
-2.42859e-07
-1.23969e-07
-9.06878e-10
4.59922e-09
3.83532e-08
-1.30157e-07
1.06164e-07
2.32459e-08
-1.72362e-06
4.19669e-08
3.28502e-08
-3.68902e-07
1.54591e-05
-3.52497e-05
1.97993e-05
-2.34457e-06
6.56909e-07
-2.67767e-06
-1.04849e-06
-1.84106e-07
-4.3961e-08
-5.34499e-07
-5.76141e-07
-7.75241e-07
-5.92074e-07
1.82038e-07
4.0861e-07
-0.000116711
-7.79945e-08
-3.92405e-07
-0.000162057
8.92758e-05
-6.7654e-07
4.18564e-07
2.58235e-07
2.85525e-07
1.40667e-07
-4.26103e-07
-3.09146e-09
-2.00996e-08
2.31218e-08
1.63382e-05
-4.75436e-06
-1.15855e-05
-2.34383e-07
9.07645e-08
-5.9734e-07
2.35232e-07
-1.6253e-06
1.32311e-06
1.44732e-06
4.8515e-06
-2.50206e-07
2.62129e-07
-1.22536e-08
2.97612e-07
-5.96331e-07
2.98904e-07
7.75949e-07
7.77447e-07
-2.90178e-06
2.23818e-06
6.63408e-07
-4.60413e-07
3.76213e-07
8.38707e-08
1.60034e-06
-1.40102e-06
-2.14058e-07
0.00020772
-0.000171662
-3.60554e-05
8.72739e-09
-1.20511e-08
-1.10567e-07
-8.5564e-05
0.000133721
5.59684e-05
0.000345167
3.53629e-08
-1.87387e-08
-1.65929e-08
0.000154184
5.35384e-05
-1.69989e-07
1.58755e-07
1.05973e-08
-2.23344e-06
-4.28425e-06
-2.02383e-06
1.12622e-06
-2.73573e-09
-1.3216e-07
1.89555e-05
7.61255e-05
-9.50812e-05
1.24723e-08
-1.60063e-09
-1.09127e-08
-1.81898e-05
5.36245e-06
-1.01385e-06
1.18456e-06
-1.7059e-07
-3.20224e-07
4.55269e-07
-1.35135e-07
5.41735e-07
4.09335e-08
-1.73333e-08
-2.37426e-08
9.29561e-08
2.02069e-07
-2.95621e-07
-4.72557e-09
-1.73254e-08
1.90133e-08
4.1922e-09
-1.24354e-09
1.88346e-08
-2.19727e-08
6.53931e-09
-4.01298e-09
-2.0749e-09
2.68609e-08
5.13399e-07
-5.39982e-07
-8.54374e-08
1.22414e-07
-0.000186637
2.81898e-05
-7.48476e-05
4.66578e-05
-1.26189e-07
9.00816e-08
3.63092e-08
-6.19673e-07
8.82418e-08
5.31384e-07
1.10005e-08
2.41693e-08
-4.27183e-07
3.92301e-07
3.46824e-08
-2.03079e-08
-1.26664e-08
3.29218e-08
3.5789e-05
2.40739e-05
2.8865e-08
3.11993e-08
-5.99523e-08
-2.43175e-06
7.95732e-07
3.50148e-08
1.60166e-07
1.22203e-05
-1.86427e-05
6.42131e-06
-6.3079e-07
-3.26303e-07
9.57117e-07
-6.07312e-08
-1.35879e-07
1.50117e-08
2.43126e-08
1.67862e-06
-1.35991e-06
-3.20393e-07
-9.09248e-07
8.7535e-07
9.18174e-07
7.32947e-07
-1.6496e-06
-1.84421e-05
1.3035e-05
3.07153e-07
-1.77127e-07
9.25519e-05
-1.00461e-06
-0.000101584
-3.68765e-05
0.000138461
5.71576e-09
-5.4513e-09
-5.5405e-07
1.28979e-06
-7.35025e-07
-1.74151e-07
9.6278e-08
7.85615e-08
-7.09299e-07
-0.000304493
-9.24086e-08
-1.40278e-07
3.03127e-08
-4.94897e-09
-2.56059e-08
6.39998e-09
-1.87531e-08
1.2272e-08
-7.14062e-09
5.62756e-09
1.20162e-09
-2.38117e-08
2.66953e-08
-3.06996e-09
-0.000140485
3.89019e-05
-1.10649e-07
1.4692e-07
-3.58494e-08
8.5802e-05
-0.000622443
-3.30108e-06
7.22497e-05
-6.89476e-05
0.000203388
-0.000144582
-7.249e-08
-3.87691e-07
1.02358e-07
-9.89747e-08
-3.26118e-09
2.30749e-07
-2.33968e-07
3.44017e-09
-4.57481e-07
4.84461e-07
-4.39121e-07
5.31739e-07
4.04737e-06
-2.28529e-06
-7.36089e-07
-1.56793e-07
8.93331e-07
4.15352e-08
-2.34341e-08
-1.793e-08
1.14644e-05
-2.36404e-05
5.53734e-08
1.75452e-07
3.25656e-06
8.96389e-06
2.95307e-07
-4.17642e-07
-9.63526e-05
0.000408211
-6.41497e-08
-8.42155e-06
-2.59921e-07
-2.94936e-08
5.46744e-08
-2.54023e-08
-1.20572e-05
2.32821e-05
-1.12269e-05
3.67647e-08
-5.57583e-07
2.51472e-05
-1.16507e-05
-1.66121e-08
3.17545e-05
-0.000222422
3.50935e-08
-6.46557e-08
-5.58272e-07
1.80543e-07
7.85057e-08
-1.91861e-07
-3.28468e-07
-9.25191e-08
4.19239e-07
1.14147e-06
-1.01112e-06
-3.78176e-06
1.83318e-06
-3.23875e-06
2.72126e-06
5.1553e-07
-1.99758e-07
7.02503e-07
-5.01901e-07
-5.75794e-08
3.15783e-07
0.000246465
1.79103e-07
-4.16615e-08
-1.3739e-07
-0.000123219
-0.000106211
0.00022943
2.19739e-07
-3.0286e-07
8.27887e-08
-7.09088e-08
-1.03357e-07
9.4359e-08
6.23476e-08
-1.56745e-07
1.87818e-07
8.67626e-08
9.298e-09
3.13202e-09
4.21593e-07
-1.69096e-07
1.07597e-07
1.06687e-06
6.67196e-07
-0.000225209
0.000347418
-0.00012221
6.29905e-07
-5.36001e-07
-9.41213e-08
5.48037e-08
-1.53944e-07
4.39742e-05
7.47265e-06
0.000166311
-0.000173784
1.44007e-08
1.08085e-08
-2.50598e-08
-1.68567e-07
-2.02975e-06
4.38677e-09
2.35905e-09
-1.90302e-07
1.29599e-07
-5.8255e-08
-6.86898e-08
1.2704e-07
1.33672e-07
-5.85509e-08
3.53293e-08
-1.80053e-08
2.12151e-07
2.97849e-07
-5.10162e-07
6.39044e-05
-1.636e-06
1.53573e-07
1.48265e-06
6.55875e-08
1.64687e-07
-3.78062e-07
2.13264e-07
-1.26062e-06
-8.77931e-05
0.000112431
-6.60472e-08
-3.68845e-06
-4.23155e-07
2.92428e-05
1.36882e-05
-4.29334e-05
0.000254553
-0.000179601
-7.49517e-05
2.23681e-08
-4.27443e-08
-4.68135e-08
1.00491e-06
-9.58171e-07
-4.73619e-09
3.4686e-08
4.22426e-05
-1.2997e-05
-3.91196e-07
6.85127e-07
-2.94713e-07
-5.50368e-07
3.03367e-08
5.21917e-07
8.21454e-07
-3.15156e-07
-5.05808e-07
0.000107068
-0.000103817
1.00803e-07
-1.61709e-07
6.0863e-08
-4.70791e-06
3.06225e-06
1.64842e-06
-2.30549e-06
2.34741e-06
5.32103e-08
-2.39461e-08
-0.00018368
6.04608e-05
4.69397e-07
2.28165e-06
3.7756e-08
-0.000129448
0.000150066
-2.0619e-05
1.73275e-05
-2.69698e-05
0.000158123
1.03204e-05
-0.000168443
-6.64333e-08
1.63677e-07
-6.29038e-08
-2.59636e-05
1.41446e-05
1.18204e-05
-1.68149e-05
-4.28264e-06
-3.6904e-07
-2.3825e-05
2.01466e-05
3.65966e-06
-2.67662e-08
5.54098e-08
-2.95489e-08
-9.11122e-06
7.58296e-06
1.52815e-06
-1.14592e-06
1.06283e-06
2.60093e-10
7.91839e-07
9.83145e-07
-1.77484e-06
-2.88636e-09
5.61188e-09
-2.75597e-09
-3.58518e-06
-1.12162e-06
1.39029e-06
-4.71281e-07
6.56495e-08
-3.8588e-07
3.3086e-08
-4.21574e-08
-6.5104e-08
3.78524e-08
-1.59964e-06
1.03424e-06
-0.000398958
0.000587821
4.85457e-08
5.82016e-07
-4.87804e-08
5.98952e-07
-1.25833e-06
1.12661e-07
3.13613e-05
-7.58386e-09
4.66242e-09
6.67106e-09
1.47156e-09
-7.31298e-07
4.43853e-08
6.87135e-07
-4.06521e-07
3.15551e-08
3.7484e-07
6.88157e-08
3.36537e-08
3.76366e-07
-8.16389e-07
5.23324e-08
-1.10484e-07
-5.24263e-07
-1.23925e-08
3.13504e-08
-1.89917e-08
-1.30044e-05
-1.29585e-05
-1.61697e-07
2.01274e-07
-3.95384e-08
-1.67225e-07
-4.37356e-06
4.05641e-06
1.44265e-07
1.53651e-06
-3.86716e-08
-1.32681e-08
5.14903e-08
-1.91365e-08
-5.80948e-08
1.82337e-06
-1.22405e-06
-6.75506e-05
8.65055e-05
9.44015e-05
0.000108986
-4.95407e-08
-5.72535e-09
5.54658e-08
2.10954e-08
1.19249e-08
-3.27741e-08
5.51419e-07
-3.39454e-07
7.96879e-06
-1.87818e-06
-6.08814e-06
0.00013902
-1.40536e-05
4.69905e-09
2.88099e-08
1.45709e-06
-1.47469e-06
4.2023e-09
9.8059e-11
-7.1208e-05
-5.82401e-05
-3.63258e-09
-8.22027e-05
0.000288028
0.000616904
-0.000845676
7.02791e-05
0.000164491
-1.75051e-06
-1.593e-06
-1.82456e-08
1.47876e-08
3.26927e-09
3.85667e-09
-2.19141e-09
-2.97217e-09
2.41446e-08
6.0213e-09
3.80528e-06
-9.77302e-06
5.96791e-06
1.36187e-07
-1.47132e-06
-8.36041e-06
-0.000348636
1.71169e-08
2.4592e-08
-5.49636e-08
5.3527e-09
-4.61461e-08
1.51051e-06
2.35869e-06
-3.87007e-06
3.46112e-06
8.35313e-09
-2.49e-10
-6.96852e-09
1.31543e-07
-1.51557e-07
2.00306e-08
5.34703e-06
-3.83645e-06
-1.36038e-06
-1.83887e-06
3.19893e-06
-4.05131e-05
7.63029e-05
2.40396e-06
-4.02435e-06
-1.00875e-06
1.74313e-06
-2.77703e-07
-4.92711e-07
7.71078e-07
7.54727e-05
7.82815e-08
-7.83456e-07
4.75925e-08
-6.88727e-08
-1.65517e-07
-2.67937e-05
-8.45239e-06
-2.17535e-09
-1.42632e-08
1.60644e-08
-3.25787e-06
1.50703e-06
7.02791e-06
5.66606e-08
4.25091e-07
-4.8181e-07
-9.37881e-07
4.53078e-07
4.846e-07
-2.99654e-08
2.45418e-08
5.81991e-09
5.3003e-09
-1.11838e-09
-6.11881e-07
-4.29583e-07
0.000104688
0.000176484
-1.55467e-07
1.19918e-06
-1.0434e-06
-1.53401e-06
-1.72441e-06
-1.69989e-08
2.05597e-08
-2.11043e-08
5.33601e-09
1.55253e-08
-6.46957e-06
-6.85604e-06
1.33253e-05
8.79217e-06
-1.65019e-05
7.71269e-06
2.33036e-07
7.41106e-08
-3.05268e-08
2.93498e-08
1.50974e-06
-3.23623e-06
1.7288e-06
-0.000376309
0.000182617
-8.81268e-07
-2.34045e-07
1.11528e-06
1.51995e-07
-7.55425e-07
6.03153e-07
1.71914e-09
-8.44198e-10
-1.06009e-06
4.48685e-07
1.46813e-06
1.04438e-06
-2.51251e-06
2.28293e-06
-3.75129e-06
-2.00089e-06
-1.46912e-07
2.14937e-06
-4.45851e-06
2.63203e-05
1.11344e-08
-1.34016e-08
-1.57536e-06
1.02201e-06
1.01176e-05
3.15544e-05
-4.16712e-05
9.40924e-06
-2.52e-08
5.62594e-09
-8.24789e-08
-1.51711e-06
1.52785e-08
2.63429e-06
-6.73773e-06
-5.30591e-06
1.96893e-05
7.47121e-05
1.67175e-08
-1.26065e-08
-4.24258e-09
-1.33687e-08
-2.22081e-08
-1.19584e-05
5.36904e-06
6.5892e-06
2.25183e-08
1.10378e-08
3.69148e-08
-1.2972e-08
-2.39979e-08
-1.01366e-05
-1.64124e-05
2.65475e-05
3.93052e-08
1.40933e-07
9.73032e-08
8.14189e-08
-3.07607e-08
-1.9946e-09
3.27108e-08
-2.48237e-07
1.39108e-06
2.8089e-08
2.13751e-08
-4.97658e-08
-8.32114e-06
5.92132e-05
-5.08936e-05
5.67958e-07
-5.30838e-07
9.15654e-10
-1.05018e-08
9.79182e-09
5.06714e-07
-1.45683e-07
1.56014e-08
2.56395e-08
-7.95654e-07
1.16564e-06
-3.7004e-07
8.75081e-09
2.42367e-08
-3.1792e-08
3.24565e-08
2.11957e-07
2.08694e-07
-4.20702e-07
4.99204e-05
5.84819e-05
-2.09999e-07
7.78011e-07
2.41412e-06
1.49149e-05
0.000131569
2.94724e-06
-7.75494e-06
-1.40063e-08
3.61578e-08
1.10599e-06
5.64062e-08
7.3733e-09
-1.84073e-08
1.5465e-08
8.77443e-09
-2.44367e-08
-1.00209e-08
1.63626e-08
2.63565e-08
7.0195e-07
-4.06193e-07
-2.95913e-07
-1.13299e-08
4.79562e-08
-3.71239e-08
4.68619e-10
3.18202e-08
-3.36481e-08
-7.45509e-06
-1.11879e-05
-8.4455e-09
4.33007e-09
-5.31445e-07
-1.99758e-07
-1.45027e-07
-2.94862e-07
9.03211e-06
-1.95248e-05
-8.80107e-09
1.66186e-08
2.40143e-05
5.17617e-07
-1.14853e-06
-6.98965e-07
-1.15619e-07
8.14872e-07
-7.74047e-05
0.000100741
-2.33373e-05
1.75438e-08
-2.94943e-09
3.98277e-07
7.72553e-07
-2.30606e-06
1.55133e-06
-6.528e-07
-8.97692e-07
-2.43355e-08
3.31319e-08
-7.53482e-09
-1.51216e-05
1.55487e-05
1.462e-06
1.40681e-07
-1.60198e-06
1.15211e-06
-9.09964e-07
-2.41849e-07
6.09295e-07
5.42956e-07
1.75661e-08
-6.58881e-07
1.00694e-06
-8.23943e-07
1.18691e-06
-3.63125e-07
6.33537e-07
8.28423e-07
3.0425e-07
1.61789e-07
-4.66223e-07
3.03956e-08
-3.35409e-08
3.07593e-09
4.21424e-05
-5.04653e-05
-5.62318e-06
3.30034e-06
2.32638e-06
-1.21854e-06
1.75126e-08
-5.02372e-08
8.83804e-08
9.03214e-05
-1.00537e-06
1.01624e-08
-9.05297e-09
-3.29726e-08
7.98447e-09
6.96474e-08
-8.65064e-07
-3.26556e-06
1.20586e-05
1.21941e-06
2.84497e-07
-4.08558e-06
9.40895e-06
-5.32506e-06
-1.82295e-08
1.08914e-07
-9.00589e-09
9.81546e-05
-8.1361e-10
-2.59658e-09
-8.70522e-09
3.45189e-07
-1.32093e-07
3.06925e-07
4.81503e-07
-7.88531e-07
2.1696e-09
-1.56819e-08
4.35042e-08
7.86837e-09
4.75283e-09
5.16368e-09
-1.40233e-08
2.35789e-07
-6.87744e-07
4.51805e-07
-5.84802e-07
-1.70564e-08
-1.73506e-09
2.72233e-08
1.57793e-06
-1.60409e-06
1.79903e-05
8.50748e-06
-3.02534e-05
-2.49441e-05
5.51983e-05
0.000252948
-0.000651906
-2.11463e-06
-7.86459e-07
-3.07211e-08
1.83378e-08
8.93307e-07
-4.75619e-07
-4.17845e-07
-1.8887e-07
2.23178e-07
-1.35057e-07
1.45308e-07
-7.10078e-08
-4.19776e-06
-5.5747e-06
-6.09845e-10
-6.73252e-07
1.29445e-06
-6.19181e-07
2.20613e-07
-1.04462e-06
6.87676e-08
-3.33505e-07
2.64432e-07
-2.26832e-08
1.25672e-08
1.06286e-08
-2.03133e-08
1.91425e-09
-3.24641e-05
2.43556e-05
8.10904e-06
-4.66983e-08
9.89348e-08
3.68029e-06
-2.19804e-05
-1.00977e-06
8.10207e-07
0.000275721
0.000539533
-0.00016816
-0.000248487
0.000416647
-5.3322e-06
3.47298e-06
1.85982e-06
6.88447e-07
-4.51766e-07
-2.62453e-09
1.29429e-08
-6.1136e-07
-0.000294137
-8.21718e-05
-1.55441e-06
2.34613e-06
1.07884e-07
4.45501e-07
-5.53406e-07
4.8421e-06
2.05872e-05
-2.54289e-05
1.09741e-08
-3.48785e-07
1.72394e-07
1.75042e-07
4.64341e-08
2.71759e-07
-3.18061e-07
2.19529e-07
-6.8534e-07
4.659e-07
-1.39758e-07
2.60669e-07
-4.4924e-08
2.08566e-08
-2.02653e-08
-6.64904e-10
2.82604e-07
-9.81301e-07
-7.04565e-07
2.52932e-07
3.03396e-07
-5.56344e-07
3.52496e-05
-3.97084e-05
3.72727e-07
-1.12811e-06
1.6776e-08
-1.70896e-08
4.18078e-10
-6.02181e-09
3.08301e-09
-5.17815e-10
4.05999e-08
-2.73469e-08
4.39616e-08
0.00022598
2.47531e-05
-1.54723e-06
-1.69181e-06
1.49239e-06
-2.37217e-06
8.7894e-07
2.11751e-06
-7.57049e-06
5.45323e-06
0.000110846
-0.000241858
-5.86631e-06
-1.54762e-06
-3.06708e-07
2.80329e-07
2.6244e-08
-1.9248e-06
4.87256e-06
2.79921e-05
-2.31503e-05
-7.98691e-07
-2.03972e-06
-0.000189505
0.000199824
-1.03193e-05
5.24786e-08
-8.11003e-08
2.88965e-08
-5.70622e-06
2.41156e-06
3.29423e-06
-6.93949e-08
1.78193e-06
-2.30542e-07
-1.13943e-07
-2.32241e-09
4.28161e-08
-8.97053e-08
-3.06138e-09
2.1959e-09
8.28994e-10
1.31012e-06
-8.173e-07
-2.134e-06
3.99681e-07
-5.44925e-07
-7.56513e-06
3.4788e-06
8.65028e-06
-3.87749e-06
-4.77194e-06
5.1749e-06
-4.9198e-07
-4.68435e-06
-6.83367e-09
3.68279e-08
1.03026e-07
-1.71688e-07
6.78063e-08
-4.93105e-07
-4.44795e-07
5.0878e-09
1.15736e-08
-3.62882e-08
-2.40083e-08
6.01445e-08
2.03999e-06
3.30679e-06
-1.48128e-06
2.97149e-06
3.51023e-08
3.80337e-08
-7.32049e-08
3.53914e-08
5.46661e-09
-1.18779e-06
4.25703e-07
3.65584e-05
-1.74097e-06
7.32859e-07
1.01649e-06
-6.55745e-07
1.43312e-06
-1.32803e-06
-0.000316677
0.000238773
7.79038e-05
8.81936e-09
7.34446e-09
-1.64114e-08
7.06858e-08
-8.1765e-08
1.10922e-08
-6.32698e-08
-5.40779e-09
-5.18382e-06
7.30052e-06
4.22187e-08
-7.58064e-09
-3.45528e-08
-1.10138e-06
-3.7131e-08
1.13822e-06
-1.63738e-06
1.66501e-06
-0.000311915
0.000287696
1.20859e-08
1.73921e-08
-2.96592e-08
1.53359e-07
-5.40987e-07
1.73488e-05
2.63299e-05
-5.17824e-06
-5.28136e-07
8.59818e-07
8.23648e-07
-1.68327e-06
2.07936e-08
-5.49467e-08
3.39385e-08
-2.42139e-05
2.46992e-05
-1.76635e-05
-7.03563e-06
1.80858e-05
7.06072e-06
-1.05783e-06
-6.832e-08
1.12657e-06
-1.19846e-08
-1.27838e-08
3.55372e-05
0.000162934
-0.000198472
-1.42313e-06
-3.64885e-07
1.7878e-06
1.81388e-08
2.19886e-08
-4.03508e-08
-2.88495e-06
7.14733e-06
-0.000177072
0.000258851
-8.17785e-05
-2.8617e-08
5.64985e-08
-2.82449e-08
-8.40299e-06
4.51656e-06
-6.75037e-06
4.21974e-08
-2.42448e-08
-1.79741e-08
-0.000185712
-0.000130965
2.53725e-06
-1.76529e-06
5.5364e-06
-1.03452e-06
-4.4991e-06
1.77319e-08
2.16886e-08
-3.93333e-08
-4.56351e-06
4.9123e-06