/*--------------------------------*- C++ -*----------------------------------*\
| =========                 |                                                 |
| \\      /  F ield         | OpenFOAM: The Open Source CFD Toolbox           |
|  \\    /   O peration     | Version:  v2012                                 |
|   \\  /    A nd           | Website:  www.openfoam.com                      |
|    \\/     M anipulation  |                                                 |
\*---------------------------------------------------------------------------*/
FoamFile
{
    version     2.0;
    format      ascii;
    class       volVectorField;
    location    "300";
    object      ddtCorrDdt0(U);
}
// * * * * * * * * * * * * * * * * * * * * * * * * * * * * * * * * * * * * * //

dimensions      [0 1 -2 0 0 0 0];


internalField   nonuniform List<vector> 
14804
(
(2.00978e-07 -1.41063e-07 7.59835e-24)
(-2.29251e-08 -1.51392e-09 5.60887e-24)
(-3.172e-06 -1.01697e-05 3.26491e-25)
(-2.73653e-08 -2.77374e-08 -2.16185e-23)
(-1.61065e-07 1.73296e-07 -1.7595e-23)
(-3.40441e-07 1.04974e-06 0)
(-1.42533e-07 -1.36759e-06 0)
(3.83866e-07 2.74355e-07 0)
(4.58056e-06 -9.28968e-06 9.8116e-24)
(6.78598e-07 -4.76379e-07 7.09446e-25)
(-3.81495e-05 -0.000117837 1.52728e-24)
(-6.05356e-05 -4.54393e-05 -3.37397e-23)
(-3.62378e-05 -0.00033837 -1.13041e-24)
(0.000598376 0.000394871 4.76946e-24)
(-3.85851e-06 -7.82067e-06 2.58017e-23)
(6.10355e-08 4.1005e-08 9.06333e-25)
(8.41614e-06 -3.60986e-08 7.26535e-26)
(0.000551381 0.000320797 -2.18235e-23)
(1.76265e-08 7.8616e-09 0)
(1.93726e-07 -1.30553e-07 -2.63289e-25)
(-6.13569e-08 -6.94867e-08 -1.43192e-23)
(-1.59228e-07 1.68208e-07 5.85804e-23)
(3.86975e-05 -2.97603e-05 8.48235e-23)
(1.88773e-07 -1.08742e-09 -8.75901e-23)
(-0.000216565 -0.000636819 4.52684e-24)
(-2.01975e-06 -1.43503e-06 1.19334e-23)
(-4.74907e-07 -9.31296e-07 0)
(-8.1251e-08 3.52281e-08 -1.0356e-22)
(-3.49853e-06 -7.79104e-06 -2.52241e-23)
(-1.23494e-05 -2.2113e-05 0)
(-0.000204716 0.000349668 -1.56398e-24)
(8.51723e-06 1.43473e-07 -2.07582e-24)
(-1.49065e-07 1.22848e-07 -5.32796e-23)
(4.26969e-07 4.12573e-07 0)
(5.83826e-06 -9.50003e-07 -4.90479e-24)
(-3.65618e-08 -4.29765e-08 0)
(-6.25261e-08 4.523e-09 3.68636e-23)
(1.81689e-07 4.47844e-08 8.57398e-23)
(2.3146e-05 7.5473e-06 8.98966e-24)
(2.26273e-07 -7.99161e-08 6.63207e-24)
(1.13173e-06 -4.94674e-06 0)
(-1.89407e-06 4.84363e-06 2.72494e-23)
(7.68061e-06 2.40522e-05 0)
(-1.15613e-07 8.07815e-09 0)
(0.000598989 0.00051131 0)
(0.000223614 0.000131134 0)
(2.91839e-06 -1.22884e-05 0)
(-3.04688e-08 -3.01907e-08 1.10266e-23)
(-1.04478e-05 1.45943e-05 9.71223e-24)
(-4.41647e-08 -8.85463e-08 9.98876e-24)
(-9.6466e-08 6.91573e-09 3.68388e-24)
(-4.13821e-08 -5.09678e-09 2.16004e-23)
(5.03777e-07 5.26173e-07 -1.31896e-23)
(3.44703e-05 -4.28454e-05 0)
(-1.47953e-07 1.23479e-07 1.18879e-22)
(-8.42729e-08 3.06406e-08 9.2624e-23)
(-2.51369e-06 -1.00846e-06 0)
(8.71655e-06 -2.10482e-07 -3.09899e-24)
(-8.08267e-05 -0.00113787 -7.482e-23)
(-5.09545e-05 -0.00037607 6.24304e-25)
(8.87449e-06 7.29707e-08 0)
(5.7467e-06 -1.42821e-06 1.05019e-23)
(2.24059e-07 -1.10843e-07 -1.0582e-23)
(-2.08142e-08 -4.34018e-09 -4.85836e-24)
(-1.41171e-07 1.17326e-07 4.7781e-23)
(-5.79758e-05 -3.68367e-05 3.93132e-23)
(-0.000459319 -0.000958422 -2.47925e-23)
(-1.1455e-05 9.14826e-06 -2.45282e-23)
(6.31932e-07 -6.2789e-07 -4.18043e-25)
(4.70023e-07 4.67057e-07 -4.58e-23)
(-2.54788e-07 -3.3279e-07 -4.23836e-23)
(-9.25137e-06 6.39252e-06 -2.15645e-23)
(-1.07452e-07 1.87954e-07 -2.68206e-23)
(1.83792e-06 5.08662e-07 -1.03262e-23)
(-6.5593e-07 -1.02169e-05 -7.0431e-24)
(-1.01214e-07 7.04544e-09 5.96309e-23)
(-2.90396e-08 5.23591e-08 0)
(-3.49953e-06 1.00452e-05 2.68432e-24)
(2.83712e-07 -2.1083e-08 0)
(-5.76771e-05 9.31118e-05 -6.23577e-23)
(-6.09002e-05 7.47503e-05 0)
(2.84417e-05 -9.3447e-05 -5.05573e-25)
(6.4323e-07 -8.70543e-07 2.06742e-23)
(-1.50465e-05 -6.12383e-06 0)
(-2.9807e-08 9.37005e-10 0)
(-2.71715e-08 1.16079e-07 1.77623e-23)
(-3.5281e-09 2.77241e-10 0)
(-6.49935e-08 1.32529e-08 0)
(-2.15056e-07 4.0014e-07 -2.89533e-23)
(-1.68626e-07 3.63985e-07 -2.85448e-23)
(5.60732e-05 0.000118805 2.80975e-24)
(-6.62931e-08 1.02556e-08 0)
(2.15412e-07 -7.93552e-08 -2.14749e-24)
(-5.26843e-08 4.88866e-08 5.08682e-23)
(7.80043e-07 -1.07619e-06 -1.20347e-24)
(-1.27804e-05 -2.6196e-05 -4.55698e-23)
(-2.29579e-08 -2.61897e-09 3.79228e-24)
(0.000630397 0.000366336 -6.11556e-24)
(9.30153e-07 -4.92056e-08 4.866e-23)
(4.65331e-05 -7.57213e-05 0)
(0.000234051 9.32041e-05 0)
(3.2155e-05 7.74941e-07 -8.19855e-25)
(4.84983e-06 -7.7315e-06 1.25421e-23)
(-1.25183e-07 1.48423e-07 -6.24509e-23)
(2.86646e-06 -5.13321e-06 -2.8598e-25)
(-0.000116678 -0.000683524 3.65987e-24)
(-7.21734e-07 -9.21004e-07 4.93404e-23)
(-2.58257e-08 5.66856e-10 -1.16355e-24)
(8.75602e-07 -2.20789e-07 -9.28866e-23)
(-2.39786e-06 1.14288e-05 6.69627e-24)
(-2.19113e-08 1.13332e-09 0)
(-5.59331e-07 -1.10814e-06 -9.28224e-23)
(3.22671e-05 -0.000190733 1.58568e-23)
(1.04674e-06 5.11206e-08 2.2643e-23)
(-7.4538e-07 -4.02142e-07 -2.60913e-23)
(-7.91e-06 -1.00081e-05 -4.10585e-23)
(1.19099e-05 -5.72211e-06 1.41208e-23)
(1.03615e-05 2.59264e-05 0)
(1.06911e-07 1.85591e-08 -5.88942e-23)
(-1.6341e-07 -2.43848e-07 1.10345e-23)
(-1.16506e-06 -1.08508e-05 0)
(3.13713e-06 -4.69383e-06 0)
(-5.03532e-08 5.14311e-08 -2.77026e-23)
(6.81914e-07 -1.04243e-06 -7.35188e-24)
(8.53692e-08 8.10978e-09 1.04394e-22)
(1.20674e-06 -9.50565e-09 -2.62883e-23)
(-1.50875e-09 1.06181e-09 -5.5473e-24)
(-2.36706e-09 -8.8391e-09 0)
(3.08518e-07 2.78248e-07 0)
(-1.37457e-05 -2.1644e-05 -1.16376e-23)
(-1.39151e-08 1.66169e-09 -1.97473e-23)
(-1.16928e-05 -2.7176e-05 4.52702e-25)
(3.96142e-06 -6.19382e-06 9.61774e-24)
(-0.000470181 -0.000162263 3.21284e-23)
(2.34602e-07 7.38132e-07 1.8493e-23)
(-3.87046e-06 0.000142953 1.73211e-26)
(-7.41791e-05 -4.57557e-05 4.25894e-23)
(-5.92441e-05 -2.14387e-05 0)
(-2.39058e-06 -1.07562e-05 0)
(0.000259161 0.00112988 -8.42856e-23)
(-5.9547e-08 2.8614e-09 0)
(4.00603e-06 -2.08686e-06 0)
(-4.80325e-05 -2.15168e-05 0)
(-1.22649e-07 3.87913e-08 0)
(-0.000117951 3.68746e-05 -1.94306e-22)
(-2.09649e-06 -1.57172e-06 -3.19904e-23)
(1.08047e-05 -5.26837e-06 -1.17934e-23)
(5.86705e-06 -1.45107e-05 -5.28695e-24)
(-9.26965e-06 -4.01901e-06 0)
(1.97246e-07 -1.20813e-06 7.78603e-23)
(-0.000435804 -0.00057899 2.09213e-23)
(-1.54969e-08 4.05519e-09 1.77482e-23)
(5.08984e-06 -8.12792e-06 0)
(-3.04334e-05 -3.23352e-05 -1.93349e-22)
(1.91449e-07 -1.51109e-07 -1.11945e-23)
(-1.311e-08 1.08133e-08 8.8574e-24)
(-0.000331338 -0.000788331 -2.27764e-24)
(-1.8056e-07 1.8741e-08 5.70068e-23)
(-5.03073e-08 6.93876e-08 0)
(-9.36415e-06 -4.55253e-06 0)
(-8.55952e-08 1.79017e-09 6.68321e-23)
(3.49506e-07 -1.12361e-06 1.67107e-23)
(-3.13562e-09 -7.78098e-09 -1.54114e-23)
(5.24184e-06 -3.84806e-06 -1.5855e-23)
(-5.14665e-07 6.61739e-08 -9.45558e-23)
(8.72922e-05 -0.000178144 4.25403e-24)
(-1.00175e-08 1.25098e-09 -7.19788e-24)
(5.05903e-07 -1.17486e-06 -1.16137e-24)
(-0.000388665 -0.000130883 2.55994e-24)
(-1.82966e-07 1.06696e-08 -9.5063e-23)
(-8.24044e-08 3.1947e-09 -7.82199e-24)
(-9.91874e-08 1.90828e-07 1.72417e-23)
(6.51833e-06 -1.35911e-05 -3.46499e-23)
(-2.29745e-06 -2.23129e-06 6.90324e-23)
(-0.000136681 -7.55293e-05 0)
(-1.56843e-06 -4.07831e-06 2.28475e-23)
(1.93329e-05 1.17884e-05 1.80851e-23)
(-5.36467e-05 -3.56404e-05 5.56972e-23)
(9.77378e-06 -1.18676e-05 -2.76001e-23)
(-0.000436826 -0.000239449 6.50123e-26)
(3.34339e-07 -6.00658e-08 -1.5052e-23)
(-1.22772e-05 1.29136e-05 -1.01194e-23)
(-4.46744e-08 8.80843e-08 -1.43029e-25)
(1.03492e-05 -0.00105072 -5.389e-24)
(-3.17256e-07 1.84541e-07 1.9876e-23)
(-6.16434e-06 -1.00383e-05 3.03883e-23)
(1.69336e-05 0.000126222 -3.546e-24)
(3.99842e-06 -3.40955e-06 7.22206e-25)
(-0.000456082 -0.000277231 -1.57134e-23)
(-1.58165e-08 1.34902e-09 -7.39319e-24)
(-4.01483e-07 2.01943e-07 7.79553e-23)
(5.61775e-07 -8.47971e-06 -4.85509e-24)
(-1.44922e-05 -0.000118983 -4.27764e-23)
(-0.000240782 -0.000277693 -1.20269e-23)
(0.000148679 6.18265e-05 -1.27509e-25)
(0.000338285 -0.000472962 7.14886e-24)
(9.96814e-05 3.25682e-05 2.9245e-24)
(3.51676e-06 -3.20142e-06 -9.14192e-25)
(-4.28954e-08 8.97186e-08 0)
(2.58387e-06 -2.32964e-05 5.30483e-23)
(-6.79717e-08 2.60567e-08 0)
(-2.72939e-07 -7.86122e-08 0)
(1.6575e-07 -1.2349e-06 4.48312e-24)
(-6.92352e-07 -1.01468e-05 0)
(-2.38397e-07 1.2475e-06 0)
(7.37013e-06 -1.05833e-06 2.99449e-24)
(-0.000250715 0.000372204 2.416e-24)
(-0.000490014 -0.000555378 2.41759e-23)
(1.94875e-06 2.69541e-07 0)
(-5.52497e-08 3.2411e-08 0)
(-1.05274e-08 1.15013e-09 0)
(-5.54268e-06 -1.04898e-05 -1.53186e-23)
(2.11571e-06 -2.66491e-06 0)
(-2.96497e-08 -3.19426e-08 1.02513e-23)
(-3.93476e-07 -2.1609e-05 -2.14505e-23)
(-1.9263e-08 -2.44305e-09 0)
(-1.58669e-05 -0.000417856 -1.56813e-25)
(-2.10515e-08 3.59562e-08 6.52772e-23)
(-1.16295e-05 -4.03568e-05 -7.33054e-24)
(-0.000462271 -0.000646516 6.00983e-25)
(5.83881e-06 -1.80268e-05 6.23053e-23)
(0.000375268 -0.000647666 -3.01797e-23)
(-7.08903e-08 3.17708e-09 6.34848e-23)
(-0.000329036 -0.000349843 -6.29062e-25)
(8.28861e-06 -8.67316e-07 1.32661e-23)
(6.80795e-06 -1.37244e-06 3.00463e-24)
(-2.26815e-06 -3.85196e-06 -2.20977e-23)
(-1.7481e-08 1.07657e-09 -1.41553e-26)
(-0.000406941 0.000229407 -3.6666e-23)
(2.35504e-05 4.00373e-05 0)
(-2.20252e-06 1.0496e-05 0)
(0.000149197 3.49958e-05 4.55806e-24)
(-6.0637e-08 4.84222e-08 1.08952e-22)
(-5.68364e-08 4.46812e-08 1.28338e-23)
(0.000509723 0.000724864 -4.43072e-23)
(-3.04207e-08 1.16457e-07 -5.87943e-24)
(-4.32961e-06 -1.15072e-05 0)
(9.94536e-05 4.46443e-05 5.32024e-24)
(-5.46238e-08 -4.45301e-08 0)
(0.000528447 0.000560559 -9.85829e-24)
(-5.02341e-05 -4.2205e-05 -4.25275e-23)
(-1.28698e-05 8.65474e-06 -3.40549e-24)
(-1.38889e-05 -0.00043693 0)
(9.93198e-06 1.23756e-08 -2.6125e-24)
(-7.50001e-08 -2.47895e-10 1.18405e-22)
(-2.14303e-08 2.65761e-09 7.18507e-24)
(-1.26891e-05 -8.03065e-07 1.67136e-23)
(9.14054e-06 9.1797e-08 2.85432e-23)
(1.36248e-07 2.28737e-07 -3.22171e-23)
(-7.72578e-08 2.96423e-07 3.05395e-23)
(-5.64497e-06 -1.09941e-05 3.52762e-27)
(3.53596e-05 5.37318e-06 2.85543e-23)
(2.7307e-07 1.53819e-07 0)
(-1.85338e-06 -1.4512e-06 2.07071e-23)
(-5.16347e-08 -1.20521e-09 -3.36495e-23)
(0.000370382 0.000681673 1.05806e-23)
(-1.59815e-05 -5.92747e-06 0)
(-2.00808e-06 -9.60858e-06 1.23832e-24)
(4.83774e-06 -2.29269e-05 -2.09104e-23)
(9.924e-06 -8.04772e-08 0)
(-1.98642e-06 -2.2544e-06 0)
(-0.000322486 -0.000716981 6.05859e-24)
(-5.35333e-08 -2.87327e-09 1.73515e-23)
(0.000171859 -0.000136028 1.19978e-24)
(-4.40376e-07 1.27349e-07 -1.07067e-22)
(-7.30517e-06 -1.66449e-06 -1.41016e-23)
(-5.22852e-08 1.53855e-08 2.13416e-26)
(0.000407548 0.00082122 -8.88037e-24)
(-2.45904e-05 -1.84184e-05 0)
(2.20663e-07 -1.00581e-07 3.00537e-25)
(-4.40958e-08 6.1072e-08 1.71527e-22)
(1.82675e-05 2.58735e-05 -4.0352e-24)
(4.20476e-06 -1.06806e-05 0)
(-5.17504e-05 -4.06675e-05 5.16646e-23)
(-8.30901e-07 -2.11766e-06 0)
(0.000593173 0.000527715 9.11564e-23)
(-4.20835e-09 1.46948e-09 6.02753e-24)
(5.10736e-06 2.01098e-06 0)
(2.28608e-07 -8.93922e-08 4.63671e-24)
(0.000455932 -0.00059955 2.72271e-23)
(-5.15342e-08 2.0588e-08 -2.64229e-23)
(-2.37322e-06 -9.51219e-06 0)
(-6.36268e-08 3.95247e-08 -1.02482e-22)
(-8.16879e-06 -7.40534e-07 0)
(-5.2594e-08 -4.01002e-08 -7.71575e-23)
(8.38464e-06 -1.95095e-06 -9.49213e-24)
(1.44736e-07 -1.73169e-08 9.30609e-23)
(4.36451e-06 -1.02296e-06 -7.43181e-25)
(-9.56245e-08 -1.65774e-09 -7.62982e-23)
(7.84263e-06 -2.13624e-06 -6.02202e-24)
(-7.63595e-06 -1.2217e-06 3.44861e-23)
(5.30252e-06 2.55542e-06 -7.80537e-25)
(-0.000346239 -0.000502826 6.09709e-24)
(5.71987e-06 -1.4477e-06 -2.30634e-23)
(2.17064e-07 6.97445e-08 1.30776e-22)
(-8.2807e-07 -4.82057e-07 2.35434e-23)
(-1.36874e-06 -9.03006e-06 7.33181e-24)
(-1.77089e-08 9.47609e-08 1.7423e-23)
(-1.06608e-07 1.88538e-07 1.73904e-23)
(-4.38999e-09 3.66968e-09 -8.71373e-24)
(-1.77385e-06 6.41241e-06 0)
(-9.40777e-06 -1.84947e-05 -5.2585e-24)
(-8.5187e-08 -1.75913e-09 -1.23266e-22)
(-4.81921e-06 1.12861e-05 8.92751e-24)
(-7.00257e-08 4.96971e-09 -3.73486e-23)
(-0.000286211 0.000500978 7.50653e-24)
(-8.27589e-05 -0.00158957 -1.20271e-23)
(-6.08336e-08 2.02329e-08 1.02764e-22)
(1.21255e-05 -5.92216e-05 0)
(-3.68798e-05 5.13949e-05 1.3735e-25)
(-2.38432e-08 9.30158e-11 -1.4472e-23)
(-2.23442e-08 3.26786e-08 -1.01414e-22)
(-6.24985e-06 -1.02206e-05 -6.82372e-24)
(-3.47783e-08 -3.86637e-08 1.17278e-23)
(3.20232e-05 3.70997e-05 -2.41504e-24)
(1.22691e-07 -9.32847e-09 5.96291e-24)
(-3.58556e-05 6.46078e-05 -6.54661e-23)
(-5.86634e-09 1.22921e-09 -6.2805e-24)
(1.74427e-05 -1.68776e-05 8.17903e-25)
(-1.16409e-08 4.35131e-10 1.05368e-23)
(-3.376e-06 5.79836e-06 0)
(-3.29523e-08 -1.8407e-08 -5.1959e-23)
(-4.11044e-06 -1.20912e-05 0)
(-0.000407453 0.000291086 0)
(-4.60306e-08 6.04924e-08 -8.77807e-23)
(1.12713e-08 -9.20724e-08 -1.44784e-24)
(3.10435e-06 -1.88297e-05 -8.72429e-23)
(-7.8996e-06 -1.0135e-05 2.35613e-23)
(-1.15911e-07 -7.99492e-06 0)
(-9.58975e-07 -2.73179e-07 -1.98143e-23)
(0.000101451 -2.26805e-05 -2.60998e-23)
(-2.90392e-07 -1.01312e-07 0)
(-1.36467e-08 9.75606e-08 0)
(3.9147e-06 -6.93821e-07 0)
(2.3901e-06 -2.04161e-06 0)
(8.14322e-06 -1.73711e-06 9.84388e-24)
(-8.23651e-07 -2.27372e-06 -1.62317e-24)
(5.55588e-06 -3.56608e-07 0)
(-5.86457e-06 -9.7923e-06 -6.48315e-23)
(7.95858e-06 -1.84342e-06 5.41654e-24)
(2.90226e-06 -3.50817e-06 2.2465e-24)
(1.31219e-05 -1.64258e-06 -7.37395e-24)
(-5.53482e-05 -4.86221e-05 -9.80945e-23)
(-7.90266e-06 -9.98003e-06 3.79245e-23)
(1.71139e-06 -1.61233e-06 2.21736e-23)
(-2.64444e-08 4.60543e-08 0)
(-5.40382e-07 -3.62847e-05 1.42943e-23)
(-2.36658e-05 -0.000111267 0)
(-3.00112e-07 -1.52168e-07 1.62981e-23)
(3.22351e-07 8.95804e-08 -9.54877e-23)
(1.54124e-06 5.25309e-07 2.11995e-23)
(6.61804e-08 -2.94824e-07 0)
(-2.97628e-08 1.11707e-10 0)
(-0.000433283 -0.000137264 2.10079e-24)
(-9.49039e-08 -5.71553e-08 6.55555e-23)
(-3.21038e-06 3.64127e-06 -1.58798e-23)
(-7.36409e-05 4.76813e-05 -2.82541e-26)
(-7.18193e-08 -3.76605e-09 -8.09388e-23)
(-0.000356483 0.000349862 0)
(-3.57758e-08 3.1719e-08 0)
(5.12987e-05 5.26889e-05 1.23637e-22)
(-6.53317e-09 2.44574e-09 -8.53418e-24)
(3.67145e-05 1.45224e-05 0)
(-4.80688e-06 -1.38357e-05 0)
(6.05385e-06 -4.81003e-07 -3.22674e-26)
(-8.78576e-06 -2.2176e-05 -1.19178e-23)
(-3.55853e-08 2.02804e-08 3.34783e-23)
(-8.76879e-05 0.000340886 -7.40514e-23)
(-5.33271e-06 -1.42145e-05 0)
(5.0275e-05 3.77835e-05 -1.60139e-22)
(-3.99781e-06 2.76915e-06 -4.75611e-24)
(-1.05251e-05 -4.75051e-06 -2.60693e-23)
(-2.7821e-06 -6.24157e-08 0)
(-6.53198e-05 -0.00126001 -7.48022e-23)
(-2.34151e-05 -8.89759e-05 -5.97914e-25)
(-5.4396e-06 -1.05863e-05 5.33793e-23)
(-5.92487e-06 2.13545e-05 -2.08821e-24)
(-8.85292e-06 -0.000151391 -2.50175e-24)
(-5.44687e-08 4.20828e-09 1.28451e-26)
(7.56683e-06 7.58705e-06 -7.15386e-24)
(-1.94937e-08 2.56665e-10 0)
(3.17604e-05 -0.000128261 3.70019e-25)
(-1.27429e-05 -2.97436e-05 8.59052e-23)
(-1.21664e-07 2.80236e-07 -9.40381e-23)
(-2.69832e-06 -6.9715e-07 9.35468e-24)
(-6.13264e-09 -7.89583e-09 1.8991e-24)
(-2.88653e-08 -5.49395e-09 0)
(-8.80458e-08 -6.56477e-08 -3.25361e-23)
(8.68531e-06 -8.29955e-07 0)
(-2.51971e-08 -2.93468e-09 8.69771e-24)
(-2.40407e-06 -9.55431e-06 3.53641e-24)
(2.84036e-05 2.08116e-05 0)
(-9.82422e-08 1.12622e-07 0)
(-9.80319e-09 -5.95832e-11 1.18726e-23)
(-5.9849e-08 2.67523e-08 0)
(9.92162e-06 -2.80711e-07 0)
(1.17684e-06 -1.42218e-05 -5.2245e-25)
(-9.55883e-08 -2.35042e-07 -1.89728e-23)
(-0.000110241 -9.35242e-05 4.63383e-25)
(-3.22589e-06 -3.11319e-06 -8.91095e-25)
(-1.79146e-07 2.05191e-07 0)
(7.46183e-05 -8.60888e-05 0)
(4.71713e-06 -3.23004e-06 -8.47184e-25)
(-5.2457e-07 -8.77387e-06 -3.10506e-25)
(9.76502e-06 -6.86794e-06 0)
(1.13639e-07 1.93757e-07 3.07108e-23)
(-2.03246e-05 3.03809e-05 0)
(-6.86656e-09 -1.96676e-09 1.35794e-23)
(3.91032e-05 -5.83245e-05 0)
(1.55678e-08 -1.09485e-07 -3.35699e-24)
(-5.78242e-08 -8.50929e-09 0)
(-1.16757e-06 -1.84836e-06 3.09777e-23)
(8.9428e-06 1.22163e-07 -3.30831e-23)
(-1.03798e-05 -4.30362e-06 2.99655e-24)
(-0.000165631 -0.00145337 6.40975e-24)
(-2.61028e-07 -3.13408e-08 -2.96434e-24)
(0.00012103 -0.000185686 0)
(-6.87559e-08 1.29569e-08 1.50391e-22)
(-3.22206e-07 -3.16617e-07 -4.63018e-23)
(-1.95853e-07 2.11441e-07 9.25421e-25)
(-0.000281956 0.000391228 -4.62566e-23)
(2.83611e-07 4.73199e-08 -9.50254e-23)
(1.13016e-05 1.74829e-05 0)
(5.08871e-05 -4.65134e-05 -1.42424e-23)
(-1.51246e-06 -4.51157e-06 0)
(-2.17695e-08 1.93757e-08 5.17698e-23)
(1.21845e-05 -1.32761e-06 6.11818e-24)
(-1.8702e-05 -5.79668e-06 9.39416e-23)
(-1.51549e-07 -2.23981e-06 0)
(-6.16999e-08 -6.82225e-08 -2.48854e-25)
(-2.40249e-07 -1.99044e-07 -7.92425e-23)
(-1.45561e-07 -3.09968e-07 0)
(0.000325265 -0.00148301 0)
(-1.37419e-05 -1.77252e-05 -3.95823e-23)
(-3.44889e-07 -4.94683e-08 -6.59823e-23)
(4.44226e-05 -4.37736e-05 5.74029e-23)
(6.27203e-06 3.0515e-06 -3.03008e-24)
(-1.52441e-05 -3.02372e-06 -7.39977e-23)
(-2.11214e-08 1.19042e-08 -1.40752e-22)
(4.50846e-06 -4.13731e-06 1.95598e-23)
(3.02858e-06 -3.17569e-06 0)
(-3.00794e-08 9.34916e-08 0)
(-2.47983e-05 3.23399e-05 0)
(-4.19365e-08 -5.20326e-09 -6.09172e-24)
(-2.1881e-06 2.65473e-06 2.06291e-23)
(-1.15856e-05 1.0536e-05 0)
(-0.000424522 -0.000449328 -8.62702e-25)
(-1.15771e-06 -5.93497e-06 0)
(-6.88405e-08 2.91684e-08 0)
(-0.000360505 0.000283794 -8.70979e-24)
(1.03656e-05 -6.16264e-06 1.77742e-23)
(-0.000392108 7.43517e-05 -5.84095e-25)
(7.38154e-07 -8.21568e-06 -4.30026e-24)
(2.19941e-06 -1.33111e-05 1.3622e-25)
(-3.77571e-06 -4.18343e-06 0)
(-5.53575e-08 4.30528e-09 2.5704e-23)
(-0.000400054 0.000348861 -1.68941e-23)
(-2.28508e-08 -2.99196e-09 -7.73783e-24)
(1.34355e-05 2.43629e-05 3.42815e-24)
(8.36486e-06 -1.24696e-05 -9.24325e-23)
(-7.33615e-07 -6.0946e-07 -4.61811e-23)
(-1.07424e-06 -2.16131e-07 0)
(-7.15969e-06 2.30866e-06 -5.29751e-25)
(4.69687e-05 -0.000272321 0)
(-3.70661e-08 6.27195e-08 -9.96597e-23)
(-0.00010664 -2.71492e-05 1.61812e-23)
(-2.02728e-06 3.04455e-06 0)
(2.23565e-05 2.0392e-05 0)
(-1.80991e-05 -8.06698e-06 7.06216e-24)
(-2.27471e-08 7.93369e-08 2.71178e-23)
(-3.92282e-08 6.5466e-08 9.97546e-23)
(-2.90751e-08 -2.55049e-08 1.11345e-23)
(7.25718e-06 -2.41885e-06 0)
(3.24102e-05 -0.000209846 0)
(-5.49141e-05 -5.4099e-05 6.04922e-23)
(-1.14641e-06 -2.14001e-06 -3.65053e-23)
(-1.86188e-07 -2.85001e-07 -1.75295e-23)
(6.40079e-06 -8.45246e-06 0)
(-3.3264e-06 1.43128e-06 -1.05965e-23)
(4.03493e-06 -4.24423e-06 0)
(7.23151e-08 4.92726e-07 -4.75463e-23)
(-1.2603e-05 -2.87235e-05 -4.94094e-23)
(-2.2787e-06 -2.31172e-05 5.02525e-23)
(7.16696e-06 -8.48484e-06 8.22235e-24)
(-4.75631e-06 -9.88978e-06 4.08141e-24)
(6.5593e-05 -0.000145101 3.38909e-25)
(5.29903e-06 0.000163195 0)
(-6.14093e-08 2.15897e-07 -5.14953e-23)
(-5.0841e-06 -1.31259e-05 2.71396e-23)
(4.24192e-06 -3.0857e-06 -1.68143e-25)
(4.32736e-06 -3.99476e-06 -2.13054e-23)
(8.79511e-06 -1.6557e-06 -5.06906e-24)
(1.5445e-05 5.92394e-06 1.30512e-23)
(-0.000269366 -0.0010689 -1.65518e-23)
(5.86497e-06 -5.04465e-06 0)
(2.23794e-07 -9.302e-09 -2.07098e-24)
(-5.35858e-07 2.21693e-07 -7.04837e-24)
(-0.000414318 0.00013202 6.53039e-24)
(-6.23454e-07 1.13345e-07 -1.35477e-23)
(-8.21078e-08 1.76004e-07 -6.85252e-23)
(-9.4376e-08 -1.77746e-07 -3.82502e-23)
(2.97738e-07 1.83199e-07 0)
(-3.58233e-06 5.91122e-07 0)
(9.90464e-06 -1.81284e-07 0)
(-5.3924e-07 9.26954e-07 0)
(7.03594e-05 -2.12942e-05 1.01579e-22)
(1.62158e-05 4.40966e-06 -1.54111e-23)
(-7.00476e-06 4.75802e-07 0)
(-1.52664e-07 -3.61117e-07 5.18846e-24)
(4.73736e-07 -1.04731e-05 -1.18936e-23)
(5.97314e-06 2.47289e-06 1.64814e-24)
(3.52271e-06 -4.91347e-06 -1.58849e-23)
(4.69372e-05 -0.00134444 1.76762e-23)
(2.84432e-07 1.3195e-07 9.10004e-23)
(-4.84644e-07 -2.34607e-06 4.43364e-24)
(-0.00049323 7.27688e-05 0)
(-7.90526e-06 -4.48837e-06 0)
(4.70504e-06 -3.10615e-06 6.92658e-24)
(-4.4441e-08 3.45937e-08 -1.42369e-22)
(-2.31017e-05 3.57938e-05 -1.00565e-22)
(-3.69156e-07 6.3346e-08 3.48802e-23)
(-3.36173e-06 -3.06796e-06 2.62128e-24)
(-1.24592e-05 -1.79616e-05 0)
(4.15828e-05 1.4954e-05 0)
(2.09308e-06 -3.71731e-06 -1.08127e-23)
(-6.83177e-06 -4.38077e-06 -1.8003e-23)
(1.04281e-05 -4.96295e-06 -1.59145e-23)
(-3.19639e-05 -2.58503e-05 0)
(3.56638e-06 -6.40811e-06 5.56606e-24)
(-1.51214e-05 -3.27111e-06 0)
(0.000289821 -0.000137111 0)
(-1.86716e-08 9.15084e-09 -8.84076e-24)
(-8.64792e-06 -4.15164e-06 0)
(0.000204083 -0.000429312 0)
(-0.000318207 -0.00102579 -1.94535e-23)
(-5.38648e-08 -6.46474e-10 -4.30138e-23)
(0.00033353 5.55451e-05 -6.69394e-25)
(3.89254e-07 2.78759e-07 0)
(1.28155e-05 3.77002e-05 -5.49421e-24)
(-2.78094e-05 -1.83995e-05 0)
(-3.75721e-07 -1.11713e-07 0)
(0.000127982 0.000578644 -4.91149e-25)
(-2.14129e-08 1.61085e-09 2.47338e-24)
(3.63552e-05 3.45824e-05 7.63538e-23)
(-5.84979e-07 -2.11507e-06 0)
(-9.20298e-07 7.70651e-07 -1.02789e-22)
(-1.60325e-05 -4.79002e-06 5.97735e-25)
(-7.19306e-08 2.06576e-08 4.89364e-23)
(-5.56266e-07 6.95643e-07 2.59271e-24)
(-3.88282e-08 3.34285e-10 -1.58406e-23)
(-3.7325e-08 -4.57458e-10 0)
(-6.14604e-09 3.04261e-09 6.20216e-24)
(-4.18285e-08 3.34664e-08 1.10193e-22)
(-3.66293e-09 -9.68527e-09 0)
(-2.82635e-07 -5.40809e-06 1.14117e-24)
(2.41751e-07 -1.37476e-08 0)
(8.86494e-05 -0.000508647 0)
(-0.000160948 0.000259684 0)
(-2.21509e-07 -1.54267e-07 1.28466e-22)
(9.81049e-06 -5.98288e-07 0)
(-5.60162e-08 -3.65289e-09 -1.31462e-23)
(8.30622e-06 -1.80599e-07 1.29247e-23)
(-6.31512e-08 7.49854e-09 -4.88098e-23)
(0.000195609 -9.67414e-05 3.59476e-23)
(-1.31697e-07 5.063e-08 0)
(1.84704e-05 9.32657e-06 -3.71189e-24)
(-2.66739e-07 2.71633e-07 1.36271e-23)
(-6.99768e-05 4.19497e-05 -2.80585e-25)
(-1.0431e-05 -1.07611e-05 -1.94904e-23)
(-2.29795e-07 -2.95457e-07 6.48195e-23)
(-1.3581e-07 1.12316e-07 -6.258e-25)
(1.29619e-05 -4.91805e-06 4.60547e-23)
(-5.33997e-06 -1.07504e-05 9.23754e-25)
(-2.53429e-05 -9.93738e-06 8.4556e-23)
(2.06494e-05 -4.45785e-05 0)
(1.33739e-06 -3.12084e-08 2.58599e-23)
(-0.000456637 -0.000115639 2.1112e-23)
(-5.56548e-06 -1.34222e-05 0)
(-0.00024921 -4.50784e-06 2.07176e-23)
(-8.40521e-09 -7.16789e-09 -4.0703e-24)
(-1.03821e-05 -1.57824e-05 -7.22251e-23)
(1.75752e-07 -1.88124e-07 -8.51393e-24)
(3.6867e-06 -4.75931e-06 0)
(0.000499426 -0.00155331 0)
(8.54714e-06 -1.63656e-06 1.22643e-24)
(7.37039e-06 -2.13568e-06 0)
(-5.26791e-08 3.68694e-09 -1.25281e-22)
(-3.20331e-08 7.94534e-09 0)
(-6.69818e-09 1.21012e-08 4.10571e-24)
(-4.22125e-08 5.05591e-09 0)
(-0.000297992 -4.3461e-05 0)
(-3.32964e-07 4.53257e-08 5.8214e-23)
(-0.00033767 -0.0012687 8.91051e-24)
(-0.0003682 -9.33206e-05 -1.11448e-23)
(1.04026e-05 -0.00053328 -1.3997e-22)
(3.80193e-06 -6.03658e-06 7.49701e-24)
(-1.89324e-06 -7.42039e-07 0)
(4.50689e-06 -3.35745e-07 0)
(-6.1342e-07 -5.23052e-06 0)
(-8.35572e-07 7.68673e-07 0)
(2.41422e-06 -3.70045e-05 0)
(-2.7851e-06 -1.00913e-05 0)
(-6.86479e-08 1.90408e-08 -4.71334e-23)
(8.19308e-05 -2.67468e-05 -1.22747e-23)
(4.57547e-06 -6.01406e-07 -1.60057e-25)
(-3.36486e-05 5.71803e-05 1.42199e-24)
(-4.70928e-08 -1.34603e-06 1.05916e-22)
(7.98433e-05 0.00131954 3.93892e-23)
(3.87785e-07 1.99915e-07 0)
(3.63789e-05 2.48329e-05 0)
(4.40195e-06 -4.41899e-06 1.55113e-23)
(-1.16391e-07 2.44945e-08 2.23667e-23)
(0.000104936 6.8141e-05 2.07457e-25)
(1.30768e-06 -7.85984e-06 3.204e-24)
(-8.06617e-05 7.11198e-05 1.31627e-23)
(8.19234e-06 -1.41997e-07 -1.30775e-23)
(-4.06477e-06 -0.00039671 -1.65778e-25)
(-1.30041e-07 3.40821e-08 0)
(6.1874e-06 -4.75021e-06 -1.47309e-24)
(9.11644e-08 -3.25495e-07 0)
(3.3136e-07 -2.57215e-06 1.22786e-23)
(8.90175e-06 -6.87358e-06 6.97048e-24)
(2.18853e-05 1.25331e-05 -1.52695e-23)
(-3.58672e-05 2.59596e-05 -1.33357e-23)
(5.8527e-07 -1.86754e-06 -8.88079e-23)
(5.82619e-07 5.26743e-07 1.02714e-22)
(7.42969e-05 -0.000537191 5.98627e-23)
(-3.21447e-08 -4.95273e-07 4.91306e-23)
(0.000437867 4.73872e-05 0)
(-1.7344e-07 6.94721e-07 -7.77811e-23)
(1.65454e-07 -2.02332e-07 8.79404e-24)
(2.70776e-07 -5.9249e-08 4.41633e-24)
(5.42118e-06 -4.59395e-07 0)
(-2.03269e-08 6.66243e-09 0)
(-3.62813e-07 8.64037e-07 -2.72076e-24)
(2.87483e-07 -2.50702e-08 5.47163e-25)
(2.71352e-06 -1.15489e-05 -3.97404e-24)
(0.000268157 -0.000862055 -3.43421e-24)
(4.06893e-06 -3.48707e-07 6.14915e-24)
(-5.76574e-07 8.10073e-08 5.48968e-23)
(-7.15472e-05 -0.000506181 -2.16508e-23)
(0.000463666 0.000221095 -5.27678e-23)
(-6.06631e-08 -2.06194e-08 -1.30528e-22)
(-6.23584e-06 1.03059e-05 5.91443e-25)
(-4.9406e-09 -8.09199e-09 9.55957e-26)
(-1.42817e-07 -3.14883e-07 6.34017e-23)
(-2.90548e-07 1.17538e-07 4.14953e-23)
(2.15465e-07 -6.80087e-08 0)
(-4.72716e-08 2.43837e-08 4.63885e-23)
(3.08521e-06 -1.42897e-06 -8.12712e-24)
(-0.000458389 -0.000308201 0)
(-6.87999e-06 3.07854e-05 1.73465e-24)
(-5.60664e-08 2.27572e-07 6.49444e-23)
(-2.41178e-07 6.14079e-07 0)
(2.81545e-06 -1.23691e-05 4.45133e-25)
(0.000319145 -0.000588069 -4.48949e-23)
(-0.000420155 -0.000674408 2.55153e-23)
(8.50223e-06 2.09292e-05 0)
(1.00299e-07 -2.65116e-06 -1.37981e-24)
(0.000125155 -9.56382e-05 3.79393e-23)
(5.40514e-05 -0.000717921 -1.19978e-22)
(-4.85032e-08 7.7028e-08 1.27172e-25)
(-5.01245e-06 -1.2641e-05 -2.76763e-23)
(-4.92751e-08 8.62631e-08 -7.61727e-26)
(0.000104329 -6.00406e-05 -2.74161e-23)
(1.0554e-06 -7.52885e-06 -4.4089e-25)
(3.07884e-06 -5.52031e-06 0)
(1.86317e-06 -8.0977e-06 9.32421e-24)
(0.000234389 -0.000140003 0)
(2.81781e-07 -5.24075e-08 2.77478e-24)
(-2.47621e-06 -4.22516e-05 -3.13697e-23)
(-9.51257e-06 -3.02729e-07 -1.57401e-23)
(-1.20129e-07 5.12913e-08 -2.13161e-23)
(0.000396426 1.86147e-05 0)
(-1.29228e-05 1.15506e-06 0)
(-3.75431e-07 2.50024e-09 -5.86666e-23)
(-3.93185e-05 0.000326823 0)
(-3.58473e-05 -2.89734e-05 0)
(-0.000308171 -0.000668772 -6.40386e-25)
(9.8261e-06 -4.4799e-07 0)
(2.89486e-07 -5.35256e-08 -3.23755e-24)
(-8.86515e-05 -3.61698e-05 -6.89543e-24)
(4.86094e-05 0.000105974 0)
(3.8212e-06 -5.09177e-06 0)
(5.30734e-05 2.44997e-06 0)
(-9.33784e-08 -7.36919e-08 -5.38375e-25)
(6.30173e-05 -1.22465e-05 3.31225e-23)
(-1.97286e-06 -9.39459e-07 0)
(-7.13442e-09 6.24231e-11 2.09493e-25)
(4.37011e-06 -3.99427e-06 0)
(-8.01369e-09 2.14809e-09 -7.65173e-24)
(-6.84892e-06 -4.47915e-05 6.25823e-23)
(-2.5421e-05 -8.01669e-06 -5.72328e-23)
(-7.96394e-07 5.83284e-07 0)
(-1.96645e-07 -2.28472e-07 5.77807e-23)
(-1.02341e-07 -9.68958e-08 -5.1819e-25)
(-1.07268e-06 -2.59178e-06 0)
(-4.45379e-05 -0.00124431 -2.81508e-23)
(4.03447e-06 2.86241e-08 -7.6202e-24)
(-3.94257e-06 1.18018e-05 2.28635e-23)
(-1.77286e-06 -1.35582e-06 6.12488e-24)
(4.32232e-05 0.000136779 -1.61928e-24)
(-9.80163e-09 1.20036e-09 7.16617e-24)
(-1.0592e-08 1.06239e-09 -7.51246e-24)
(-3.02875e-06 -9.54003e-06 1.23941e-23)
(8.02967e-06 -1.75739e-07 0)
(-1.37063e-06 -8.97156e-07 0)
(-4.04012e-06 -1.10546e-05 0)
(-2.56704e-07 8.52032e-08 4.14254e-23)
(1.31496e-06 -7.54547e-06 5.01499e-25)
(-6.50372e-08 1.24607e-08 0)
(-9.42132e-05 -5.36586e-05 0)
(-8.23289e-07 -3.17732e-06 8.48175e-24)
(2.22466e-06 -3.40808e-06 9.50372e-24)
(-5.45181e-05 -4.09772e-05 -6.29269e-23)
(1.36994e-05 -4.36194e-06 -3.49964e-23)
(-1.08023e-07 -2.22073e-08 0)
(1.34852e-07 -1.37208e-08 5.89201e-24)
(7.39769e-06 -2.14331e-05 7.21167e-25)
(0.000132304 0.000499487 -1.75293e-24)
(5.42765e-05 -0.00036064 0)
(-1.47849e-07 1.33219e-07 3.0219e-23)
(-5.9131e-08 1.70634e-09 0)
(3.38787e-06 -1.46925e-06 9.68655e-24)
(3.86941e-05 -3.19573e-05 -5.1696e-23)
(-0.000344192 0.000487917 -1.16757e-24)
(-4.89736e-08 -5.46126e-08 1.54113e-22)
(3.15625e-06 -2.17185e-06 2.14606e-23)
(-8.28945e-09 -1.31646e-09 -7.59981e-24)
(-0.000168062 0.000175997 -4.78473e-25)
(9.15424e-06 2.25573e-07 1.89542e-23)
(-0.000303561 0.000414346 0)
(-0.00013685 -0.00163299 4.0777e-25)
(-0.000408659 -2.29098e-05 1.52709e-24)
(9.42847e-07 5.90184e-05 2.24064e-24)
(-2.54938e-08 2.16413e-08 4.49873e-23)
(-2.55741e-08 -2.91712e-08 3.67881e-23)
(-5.23045e-08 5.18814e-09 8.5635e-23)
(5.89121e-05 -2.67375e-05 0)
(6.69053e-06 7.21015e-06 -3.96294e-24)
(5.55977e-05 -1.11528e-05 0)
(-0.000279676 -0.00081503 2.29611e-23)
(-6.88344e-08 1.95529e-08 1.64062e-22)
(-1.50746e-07 1.23863e-07 9.27211e-23)
(4.95902e-06 -3.51841e-07 0)
(1.10934e-05 8.58805e-06 3.34699e-23)
(-0.000100048 -6.72645e-05 2.40208e-24)
(-9.84805e-08 -3.33743e-08 0)
(-7.58032e-09 7.98426e-09 1.34751e-23)
(2.74516e-07 -1.28081e-08 -1.52145e-24)
(1.4004e-05 8.79938e-06 0)
(-3.68946e-07 1.65866e-05 3.05741e-24)
(0.000254707 -3.35287e-05 3.14653e-23)
(-1.5536e-05 8.73452e-06 0)
(-2.3589e-05 -1.07181e-05 6.9293e-23)
(5.93396e-07 3.88867e-06 -6.75077e-24)
(-0.000400366 -6.92253e-05 1.28132e-23)
(-3.39582e-07 9.9633e-08 6.32047e-23)
(-3.20279e-06 -1.01076e-05 0)
(-3.65166e-07 -4.83332e-09 -7.11441e-23)
(6.72203e-05 -3.95988e-05 0)
(-3.71532e-08 -3.70563e-09 -3.63151e-23)
(-1.14261e-06 5.61237e-05 6.26423e-25)
(0.000108629 5.4215e-05 4.11137e-25)
(-1.14921e-05 -1.416e-06 -2.12858e-23)
(2.12324e-07 -7.11402e-06 2.54819e-23)
(-5.71981e-08 4.72493e-10 5.42573e-23)
(-8.76403e-09 6.94183e-10 -1.6882e-23)
(-1.6713e-05 -6.14756e-06 5.89553e-23)
(-0.000309775 0.000439278 0)
(-1.26962e-05 1.70803e-05 -2.51598e-23)
(-6.03283e-06 5.43345e-05 0)
(-4.40115e-08 -3.52082e-09 -1.06926e-22)
(-2.69193e-08 3.53462e-08 1.43414e-22)
(-3.10198e-06 -0.000110755 -3.71872e-23)
(-1.93898e-05 -3.76635e-05 -1.00498e-22)
(1.50385e-06 1.51876e-07 4.52393e-24)
(-3.05734e-08 7.33124e-08 0)
(-4.61804e-05 -2.86784e-05 -9.64926e-23)
(0.000493956 0.000554955 -1.49022e-23)
(-6.75112e-06 -9.63769e-06 -9.38664e-24)
(-2.07848e-07 -1.6009e-06 0)
(3.02413e-10 3.78405e-09 4.4e-23)
(-1.68217e-05 -6.87028e-06 -4.22957e-23)
(-8.0218e-06 -4.46546e-06 2.00365e-23)
(3.00034e-05 -3.82529e-06 2.09912e-23)
(1.03125e-05 -1.84625e-05 6.07852e-25)
(-7.11094e-05 -3.22211e-06 -2.91658e-23)
(-3.61533e-08 -2.96175e-09 3.83159e-23)
(-9.64069e-06 -1.66367e-05 3.30421e-23)
(-9.23366e-05 -0.000137581 -1.67925e-24)
(-2.28706e-05 4.5358e-05 1.37949e-22)
(-5.36802e-08 2.00684e-09 -1.25412e-23)
(-8.23351e-07 -3.51277e-06 4.22627e-24)
(-4.81955e-08 3.47842e-08 -2.69398e-23)