/*--------------------------------*- C++ -*----------------------------------*\
| =========                 |                                                 |
| \\      /  F ield         | OpenFOAM: The Open Source CFD Toolbox           |
|  \\    /   O peration     | Version:  v2012                                 |
|   \\  /    A nd           | Website:  www.openfoam.com                      |
|    \\/     M anipulation  |                                                 |
\*---------------------------------------------------------------------------*/
FoamFile
{
    version     2.0;
    format      ascii;
    class       volScalarField;
    location    "300";
    object      k;
}
// * * * * * * * * * * * * * * * * * * * * * * * * * * * * * * * * * * * * * //

dimensions      [0 2 -2 0 0 0 0];


internalField   nonuniform List<scalar> 
14804
(
0.000132316
0.000142301
0.0376832
0.000138194
0.000170989
0.000163329
0.023897
0.000177557
0.000151233
0.000140142
0.000189622
0.0127917
0.0028163
0.0165568
0.0504524
0.00015886
0.0190167
0.0132831
0.000158913
0.000131991
0.000144216
0.000170998
0.000173855
0.000160517
0.0129844
0.0233733
0.0194133
0.000148218
0.0508421
0.0383473
0.0405992
0.0191435
0.000165858
0.000177767
0.049893
0.000138889
0.000141459
0.000160135
0.000227836
0.000131213
8.16708e-05
0.000245079
0.000218504
0.000157023
0.0287082
0.0383982
0.000110845
0.000138159
0.000204
0.000144018
0.000150137
0.00015824
0.000146371
0.00017522
0.000166273
0.000147948
0.0189309
0.022631
0.0239976
0.00348451
0.022787
0.0468368
0.000131744
0.000141877
0.0001595
0.0120321
0.00944926
0.000157628
0.000140713
0.000162627
0.000164234
0.000156767
0.000159084
0.000189245
0.0363015
0.000150066
0.000153228
0.000199565
0.000130181
0.000196594
0.000194791
0.000169607
0.000188489
0.0349281
0.000167447
0.000153759
0.000154264
0.000140548
0.000171927
0.000171632
0.0305595
0.00014021
0.000131203
0.000145603
0.000141897
0.0313738
0.000154306
0.0268152
0.000165149
0.000169601
0.0373481
0.0346905
0.000242515
0.000159749
0.000211165
0.0140166
0.000162249
0.000157113
0.000165368
0.00345128
0.000155156
0.000162378
0.0226027
0.000184779
0.000168479
0.040599
8.32959e-05
0.000224605
0.000159655
0.000138207
0.0398369
0.000210155
0.000145503
0.000190078
0.00015969
0.000186126
0.00014822
0.000149844
0.000176604
0.0375489
0.000133867
0.0305385
0.000150445
0.0386733
0.000146188
0.0304575
0.000136385
0.000162911
0.0392026
0.0286359
0.000141594
0.000149427
0.00016224
0.000157277
0.000122822
0.000156226
0.00019136
0.000192794
0.0347376
0.000162419
0.00949927
0.000134009
0.000249265
6.98694e-05
0.000132741
0.000133903
0.0161825
0.000160706
0.000154215
0.0363581
0.000148237
0.000142472
0.00015082
0.000150137
0.000168342
0.0293988
0.000152286
0.00014191
0.00023361
0.000160566
0.000148236
0.000158766
0.0443423
0.000156419
0.000367385
0.0389335
0.00129119
0.0116799
0.0420021
0.000496693
0.000146192
0.00020299
0.000150094
0.0237448
0.000143587
0.0403089
0.0286001
0.0407535
0.0380939
0.00015647
0.000152793
0.0498541
0.0214202
0.01625
0.040251
0.0331138
0.039226
0.0390364
0.000149813
0.0427954
0.000150063
0.000151175
0.000142621
0.0360073
0.000164131
0.00021007
0.0400377
0.0103586
0.000190146
0.000145507
0.000158113
0.0448394
0.000148966
0.00013845
0.0440167
0.000144911
0.00472408
0.000145091
9.93284e-05
0.0114934
0.000189996
0.0345706
0.000156464
0.00038194
0.0620399
0.000209628
0.037343
0.0001443
0.0095915
0.00120984
0.000200164
0.039991
0.000150767
0.000145836
0.0313419
0.000153608
0.0371965
0.0379405
0.000153187
0.0274812
0.00847439
0.00019985
0.0286073
0.0455067
0.000160111
0.000141961
0.000193642
0.023312
0.000173739
0.00016067
0.0439017
0.0322578
0.000146008
0.000161506
0.000157652
0.00110004
0.0332545
0.0476955
0.043112
0.043506
0.000161911
0.01295
0.00015106
0.000174097
0.000152622
0.02211
0.000143027
0.0020244
0.0267696
0.000131463
0.000145374
9.70345e-05
0.000216233
0.00858946
0.000198725
0.0317693
0.000153675
0.000201216
0.000131324
0.0338819
0.000143179
0.0566446
0.000150508
0.00018864
0.000153274
0.0432379
0.000160473
0.025386
0.00014916
0.0427577
0.0177327
0.000201555
0.000668724
0.0404471
0.0001602
0.000168955
0.0485428
0.000147525
0.000169305
0.000141082
0.00014877
0.000194019
0.000149196
0.000200546
0.000155885
0.0292045
0.00900321
0.000145621
0.0275378
0.000190885
0.000156023
0.000145163
0.0518037
0.000138666
0.00243782
0.000157814
0.000192887
0.00014858
0.000188297
0.000152671
0.000148697
0.000157566
0.0307758
0.0356058
0.000145582
0.000142624
0.000190099
0.0434013
0.0525008
0.000188792
0.000202974
0.000147967
0.00014734
0.0208465
0.000155423
0.0413111
0.000199102
0.0191356
0.0376627
0.0410201
0.0402822
0.000215906
0.0122843
0.0429384
0.000148533
0.000152889
0.030664
0.0208607
0.000151382
0.000161166
0.000187479
0.000136504
0.000139988
0.0381294
0.00014729
0.000147825
0.00777978
0.000166817
0.0373673
0.000147993
0.000195672
0.000144846
0.021532
0.0502207
0.0221216
0.000195125
0.000147735
0.0307372
0.0499409
0.000195433
0.000147777
0.0360629
0.000146085
0.0223463
0.000167774
0.0469089
0.00429869
0.000232552
0.000142104
0.000207928
0.000151452
0.000197663
0.0256318
0.000160523
0.000145961
0.000137825
0.00013981
0.000147187
0.0599772
0.000157558
0.0569546
0.000188968
0.000173032
0.000152801
0.000145889
0.0450452
8.45562e-05
0.000180324
0.000304163
0.000209657
0.000168708
0.000189602
0.0411069
0.0493107
0.000176568
0.00017372
0.000214394
0.000143144
0.000185479
0.00014336
0.000146905
0.000198603
0.02008
0.0347608
0.00881258
0.000147749
0.00742862
0.000147068
0.000164488
0.000168936
0.0290823
0.000161034
0.000218836
0.0362311
0.000157297
0.000144013
0.000231135
0.00605801
0.000198729
0.00015877
0.000151217
0.000138444
0.0198962
0.0420561
0.000158036
0.0365673
0.00020378
0.00558666
0.000143899
0.0660125
0.0387235
0.000153996
0.000214744
0.000156715
0.000184898
0.000200705
0.0341006
0.000157983
0.000150771
0.0393804
0.000175466
0.0149031
0.0616565
0.000121574
0.0379945
0.000145316
0.0325452
0.000138332
0.000226464
0.000186702
0.000169
0.000189045
0.00016027
0.0170178
0.000145282
0.0142376
0.000186303
0.000187579
0.0341168
0.000154317
0.000145517
0.000138085
0.0423908
0.0224652
0.0137583
0.000198943
0.000138688
0.000166674
0.000146917
0.000210089
0.000160961
0.0270154
0.0425807
0.000164449
0.0372985
0.000261559
0.0309393
0.000155501
0.0508276
0.0394505
0.0663883
0.0435107
0.000230954
0.0239942
0.0579326
0.000143292
0.000143836
0.0126036
0.000143707
0.000170435
0.000178966
0.000160816
0.000146838
0.0432419
0.000163087
0.000185141
0.000232073
0.000159807
0.000138881
0.0416699
0.00020372
0.0654702
0.0207318
0.000160688
0.00019939
0.0183279
0.0367277
0.0670656
0.00014319
0.00018706
0.000152025
0.000212462
0.0430088
0.0247863
0.0401253
0.0370701
0.000199579
0.019173
0.0559894
0.000222225
0.00201016
0.000133872
0.0350524
0.0307947
0.0249282
0.000156582
0.00188445
0.000161751
0.000155616
0.0235319
0.000158454
0.0297494
0.000155047
0.00019201
0.000143535
0.000163122
0.000119453
0.00014257
0.000159608
0.000168804
0.000167645
0.000145967
0.000143139
0.00013953
0.000210758
0.000138348
0.0312165
0.0119083
0.000157363
0.0447152
0.000156554
0.0228928
0.000142144
0.00477448
0.000154902
0.00204867
0.000144305
0.000338984
0.0474258
0.000151435
0.000173544
1.78002e-05
0.0467897
0.0239118
0.000174377
0.00018737
0.0393005
0.0504999
0.000179586
0.000136891
0.0462529
0.000133993
0.000210891
0.0197381
0.0418158
0.0409619
0.00014606
0.00015232
0.000135728
0.00015677
0.000195196
0.000157928
0.00931169
0.0325455
0.0140155
0.0542248
0.0159217
0.0176719
0.000210831
0.000159981
0.0319305
0.0472477
0.000142557
0.000201709
0.0208927
0.00224883
0.00016262
0.0264321
0.000161567
0.000191956
0.0656032
0.00014867
0.0375652
0.0613472
0.0167755
0.0199751
0.00465282
0.000149009
0.0560425
0.000136981
0.000198873
0.000174377
9.51933e-05
0.00839131
0.0001639
0.000163282
0.0149675
0.000165079
0.000330924
0.000159336
0.000134148
0.000131125
0.0216376
0.000152328
0.000159805
0.000130274
0.000227047
0.0228419
0.000199674
0.000168813
0.0154764
0.0108351
0.0001525
0.000199619
0.000141078
0.000151225
0.000157808
0.000131207
0.000143054
0.000199272
0.0355046
0.0049727
0.000155699
0.00014536
9.22213e-05
0.0350351
0.0161638
0.000218072
0.000199315
0.000205612
0.0216962
0.000150135
0.0515106
0.000154268
0.000205832
0.0622555
0.0648778
0.0501349
0.000184393
0.000131125
0.026525
0.000190844
0.000154663
0.000228059
0.000194715
0.000158291
0.00712346
0.000161154
0.029657
0.0432251
0.000131379
0.000217512
0.0250713
0.0650412
0.000181888
0.000155356
0.0408384
0.000145194
0.000149429
0.000177393
0.000138202
0.0239232
0.021673
0.000162281
0.000180964
0.000155817
0.000161731
0.00881821
0.000199205
0.00407107
0.000145105
0.0326724
0.000136763
0.000154491
0.0578966
0.0227977
0.0190915
0.0416674
0.000157255
0.0619166
0.000142139
0.000211077
0.0350461
0.0387627
0.0120551
7.12962e-05
0.000147279
0.00015557
0.000218033
0.0299506
0.00938432
0.000163514
0.000147666
0.000199721
0.039612
0.0315359
0.000158316
0.000155623
0.000143389
0.00669412
0.0199046
0.0126064
0.00907209
0.000272983
0.00678201
0.000143025
0.000155918
0.000145485
0.0398831
0.000206245
0.00018279
0.0162004
0.000142778
0.000162973
0.0182877
0.000180558
0.0151707
0.000146962
0.00013583
0.000131836
0.000182153
0.000207333
0.00161129
0.000200875
0.0274588
0.000190911
0.0365361
0.000158196
0.0494033
0.000151921
0.000185843
0.000147938
0.00653755
0.0387425
0.0180762
0.0211482
0.000151079
0.000145383
0.0328891
0.00983146
0.0059539
0.0066858
0.000155475
0.000145135
0.0249509
0.000182281
0.000187663
0.000153323
0.00379364
0.00150602
0.026117
0.000143596
0.000175192
0.0343671
0.000187706
0.0390866
0.0443005
0.000163808
0.000147565
0.0465393
0.000268083
0.000189048
0.000150681
0.000162053
0.000143232
0.000211094
0.0409
0.0088644
0.000145719
0.000146814
0.0151124
0.00014585
0.000145727
0.0373032
0.000130121
0.000164632
0.000146006
0.000231931
0.000149543
0.000189697
0.0608954
0.000143965
0.0612134
0.000157294
0.0356893
0.000142289
0.000154375
0.0417965
0.0163075
0.0607441
0.000160125
0.0155572
0.000151588
0.000150294
0.0503893
0.000137926
0.000145091
0.000145361
0.000145152
0.0601043
0.000154546
0.000157725
0.000257796
0.000134515
0.0582395
0.000159791
0.0290107
0.000138076
0.00020571
0.0475923
0.0187181
0.00935539
0.000152191
0.0443816
0.00633618
0.049271
0.000140587
0.000184821
0.000166459
0.000148193
0.000147987
0.000142772
0.0374213
0.0381286
0.000165855
0.000199149
0.000153737
0.000187291
0.0107869
0.000160316
0.000157434
0.000161086
0.0225215
0.0399864
0.00013945
0.000140841
0.0359464
0.00018159
0.049594
0.0322619
0.000182776
0.000163769
0.000156034
0.00957897
0.000141095
0.00015102
0.000186859
0.0358777
0.00014315
0.00014928
0.000142121
0.000137632
0.000195572
0.000143454
0.000144116
0.0443489
0.0402814
0.000996881
0.008793
0.0178158
0.000142236
0.000173737
0.0366079
0.000161215
0.000155058
0.0392323
0.000148608
0.000223328
0.0385353
0.000178728
0.000140579
0.000142843
0.000174399
0.000156932
0.000219223
0.000175636
0.000164535
0.0088612
0.0146853
0.00019398
0.000196849
0.000139554
0.0519204
0.000644488
0.000178006
0.0441497
0.0386225
0.000142221
0.000198417
0.0220437
0.000146241
0.000164373
0.00016255
0.000155869
0.0218383
0.05138
0.000192956
0.00016445
0.00014425
0.00015296
0.000142284
0.000158734
0.000156546
0.000155008
0.0256408
0.00870074
0.000156599
0.0148685
0.0299288
0.025851
0.000179032
0.000151104
0.0392981
0.0415634
0.0114475
0.00174767
0.000159241
0.000208812
0.0407335
0.000169349
0.000158655
0.00015639
0.000157705
0.0321126
0.000191505
0.000160159
0.000182029
0.0136071
0.0385275
0.000163248
0.000188864
0.0273185
0.000145504
0.000147853
0.000183818
0.00015731
0.000155621
0.000164717
0.0166659
0.000162873
0.0310146
0.0290217
0.00018707
0.000232165
0.000232454
0.0120614
0.000136925
0.000161257
0.000168326
0.0137425
0.000147489
0.0268111
0.0448442
0.0282657
0.00014521
0.000243775
0.0350574
0.000207192
0.000188361
0.000171543
0.000188153
0.000153224
0.0217902
0.0288605
0.000157041
0.000607347
0.000148006
0.000159917
0.028875
0.000472437
0.000147721
0.0136455
0.000159688
0.000143158
0.0124256
0.00565839
0.0403436
0.000149329
0.000187275
0.000188414
0.000151275
0.00524982
0.000144849
0.000208224
0.000165506
0.053942
0.00014044
0.000178507
0.000209969
0.000145469
0.0695632
0.00751289
0.0521123
0.000211168
0.000187558
0.0523764
0.0331474
0.000137886
0.000157899
0.000154827
0.000147509
0.000509006
0.000166023
0.000154445
0.042269
0.000209878
0.000142886
0.000144132
0.000162082
0.000231498
0.000139794
0.000144
0.000157514
0.000146688
0.00093929
0.000238098
0.000501036
0.000211207
0.0458231
0.0238268
0.0401093
0.0108447
0.000155649
0.000488996
0.0233009
0.00112749
0.000131387
0.000139533
0.000146005
0.00103489
0.0530356
0.000158531
0.00717304
0.000148892
0.000157219
0.000168594
0.00356811
0.00022717
0.000143464
0.000162251
0.00014658
0.000143432
0.000199147
0.000140639
0.000168858
0.000131075
0.0527194
0.000157738
0.000169011
0.000165444
0.0146235
0.0505803
0.000147238
0.000151502
0.000198942
0.000131281
0.00209885
0.000228786
0.000178417
0.000142277
0.000195137
0.000150026
0.000434307
0.000152401
0.0572857
0.0247384
0.000183765
0.0598324
0.034629
0.000140434
0.000227037
0.0416044
0.0230427
0.000257443
0.000160925
0.0385974
0.0329041
0.0334143
0.000147588
0.000151579
0.000171818
0.000486747
0.000220763
0.000163037
0.0199223
0.000164962
0.000155941
0.000163903
0.0286288
0.000267741
0.0333884
0.0399348
0.0609903
0.00024265
0.000161303
0.000144331
0.054263
0.0219548
0.0354215
0.000209693
0.000134858
0.0321941
0.000131193
0.000159595
0.00773405
0.000151489
0.0445006
0.00014755
0.000145382
0.000140553
0.00015764
0.000156045
0.00640537
0.000152744
0.0689308
0.00875841
0.000133912
0.000182209
0.0517609
0.0397062
0.000148806
0.000162528
0.000139079
0.0667368
0.000143584
0.00460214
0.000165966
0.000143785
0.0570409
0.0305016
0.0357519
0.000703533
0.000189936
0.000147515
0.0225154
0.00795577
0.0400718
0.000154299
0.0516413
0.00016082
0.000152627
0.000156228
0.000161357
0.024991
0.000199646
0.000242742
0.000185735
0.0116323
0.0394421
0.0394957
0.000173054
0.000160939
0.000345873
0.000149747
0.000240206
0.000155286
0.000188764
0.0404703
0.000131423
0.000176229
0.00939687
0.023362
0.000169373
0.000157704
0.000132266
0.000154499
0.0161455
0.000197256
0.0560273
0.000197232
0.0402709
0.039566
0.0666291
0.0396568
0.0095892
0.000198035
0.0397279
0.011545
0.0406054
0.000194178
0.000161374
0.00643232
0.000185497
0.00685586
0.0347218
0.00926433
0.000144839
0.0401674
0.0158821
0.0318272
0.0370917
0.000155228
0.000142318
0.000140028
0.0344783
0.000147389
0.000143256
0.000143294
0.000157557
0.00014472
0.0128765
0.000229274
0.0411755
0.000147392
0.0222774
0.000157078
0.0253693
0.000139321
0.0536149
0.0340444
0.000147117
0.00109631
0.000135136
0.0354777
0.0576347
0.000184773
0.00015613
0.000141746
0.00015762
0.000206814
0.000200534
0.000154627
0.0198914
0.00019221
0.000988286
0.000194374
0.000212681
0.01547
0.00017492
0.000205085
0.0264751
0.000188977
0.000177056
0.000150284
0.0217108
0.000152904
0.00924969
0.000189262
0.00014412
0.000146489
0.000140743
0.0348367
0.000194943
0.0353378
0.0297566
0.000132001
0.0555305
0.041747
0.000163513
0.0109874
0.000142588
0.000149307
0.000149408
0.000175424
0.000220163
0.00699131
0.0147424
0.000155792
0.000226184
0.0138658
0.0001423
0.018026
0.000443419
0.0341912
0.000178478
0.00651248
0.000210813
0.00033089
0.000139491
0.000149779
0.0379159
0.000222212
0.00016662
0.00196103
0.0449026
0.000135458
0.0420527
0.000151571
0.000156481
0.000143735
0.000145483
0.000144078
0.000156844
0.0635862
0.0374295
0.0493901
0.000172556
0.000208622
0.0366661
0.000157266
0.0491364
0.0529079
0.00223082
0.00014518
0.00022422
0.000142042
0.0554945
0.0308648
0.000190441
0.0221063
0.0428187
0.000210962
0.021414
0.000135148
0.000149593
0.0265798
0.00646509
0.000154208
0.0227872
0.0421755
0.0358911
0.000140857
0.000231146
0.0513223
0.0461211
0.000132829
0.0227859
0.000147365
0.000149115
0.00687139
0.0189695
0.000145173
0.0001593
0.000231302
0.0593313
0.000149281
0.000164892
0.000132595
0.0300146
0.000161265
0.000229315
0.000142498
0.000161853
0.0209582
0.000147732
0.0303588
0.000196969
0.000160237
0.0377249
0.00449072
0.0339917
0.00013323
0.000158677
0.0380205
0.00213391
0.00885347
0.000210619
0.000147894
0.000156135
0.000199898
0.00014291
0.023428
0.0314184
0.000136424
0.0376499
0.000148895
0.0215444
0.0538248
0.000221554
0.00492505
0.000403879
0.0407399
0.0572663
0.000161624
0.000192651
0.000152861
0.0155029
0.0024964
0.000159501
0.000142446
0.000149973
0.000205995
0.0314561
0.0632752
0.0514362
0.000138861
0.000131252
0.0497538
0.000190926
0.000151283
0.000159836
0.0364761
0.0355499
0.000154878
0.000157444
0.000143642
0.000199291
0.000156902
0.000145008
0.000150594
0.000145416
0.0356766
0.0584062
0.0445937
0.0321064
0.000276602
0.000148113
0.000144683
0.000198184
0.000221948
0.0148759
0.000194999
0.00771265
0.0159436
0.000157986
0.000146747
0.000146107
0.00014734
0.000222386
0.0133944
0.0402233
0.00020839
0.000197978
0.000197038
0.00540409
0.00516689
0.0156531
0.000167673
0.000133429
0.000152692
0.000152529
0.000190087
0.0442646
0.000180036
0.000175475
0.000147669
0.000170478
0.000230647
0.000160011
0.000189067
0.000147855
0.000183075
0.0561013
0.0259809
0.000190402
0.0226246
0.0470425
0.000143868
0.0172784
0.0224139
0.0316098
0.000144611
0.000202756
0.000143253
0.0279111
0.000161792
0.0523201
0.000156181
0.0354959
0.0352132
0.000137154
0.000187032
0.000103179
0.0406426
0.00430753
0.00018439
0.038416
0.000140585
0.0411228
0.000243823
0.000159332
0.000170385
0.000178562
0.0394895
0.00818805
0.000189084
0.040444
0.000148513
0.000152413
0.00013829
0.000162021
0.000172964
7.78635e-05
0.000150343
0.0157248
0.0282934
0.0338565
0.0505877
0.000207396
0.0250118
0.000210404
0.000178903
0.000154006
0.000148617
0.000203791
0.000227892
0.049024
0.000146544
0.000152664
0.000132394
0.000155482
0.000142984
0.000240875
0.0087655
0.000142493
0.000143031
0.000142578
0.000209417
0.0557602
0.000136509
0.0474651
0.000139609
0.0321066
0.002561
0.00114778
0.00579454
0.0188255
0.0150999
0.000976561
0.0395385
0.000161136
0.000150804
0.0144284
0.000186998
0.000145717
0.0020363
0.0162185
0.000209501
0.00015492
0.000133901
0.000154824
0.0343435
0.0254145
0.000225688
0.0444776
0.0222881
0.000238906
0.0408048
0.0274341
0.025404
0.000185939
0.000145054
0.000142942
0.000168063
0.000159211
0.0017079
0.0398982
0.000148515
0.000224913
0.0230268
0.000159175
0.000177563
0.000160333
0.000166428
0.00814303
0.0477656
0.000189384
0.000197845
0.000164892
0.000157324
0.000207259
0.0216576
0.000176502
0.000211998
0.00015261
0.000186692
0.000163514
0.000162268
0.000137069
0.000185592
0.000148678
0.000177078
0.000225517
0.0227204
0.000165108
0.0183408
0.000148396
0.0188052
0.00864247
0.000210596
0.000149811
0.000239445
0.000142792
0.000198331
0.00905394
0.0161744
0.000207524
0.0403475
0.00013891
0.0463286
0.0196309
0.000162495
0.000177154
0.0364369
0.00013848
0.000145763
0.000155162
0.000154215
4.6635e-05
0.0375507
0.000147513
0.0212162
0.000189893
0.000153931
0.000146931
0.0686822
0.00362071
0.000142925
0.0120769
0.0164736
0.0128827
0.000155402
0.00013853
0.0144632
0.0334155
0.000226336
0.000177148
0.000184135
0.0391204
0.000239588
0.000198967
0.00016061
0.000211569
0.000177107
0.00735576
0.000137071
0.000150926
0.0308489
0.000143197
0.0435443
0.000179095
0.000148874
0.000148017
0.0240838
0.000168563
0.000149008
0.000163514
0.000162082
0.00983903
0.0293884
0.0224179
0.000184459
0.0255842
0.000187644
0.000145217
0.00835575
0.000183044
0.000162507
0.0404333
0.000147452
0.000131164
0.000169174
0.00015321
0.0246259
0.0395351
0.000160945
0.00736501
0.000159055
0.000161401
0.0158458
0.000176827
0.00564291
0.000185222
0.000143111
0.000157093
0.000225266
0.000167606
0.00018423
0.000209151
0.000189292
0.000172859
0.0109977
0.000413913
0.000157589
0.000179109
0.000216943
0.000210079
0.000156258
0.0105337
0.000291001
0.00017768
0.0110624
0.0352886
0.0280917
0.0144174
0.00017057
0.0041438
0.0002229
0.000209538
0.0571018
0.000148921
0.000168536
0.0430468
0.000196471
0.00868368
0.000214812
0.000169728
0.0298421
0.0302051
0.0091957
0.000178876
0.000232445
0.000157012
0.0132401
0.0542653
0.0278093
0.000154198
0.000184481
0.000228582
0.000171216
0.00019837
0.000204163
0.000177838
0.000182723
0.000178648
0.0289529
0.0291373
0.000171861
0.00018942
0.0366215
0.0267418
0.000163115
0.000161601
0.000204169
0.0283929
0.000152976
0.0436631
0.000156401
0.000143813
0.000140019
0.000155195
0.000214296
0.000147838
0.000131773
0.000163755
0.00013997
0.000148277
0.0109112
0.000156052
0.0282293
0.0308989
0.000172369
0.000190048
0.00019854
0.000146986
0.000148797
0.000143157
0.0119906
0.000184763
0.000140319
0.000148137
0.000158651
0.000178413
0.000174063
0.00643115
0.000179146
0.000142313
0.000171762
0.0108775
0.000159038
0.000152898
0.00016393
0.0348084
0.0317805
0.000172434
0.00744415
0.000299881
0.0255029
0.000221414
0.0325812
0.000145682
0.0185754
0.000156518
0.000141703
0.000148947
0.000191076
0.000180086
0.000147359
0.000171565
0.000144767
0.000233055
0.000349824
0.000148158
0.000157973
0.000182415
0.0325343
0.000144634
0.0402563
0.000159713
0.00572861
0.000140182
0.000143062
0.000116259
0.000155399
0.000165611
0.00014451
0.000145906
0.00354152
0.000191297
0.000163523
0.00013675
0.0380741
0.0193165
0.000157682
0.030625
0.0412646
0.000167354
0.0299393
0.0326737
0.0355168
0.000146644
0.000206719
0.000161315
0.000207214
0.034564
0.000148974
0.000226187
0.000149961
0.000206942
0.000161833
0.00609369
0.000164825
0.000164006
0.0287788
0.00406506
0.000226301
0.00020328
0.000149903
0.000202495
0.0360755
0.000155722
0.000208377
0.014376
0.00051461
0.000143538
0.000148753
0.000206459
0.0227963
0.0291214
0.0319955
0.000146207
0.000207417
0.000144817
0.0431527
0.0306841
0.0225928
0.0283
0.0108733
0.000142316
0.0030418
0.000165646
0.000148474
0.00487795
0.000162546
0.000331363
0.000135328
0.0361049
0.0362566
0.000168909
0.00713706
0.00496776
0.039098
0.000159378
0.000144804
0.0337281
0.000154458
0.0207391
0.000147904
0.000144995
0.000158549
0.0261506
0.000134204
0.0329616
0.012973
0.000365479
0.000177788
0.0189612
0.00720282
0.0306042
0.0285422
0.0683206
0.0642257
0.000219348
0.000141983
0.000198174
0.0198218
0.033183
0.000178892
0.00014436
0.000140813
0.0194523
0.000231924
0.000168328
0.000210689
0.000141151
0.000140858
0.000246265
0.000159148
0.0150375
0.000143119
0.0521074
0.00018664
0.000146976
0.022461
0.000189582
0.000210028
0.000143001
0.0291265
0.000212637
0.000162567
0.000194786
0.018544
0.0269484
0.000151399
0.000179852
0.000158585
0.00017254
0.00964918
0.00850978
0.0105885
0.000137319
0.00021174
0.00815757
0.0535947
0.0301115
0.0137371
0.0135258
0.000141477
0.000180953
0.000518854
0.0471095
0.000240154
0.00741248
0.000143631
0.0566335
0.0117041
0.00014682
0.000162517
0.00019
0.0346324
0.000147527
0.000162296
0.00847192
0.000136106
0.0178465
0.000178854
0.0197059
0.00673161
0.00437462
0.000142636
0.0100726
0.00788883
0.0110878
0.000161449
0.035348
0.045631
0.000141885
0.000227498
0.000173548
0.000154275
0.0356634
0.000229903
0.000168253
0.000156599
0.0397159
0.000154211
0.000204093
0.000168556
0.000142773
0.000214843
0.000221136
0.0399118
0.0375201
0.000137198
0.000170223
0.000187587
0.000176449
0.0272539
0.000152424
0.000173926
0.0406345
0.0317446
0.0260257
0.0304357
0.000209907
0.0262282
0.000157184
0.034821
0.000199918
0.000207246
0.00021368
0.000143678
0.0321928
0.0312426
0.00564311
0.0379147
0.0362846
0.000188747
0.00777038
0.0358501
0.0342488
0.0412942
0.0122852
0.0415002
0.000243645
0.000191069
0.000175891
0.000146023
0.0130278
0.000151673
0.000149352
0.0361845
0.000171666
0.000203141
0.000148065
0.00912989
0.0676895
0.00567672
0.000166416
0.0226993
0.00015567
0.0273307
0.0432101
0.0150003
0.000155854
0.00663386
0.000171102
0.000253032
0.000162155
0.00884979
0.000179153
0.000197352
0.0145852
0.000157389
0.000153522
0.033359
0.000142782
0.000140571
0.017136
0.000221292
0.000171789
0.0384087
0.000147986
0.0532132
0.000154869
0.000171624
0.000154061
0.000175727
0.000149263
0.000198171
0.0387544
0.000152114
0.000143209
0.013571
0.000203859
0.000145575
0.000186671
0.000159905
0.000197479
0.0399438
0.000198755
0.025566
0.0438674
0.00022179
0.0363192
0.000149062
0.000156644
0.000209077
0.0293522
0.0450623
0.0113064
0.000183703
0.0020636
0.000156434
0.0256906
0.00577566
0.0136789
0.000184767
0.0287286
0.0337331
0.000142611
0.0272514
9.78405e-05
0.000143993
0.000150277
0.0192764
0.000150771
0.000198891
0.000150953
0.000172803
0.000186142
0.000151283
0.000151763
0.000221602
0.0260163
0.000150029
0.0629403
0.0056907
0.000223776
0.0397525
0.0275833
0.000147223
0.0152725
0.000186643
0.000147735
0.0277656
0.000171126
0.000180416
0.00479424
0.000146463
0.000143206
0.00572917
0.000158011
0.0325583
0.000154856
0.000161383
0.000145342
0.000223016
0.0339074
0.0259428
0.000145471
0.00108302
0.0538286
0.000176878
0.000161222
0.0260189
0.000218889
0.000140525
0.00721559
0.0421528
0.000192105
0.000146308
0.000144578
0.000152754
0.000181896
0.000144779
0.00019623
0.0171146
0.000143213
0.0110289
0.0166406
0.0324987
0.0349591
0.000169299
0.00024201
0.0672674
0.00575551
0.000219801
0.0374855
0.0194356
0.000148322
0.00472992
0.000148316
0.0414642
0.000142741
0.000185277
0.000146738
0.00120244
0.000386931
0.000155007
0.0214395
0.0355462
0.000161448
0.00020102
0.000185379
0.000154653
0.000186245
0.000207218
0.0250895
0.000157479
3.7881e-05
0.0365553
0.0298096
0.00451102
0.040189
0.000140632
0.000143505
0.00520944
0.0229517
0.000222424
0.0376922
0.000220699
0.000156761
0.00797551
0.002297
0.000184223
0.0134963
0.000182568
0.0141547
0.000150655
0.0206523
0.00015149
0.000187534
0.00018512
0.0400913
0.000185384
0.039271
0.0001523
0.000144805
0.0076022
0.0402503
0.0324234
0.0371346
0.000261054
0.0345023
0.000223014
0.000140524
0.0253183
0.000143845
0.0203419
0.00920375
0.0235612
0.000213842
0.000206295
0.000229988
0.000221971
0.0405065
0.000154104
0.0406152
0.0399386
0.00015184
0.00712584
0.000212734
0.000163918
0.000157567
0.000157343
0.00734587
0.000167154
0.00024085
0.0277813
0.000144321
0.000207422
0.0001808
0.0413845
0.0385322
0.000187452
0.0444876
0.0144865
0.000219853
0.000149804
0.0337696
0.0384031
0.000152108
0.000501272
0.0228969
0.0163609
0.000137305
0.0381277
0.0001431
0.000148877
0.000148037
0.0491277
0.0316556
0.000195811
0.047284
0.000146415
0.000154818
0.000207413
0.000221685
0.0180329
0.000158443
0.000165895
0.0269459
0.000220556
0.000145678
0.000144271
0.000202035
0.000145231
0.000186173
0.00109193
0.00866504
0.000223282
0.000153277
0.000182565
0.0276141
0.0242085
0.0372942
0.0486387
0.000152056
0.000171687
0.00448281
0.0311342
0.0063849
0.0352615
0.000159519
0.0275457
0.000163911
0.000186953
0.00805509
0.000199659
0.039119
0.000161508
0.00108272
0.000155687
0.0397113
0.000141783
0.000203146
0.00014319
0.0380535
0.027287
0.0001529
0.000145297
0.0050097
0.000142715
0.0382459
0.00616047
0.0212038
0.0322124
0.0258509
0.000145319
0.000179966
0.000157972
0.000187537
0.037486
0.0216405
0.0188644
0.0421284
0.000176401
0.000258524
0.000155659
0.0169056
0.000200925
0.00013822
0.000147375
0.00705284
0.00014075
0.0059296
0.000140767
0.000140669
0.000139555
0.000193166
0.0273294
0.000224926
0.000201022
0.000145128
0.000183565
0.00021453
0.0221156
0.000186287
0.000204472
0.000167257
0.00314758
0.000150049
0.000196859
0.00269039
0.0372118
0.0397951
0.000371149
0.000194319
0.000153677
0.000192066
0.000215813
0.037446
0.000222438
0.0401002
0.00014079
0.000188504
0.000184303
0.000144364
0.0275704
0.00020012
0.00014448
0.000157749
0.0141885
0.0150996
0.000155261
0.000145404
0.0365689
0.0301448
0.000160753
0.0002105
0.0393826
0.000207182
0.0321523
0.0385201
0.0525633
0.0334777
0.0126602
0.000222654
0.025611
0.000168623
0.0141924
0.0181872
0.0532575
0.0544817
0.000171
0.0612016
0.0237897
0.000156915
0.000219691
0.0376929
0.00017565
0.0369851
0.0144807
0.0001798
0.0505154
0.000186711
0.0425044
0.00785345
0.000147548
0.000194808
0.0394725
0.000147348
0.000159222
0.000186885
0.00427415
0.0404161
0.00018161
0.0136973
0.000161794
0.000131625
0.00015958
0.000155318
0.000189444
0.000186907
0.000146332
0.000186943
0.000203772
0.00532815
0.0571615
0.0408134
0.0414667
0.000141273
0.000224518
0.000172371
0.00500837
0.000192812
0.00223928
0.0171678
0.0602925
0.000216224
0.000190246
0.00351658
0.00625976
0.000195176
0.000159588
0.000167844
0.0341593
0.000147182
0.000160923
0.000181181
0.0248227
0.0081366
0.0558147
0.000159973
0.0233256
0.000138082
0.000148059
0.000155393
0.000142946
0.000156769
0.00017398
0.0277905
0.000209028
0.00019818
0.0577581
0.0421695
0.00570647
0.0253524
0.000190603
0.000361313
0.00021491
0.000160464
0.00208976
0.000240278
7.50564e-05
0.000255282
0.000223308
0.034262
0.000156767
0.0240959
0.000142733
0.000157081
0.000161385
0.000146448
0.000151939
0.00951548
0.0565307
0.000185482
0.000147914
0.0423086
0.023603
0.0428038
0.000175476
0.011942
0.000185456
0.032479
0.000224299
0.000150551
0.0397949
0.000183307
0.000184997
0.000193229
0.0291336
0.00887369
0.0428556
0.000143246
0.00260797
0.000226432
0.0161289
0.000158901
0.000168947
0.000225241
0.000196805
0.0256689
0.0604207
0.000180238
0.025273
0.0439699
0.000197315
0.000187813
0.00021786
0.00019662
0.030202
0.000167626
0.000226917
0.0690626
0.000157886
0.04298
0.000140755
0.0597309
0.0383975
0.000157985
0.0179227
0.000216576
0.000182652
0.000222892
0.0353292
0.0548632
0.000204599
0.0375321
0.00015944
0.00017354
0.0584493
0.0258607
0.000153035
0.0197957
0.048742
0.000196515
0.00676255
0.000225932
0.0446496
0.00024371
0.000165341
0.0414096
0.0314263
0.0288984
0.000143328
0.000164981
0.000225473
0.0403578
0.000185357
0.0558171
0.0283488
0.00022595
0.000147593
0.000142893
0.0306457
0.000145365
0.000182434
0.000169968
0.000195275
0.0319512
0.0150356
0.0295006
0.000156302
0.000226085
0.000196253
0.000189867
0.0387625
0.00158074
0.018478
0.000159599
0.0160196
0.00842701
0.000162972
0.045417
0.000154533
0.0408462
0.000182829
0.0336569
0.000146167
0.000212502
0.000191404
0.00021045
0.0464915
0.0282592
0.0383969
0.0617807