/*--------------------------------*- C++ -*----------------------------------*\
| =========                 |                                                 |
| \\      /  F ield         | OpenFOAM: The Open Source CFD Toolbox           |
|  \\    /   O peration     | Version:  v2012                                 |
|   \\  /    A nd           | Website:  www.openfoam.com                      |
|    \\/     M anipulation  |                                                 |
\*---------------------------------------------------------------------------*/
FoamFile
{
    version     2.0;
    format      ascii;
    class       volScalarField;
    location    "300";
    object      nut;
}
// * * * * * * * * * * * * * * * * * * * * * * * * * * * * * * * * * * * * * //

dimensions      [0 2 -1 0 0 0 0];


internalField   nonuniform List<scalar> 
14804
(
0.00587325
0.00592099
0.0136635
0.00586154
0.00157162
0.00555935
0.00637115
0.00205031
0.00555538
0.00603968
0.00431292
0.00881599
0.0122801
0.0124268
0.0220487
0.00473519
0.00321449
0.00992801
0.00426017
0.00586318
0.00602217
0.00184918
0.00412308
0.00486632
0.0174421
0.00624884
0.00382736
0.00602601
0.0220882
0.0189474
0.0260355
0.00324801
0.00242702
0.00173469
0.0133197
0.00587641
0.00586091
0.0050752
0.00116297
0.00584963
0.000335047
0.00119952
0.00147594
0.00334731
0.02146
0.0242165
0.000446206
0.00586042
0.00222785
0.00602095
0.00604296
0.00601002
0.00594902
0.00398365
0.002415
0.00602363
0.00367653
0.00501268
0.0248104
0.0143751
0.00506567
0.0148165
0.00586209
0.00592294
0.00252689
0.00848736
0.0205883
0.00547072
0.00603524
0.00560553
0.00365179
0.00554879
0.00254923
0.00181982
0.0129284
0.00604387
0.0060453
0.00210386
0.005847
0.00260405
0.00273693
0.00449508
0.00162325
0.0158863
0.0062057
0.00605176
0.00600528
0.00589357
0.00225699
0.00207092
0.0158549
0.00588665
0.00584898
0.00591877
0.00601136
0.0147709
0.00599709
0.019649
0.00495226
0.00448906
0.02378
0.0152368
0.00126954
0.00243158
0.00167563
0.0190915
0.00561836
0.00601808
0.00468574
0.00131721
0.00599838
0.00560256
0.00752336
0.00173842
0.00298363
0.0134994
0.000235462
0.0013922
0.00500809
0.00599263
0.014551
0.00179908
0.0059161
0.0018028
0.00465838
0.00186702
0.00597215
0.00601893
0.00183965
0.0184822
0.00585697
0.0143805
0.00562631
0.0267967
0.00596449
0.0162909
0.00023703
0.00475466
0.0142944
0.0266878
0.00586318
0.005722
0.00484417
0.00312494
0.000422156
0.00576861
0.000789818
0.00102946
0.0152419
0.00559327
0.0207583
0.00585737
0.001347
0.000186879
0.0058827
0.00585279
0.0216064
0.00286035
0.00605452
0.0163721
0.00600983
0.00604435
0.00603154
0.00566762
0.00256883
0.0184769
0.00602897
0.00600478
0.0033388
0.00271765
0.00601133
0.00283984
0.0166095
0.00574048
0.000681827
0.0173291
0.00123061
0.00800371
0.0160859
0.00397995
0.00597154
0.00229451
0.00601744
0.0242985
0.00603781
0.0140052
0.0150714
0.0178823
0.0271544
0.00607342
0.00601094
0.0141226
0.0125696
0.0235468
0.0224515
0.0233668
0.0197369
0.0168898
0.00601017
0.0204862
0.00602651
0.00605765
0.00603145
0.0120756
0.0055039
0.00182644
0.0266075
0.0137174
0.00180904
0.00591975
0.00604405
0.0151483
0.00578139
0.00586797
0.0206302
0.00587031
0.0199609
0.00587379
0.000443816
0.015304
0.00327986
0.0266804
0.00601361
0.00375294
0.0237394
0.00184011
0.0163583
0.00586185
0.020336
0.00117487
0.0021368
0.0224111
0.00603587
0.00592605
0.026005
0.00605278
0.0113189
0.0190017
0.00602822
0.0257636
0.0026847
0.00246225
0.0185744
0.0192839
0.00601848
0.00592019
0.00264493
0.00526067
0.00207636
0.00208954
0.0150349
0.0143248
0.00598634
0.00553038
0.00601222
0.00506657
0.0147442
0.0142296
0.0204743
0.018286
0.00548171
0.0173101
0.00599269
0.00390566
0.0060175
0.00564186
0.00586363
0.00760864
0.0102872
0.00585345
0.00591026
0.000484338
0.00114762
0.00246741
0.00166802
0.0250112
0.00600082
0.00191097
0.00585323
0.0269237
0.00586607
0.021511
0.00603444
0.00280489
0.00603259
0.0187189
0.00477619
0.00706847
0.0060282
0.0185381
0.00327618
0.00189862
0.00435868
0.0129566
0.0052442
0.00318041
0.0140842
0.00592349
0.00175492
0.00592456
0.00571619
0.00297059
0.00603052
0.00230006
0.00602756
0.0197776
0.0210764
0.0059252
0.0142257
0.00310362
0.00600416
0.00587684
0.0178851
0.00587181
0.00164588
0.00615781
0.00296022
0.00596852
0.000841935
0.00600891
0.00572732
0.00455714
0.0110292
0.026269
0.0059154
0.00599464
0.0032446
0.0147241
0.0160031
0.00132764
0.00223887
0.00605699
0.0059188
0.00437358
0.00577271
0.0176897
0.00136546
0.00337958
0.0137599
0.0175479
0.0176871
0.0012351
0.0054814
0.0146091
0.00581433
0.00604622
0.0156185
0.0120175
0.00603999
0.00534509
0.00188789
0.00596448
0.00592171
0.0244163
0.00604918
0.00579552
0.00477846
0.00607383
0.0267039
0.00594105
0.00275088
0.00594766
0.00988042
0.0205189
0.00492312
0.00288035
0.00593605
0.0169856
0.0206966
0.0028238
0.0058042
0.016253
0.00591943
0.0250749
0.00452626
0.0172793
0.00164344
0.00419097
0.00585252
0.00195048
0.00598289
0.00427351
0.0107303
0.00214567
0.00593298
0.00590427
0.00591877
0.0060485
0.0236218
0.00601112
0.02051
0.00334231
0.00167004
0.00602231
0.00593008
0.0191567
0.000279717
0.00152551
0.000884548
0.00142595
0.00223941
0.00295037
0.0179985
0.0140334
0.00084896
0.00193181
0.00164585
0.00594228
0.00335151
0.00601217
0.00594582
0.00150428
0.00357697
0.0153383
0.0198866
0.00606509
0.00623055
0.00596346
0.00329082
0.00262522
0.0196923
0.00514846
0.00152032
0.0197445
0.00566483
0.00585018
0.00128851
0.00514543
0.00146739
0.00440469
0.00605194
0.0060003
0.0228631
0.0202452
0.00590551
0.0197132
0.0018939
0.00472787
0.00585026
0.0223657
0.0167187
0.00604072
0.00161819
0.0060095
0.00212871
0.00240287
0.0264887
0.00559165
0.00604232
0.0268265
0.000775776
0.0125243
0.0196306
0.000451178
0.0169266
0.00593885
0.024812
0.00587823
0.0013859
0.00352258
0.00342729
0.00132733
0.00544961
0.0110337
0.00590518
0.00539516
0.00256816
0.00343997
0.0155705
0.00603451
0.00591111
0.00585862
0.0184046
0.00696905
0.00544829
0.00139786
0.00600144
0.000849471
0.00586354
0.00179993
0.00573018
0.0115744
0.0205358
0.000925858
0.0133769
0.00429737
0.016843
0.00322519
0.0205986
0.0170651
0.0200708
0.0187855
0.00136644
0.0256582
0.0231912
0.00598931
0.00603055
0.02088
0.0060403
0.00184312
0.00163114
0.00572725
0.00587579
0.0181852
0.00558148
0.0033823
0.00135854
0.00548709
0.00600766
0.0129701
0.00187736
0.0193914
0.0238995
0.00550879
0.00134897
0.0154453
0.0164964
0.0197053
0.00586218
0.00342759
0.00603025
0.00146618
0.0205748
0.0113369
0.017662
0.016609
0.00112036
0.00472897
0.0228929
0.000242137
0.00777391
0.00585317
0.0154151
0.0206895
0.0254451
0.00603267
0.00712351
0.00566469
0.000519751
0.00764306
0.00587614
0.0182215
0.00596393
0.00305938
0.00593582
0.00557581
0.000204519
0.00589656
0.00572398
0.00622211
0.00620311
0.00595809
0.00585952
0.00589719
0.0015923
0.00593591
0.0209976
0.0100809
0.0059339
0.0190764
0.00601159
0.00524429
0.00587546
0.00396443
0.00604078
0.00139492
0.00603722
0.000741959
0.0214646
0.00603367
0.0016489
4.01367e-05
0.014818
0.00774235
0.00409916
0.00170706
0.0258739
0.0207933
0.00388791
0.00589478
0.0211724
0.00590942
0.00177572
0.0216521
0.0179089
0.0175788
0.00589554
0.00594451
0.00585577
0.00598365
0.00384018
0.0059143
0.0210691
0.019566
0.0192346
0.0227401
0.00237761
0.00291207
0.00139337
0.00569159
0.0165526
0.014439
0.00589333
0.0023572
0.00436143
0.00169683
0.00557317
0.0256559
0.00566995
0.00310782
0.0215306
0.00606372
0.0191489
0.0219395
0.00924104
0.0036628
0.019906
0.00606239
0.0230417
0.00597634
0.00148414
0.00100859
0.000346857
0.00714072
0.00547549
0.0055621
0.0214743
0.00393201
0.00388764
0.00575517
0.00591189
0.00585856
0.0047465
0.00594395
0.00571536
0.0058478
0.00122074
0.0247238
0.00187573
0.00274821
0.0227176
0.0210949
0.00602605
0.00222925
0.00591612
0.00604619
0.00592224
0.00584875
0.0058611
0.0019236
0.0268642
0.00189683
0.00310273
0.00600087
0.000356799
0.0256761
0.0211049
0.00153696
0.00164848
0.00183046
0.0211103
0.00602027
0.0206901
0.00605007
0.00199447
0.0197263
0.0191989
0.0143265
0.00382215
0.00586265
0.0128611
0.00285158
0.00605164
0.00350549
0.00274445
0.00588835
0.00957147
0.00496802
0.0240099
0.0182671
0.00587171
0.00153779
0.0129466
0.0222556
0.00367993
0.00601357
0.0202545
0.00596594
0.0059868
0.00421597
0.00590339
0.0109875
0.00607913
0.00563499
0.00135622
0.00599797
0.00549512
0.0199689
0.00178116
0.00192443
0.0059762
0.0171961
0.00588896
0.00605319
0.0200089
0.00522695
0.00373102
0.0140905
0.00594602
0.0219497
0.00587822
0.00155933
0.0146256
0.01682
0.00776082
0.00020417
0.00604642
0.00612677
0.00115213
0.0171185
0.0137927
0.00227942
0.00595831
0.00167843
0.0203502
0.0238319
0.00442118
0.00575322
0.00594373
0.00967307
0.00343204
0.0208176
0.0212093
0.00347181
0.00464618
0.00584951
0.00598692
0.00588643
0.0206261
0.00195108
0.00357608
0.021647
0.00589718
0.00232563
0.00313554
0.00403832
0.00566384
0.0060427
0.0058571
0.0058679
0.0039032
0.00201513
0.00261202
0.00243544
0.0107199
0.0020459
0.0224642
0.00589681
0.0155161
0.0060392
0.0032848
0.00594347
0.00419395
0.0198022
0.00352977
0.00888209
0.00597861
0.00595883
0.0145362
0.021259
0.00437821
0.00432583
0.00600201
0.00589583
0.0105935
0.00375525
0.00172106
0.00604478
0.000525786
0.00643385
0.0100815
0.00601574
0.00602011
0.0156306
0.00287412
0.0164313
0.0200402
0.00465265
0.00593505
0.02119
0.000790962
0.0032763
0.00597576
0.00545073
0.00586412
0.00183282
0.0204304
0.0129395
0.0059002
0.00595908
0.00694027
0.00593999
0.00593047
0.0193916
0.00584634
0.0035655
0.00591527
0.00124576
0.00605344
0.00284421
0.0219874
0.0059331
0.0237727
0.00339702
0.0131351
0.00585349
0.00605026
0.0182284
0.0232867
0.0196396
0.00509548
0.013114
0.00549904
0.0060238
0.0152473
0.00585834
0.00587091
0.00588021
0.00587334
0.0197425
0.00604239
0.0043246
0.000828204
0.00586319
0.0201419
0.00569684
0.0180933
0.00586112
0.00210847
0.0214875
0.00785179
0.021512
0.00602537
0.0202449
0.00359304
0.020733
0.00589765
0.00347625
0.00522544
0.00597812
0.00598465
0.00590009
0.0174939
0.0137931
0.00528718
0.00175319
0.00605901
0.00295878
0.00811224
0.000428412
0.00466108
0.00213123
0.0148442
0.0140951
0.00588607
0.00590515
0.0135649
0.00379723
0.0205276
0.0108934
0.00380615
0.00356341
0.00606899
0.02039
0.00592345
0.0059894
0.00185014
0.0162314
0.00593608
0.00605201
0.00591852
0.00586642
0.00181654
0.0060299
0.00584953
0.0208665
0.0231059
0.00142414
0.0204176
0.00425963
0.00588249
0.00345804
0.0160026
0.00571178
0.00331761
0.0205051
0.00597257
0.00139011
0.013995
0.00265638
0.005934
0.00584675
0.00401778
0.00596444
0.00145871
0.00389222
0.00540307
0.0212085
0.0223996
0.00296526
0.00199851
0.00588581
0.0154993
0.00414659
0.00424795
0.0189582
0.0205131
0.00587867
0.00139738
0.00486061
0.00594895
0.00516118
0.00560917
0.00551918
0.00905233
0.0159368
0.00191306
0.00456107
0.00600759
0.00604338
0.0059381
0.00602521
0.00369649
0.00603172
0.0244388
0.00734448
0.00566552
0.00883697
0.0266733
0.0112076
0.0021825
0.00559224
0.0233147
0.015292
0.00835922
0.00400856
0.00241998
0.00196065
0.0199284
0.00302728
0.00609744
0.00598575
0.00612161
0.0109167
0.00273996
0.00566629
0.00389135
0.00887351
0.016794
0.00606894
0.00137888
0.0111807
0.00589411
0.00605427
0.00374972
0.00558613
0.0060164
0.00604106
0.00661447
0.00554487
0.0248592
0.0120421
0.00348468
0.00126521
0.0012657
0.0222245
0.00585705
0.00621897
0.00164179
0.00864981
0.00599937
0.0101579
0.0209143
0.0263088
0.00590049
0.00120235
0.0115336
0.00204334
0.00271322
0.00191007
0.00314805
0.0048954
0.0117833
0.0106579
0.00601065
0.0045528
0.00583563
0.00280515
0.0153067
0.00420372
0.00606437
0.00901403
0.000718972
0.00591467
0.0223271
0.0024108
0.0203011
0.00599412
0.003472
0.00307059
0.00604691
0.0024309
0.00595419
0.00165993
0.0025293
0.0204126
0.00593164
0.00207566
0.00181527
0.00598805
0.019562
0.00586279
0.0201428
0.00174739
0.00273664
0.0209498
0.0119078
0.0058601
0.00589581
0.00535386
0.00599941
0.00419783
0.00525632
0.00613732
0.0169855
0.00182616
0.00584536
0.0058479
0.00508658
0.0013676
0.00589644
0.00584981
0.00592164
0.00595336
0.00346835
0.00125272
0.00425558
0.00182267
0.0141234
0.0201787
0.0264007
0.0219767
0.00500542
0.00423687
0.00825237
0.000739767
0.00586858
0.00592053
0.00593556
0.000840832
0.0225122
0.00493467
0.00516609
0.00603455
0.00416054
0.00425824
0.00166702
0.00131849
0.00604803
0.00563319
0.0059542
0.00591993
0.00175336
0.00603906
0.00297258
0.00584794
0.0195675
0.00402647
0.00337335
0.00604502
0.00723416
0.0157344
0.00605175
0.00600702
0.00156452
0.00585087
0.00246867
0.00137217
0.00166738
0.00586011
0.00270184
0.00583869
0.0015228
0.00594975
0.0232288
0.0110578
0.00170975
0.0196172
0.016488
0.00604505
0.0014418
0.0138646
0.0249796
0.00158646
0.00219883
0.0201146
0.01465
0.0115801
0.00592998
0.00552899
0.00155579
0.00402681
0.00142358
0.00557008
0.00691438
0.00435489
0.00364973
0.00350502
0.0118198
0.00367715
0.0134897
0.0218363
0.0237309
0.00121323
0.00535358
0.00599835
0.0206398
0.00577177
0.0114966
0.00184053
0.00596958
0.0122789
0.00585122
0.00331621
0.00589711
0.00602681
0.0133328
0.0060564
0.00592605
0.00602945
0.00440109
0.00600548
0.00846329
0.0060469
0.0196143
0.0202899
0.00594443
0.00180043
0.0209142
0.0223677
0.00603503
0.00604757
0.00587962
0.0193985
0.00601572
0.00310109
0.00236364
0.00599869
0.0231776
0.0105996
0.0172562
0.0047113
0.00183894
0.00592546
0.0131063
0.00588039
0.0204574
0.00607254
0.0222861
0.00572071
0.00594644
0.00597589
0.00321984
0.00977629
0.00243427
0.0012129
0.00398236
0.0215693
0.0179593
0.0128132
0.00425814
0.00547967
0.000658419
0.00600412
0.00122998
0.00527044
0.00287161
0.0230741
0.0058759
0.00379001
0.0217199
0.0128965
0.00462947
0.0059107
0.00586417
0.00605042
0.0160874
0.00272255
0.0230936
0.00167606
0.0221657
0.0146141
0.022427
0.00968263
0.0217078
0.00264154
0.0182043
0.0213435
0.0206174
0.00296496
0.0054366
0.00320814
0.00361298
0.0045644
0.0181
0.020949
0.00588997
0.0169846
0.0048516
0.0127844
0.0206537
0.00509154
0.00597639
0.00587851
0.0182041
0.00589506
0.00592318
0.00600479
0.0026543
0.00600155
0.0087803
0.00121883
0.0194902
0.00593513
0.0225244
0.00593426
0.00789024
0.00589222
0.0163086
0.0191356
0.00591296
0.00328964
0.00597405
0.0155949
0.0201866
0.0036588
0.00536432
0.00597056
0.00592632
0.00203978
0.00230391
0.0051747
0.00367011
0.0018909
0.00513888
0.00183192
0.00036572
0.00978629
0.0039199
0.000809567
0.00965727
0.00177002
0.00435646
0.00602712
0.00974453
0.00603523
0.0207954
0.00136837
0.00584966
0.00595381
0.00585927
0.0104968
0.00288786
0.0160612
0.0114471
0.00586843
0.0197689
0.0188149
0.00402649
0.0111137
0.00600334
0.00596994
0.00604869
0.00382775
0.00148529
0.00605958
0.0023619
0.00599515
0.00147922
0.00646109
0.00599032
0.00766315
0.00425635
0.0174125
0.00219731
0.00530267
0.0017828
0.00411807
0.0058816
0.00587144
0.0165467
0.00140319
0.00519682
0.00600478
0.0135664
0.00595559
0.0153474
0.00575812
0.00344902
0.005852
0.0059074
0.00590356
0.00594489
0.0196104
0.0167465
0.0215528
0.00425727
0.00157772
0.0172523
0.00569815
0.0215868
0.0207611
0.000502574
0.0058711
0.00137558
0.00597521
0.0229805
0.0124562
0.00202147
0.00847654
0.0131181
0.00181036
0.00811626
0.00595038
0.00600257
0.00762346
0.00566177
0.0060564
0.00800355
0.0132243
0.0187399
0.00585925
0.00137615
0.0145436
0.0212145
0.0058973
0.00896479
0.00595575
0.00598659
0.00460192
0.0160364
0.00588705
0.00238331
0.00127665
0.0235621
0.00601439
0.00488578
0.00589259
0.0261959
0.00569123
0.00247434
0.00586085
0.00550404
0.00838084
0.00592084
0.0269252
0.00187516
0.0028721
0.0168383
0.00209802
0.0177279
0.00589462
0.0045931
0.0210025
0.000884027
0.00706261
0.00180412
0.00605925
0.00599836
0.00167269
0.00600691
0.00938387
0.0140505
0.00588636
0.0206401
0.00605271
0.0207442
0.0225554
0.00142016
0.00232726
0.0016479
0.0185151
0.0215746
0.00532853
0.00280507
0.00603394
0.0225584
0.00992082
0.00286689
0.00599694
0.00603044
0.00211356
0.0141976
0.0196339
0.0155984
0.00591285
0.00586061
0.0157772
0.00318393
0.00600358
0.00601903
0.011834
0.0212314
0.00598287
0.00565558
0.00601444
0.0024913
0.00359357
0.00590374
0.0060305
0.00590317
0.0188349
0.0233885
0.0196637
0.012021
0.00241535
0.00605529
0.00601196
0.00134196
0.00142749
0.0222655
0.00287037
0.00623149
0.0221378
0.00439603
0.00605107
0.00594168
0.00597541
0.00140589
0.0227721
0.0171517
0.00133345
0.00128191
0.00155009
0.00221301
0.00419198
0.0228661
0.0030529
0.00589885
0.00606234
0.00607155
0.00282926
0.0205456
0.00404419
0.00447323
0.00592922
0.00629071
0.00137293
0.00298176
0.000567499
0.00593507
0.00323503
0.0193585
0.0250258
0.00190867
0.0121245
0.020322
0.00585313
0.00341906
0.006932
0.0268181
0.00588327
0.00229398
0.0058597
0.0113574
0.0034461
0.0159224
0.00598053
0.0193657
0.0115593
0.00585803
0.00189012
0.000488265
0.0260615
0.00311758
0.00181498
0.0178107
0.00588247
0.0190883
0.00119782
0.00601813
0.00210293
0.0041293
0.0174617
0.00650893
0.00142696
0.019079
0.00597275
0.00599052
0.00590805
0.0054515
0.00396707
0.000232759
0.0055145
0.00953145
0.010073
0.0150634
0.016643
0.00184452
0.00864898
0.0017976
0.00409687
0.00605247
0.0060605
0.00216072
0.00130291
0.0217862
0.0059327
0.0060467
0.00586792
0.00610764
0.00587212
0.0012219
0.0212555
0.00604537
0.00586706
0.00588003
0.0018608
0.0213467
0.00600375
0.0150567
0.00588394
0.0122346
0.00123642
0.00597573
0.0203274
0.00685094
0.0230484
0.000912979
0.0240965
0.00557791
0.00545495
0.0218774
0.00246622
0.00597204
0.00379151
0.0101712
0.00165595
0.00347161
0.0059456
0.00604412
0.0142299
0.00954858
0.00134804
0.0138889
0.00647224
0.00166729
0.0203724
0.00807684
0.0143691
0.00291783
0.00588322
0.0060173
0.00499618
0.00309222
0.00724919
0.0247324
0.00605963
0.00136261
0.00888869
0.00264574
0.00199812
0.00602721
0.00271146
0.0208964
0.0215376
0.00251913
0.00193581
0.00260649
0.00594168
0.00162194
0.0184146
0.00405747
0.00145713
0.00580795
0.00132506
0.00547068
0.00620587
0.00585737
0.00252417
0.00597136
0.00214825
0.00134998
0.0131235
0.00607693
0.00366804
0.0058114
0.0121642
0.0205275
0.00185688
0.00605455
0.00127131
0.00600133
0.00174348
0.0214949
0.00804895
0.00199305
0.0225658
0.00587338
0.0129239
0.0246023
0.00561684
0.00239508
0.0159766
0.000635513
0.0059343
0.00536756
0.00599685
9.09803e-05
0.0120343
0.00587246
0.00772679
0.00328885
0.00604273
0.00596478
0.0193153
0.00086542
0.00584621
0.00609999
0.00299933
0.0225599
0.0060273
0.00599562
0.0230311
0.0127853
0.00133479
0.00431657
0.0022643
0.0126703
0.0011588
0.00138242
0.00456592
0.00143857
0.00201291
0.00514149
0.00585986
0.00505298
0.0170325
0.00586976
0.0207174
0.00214909
0.00605984
0.00603656
0.007777
0.00169268
0.0059164
0.00543406
0.00564659
0.00483889
0.0114522
0.00506198
0.00349216
0.0244631
0.00187613
0.00599282
0.00613955
0.00290809
0.00219051
0.0248057
0.00605921
0.00586773
0.0048923
0.00605012
0.0242574
0.0226195
0.00569555
0.00547474
0.00329239
0.00520318
0.00259109
0.0036934
0.0202654
0.00240907
0.00586473
0.00349372
0.00256528
0.00174795
0.00248231
0.00131936
0.00146527
0.00474018
0.0159235
0.00108578
0.00271708
0.00364065
0.00161782
0.00188884
0.00596369
0.00282358
0.00329536
0.00429564
0.0160265
0.0130587
0.00936356
0.00653609
0.00364536
0.0022851
0.00140743
0.00149253
0.0232468
0.00593315
0.00436252
0.0122847
0.00135749
0.0207638
0.00163162
0.00406856
0.0219092
0.00981947
0.00729164
0.00347547
0.00139802
0.00259995
0.0227265
0.0156639
0.013589
0.0060603
0.00246993
0.00128795
0.00444407
0.00181992
0.00173218
0.00246897
0.0025165
0.00163745
0.0187595
0.0154349
0.004519
0.00140255
0.014312
0.0123667
0.00221315
0.00452871
0.00223459
0.0175577
0.00578747
0.0202072
0.00598067
0.00585099
0.00588146
0.00601307
0.00166674
0.00605893
0.00585904
0.00187193
0.00601234
0.00599449
0.0144966
0.00481601
0.00826302
0.0197906
0.00428933
0.00210207
0.00130318
0.00551851
0.00605409
0.00587492
0.00617163
0.00317609
0.00603096
0.00604885
0.00566714
0.00148453
0.00396875
0.00917458
0.00156363
0.00603389
0.00396211
0.0181281
0.00564225
0.0060393
0.00244758
0.0129783
0.0107132
0.00478057
0.0207085
0.0036642
0.00934847
0.00145961
0.0145401
0.00598541
0.00493587
0.0057586
0.00586209
0.00600989
0.00317707
0.0014963
0.00601647
0.00164059
0.00593855
0.00125896
0.00373907
0.00585444
0.00613567
0.00181723
0.0229626
0.00590573
0.0166422
0.00601673
0.00271647
0.00588317
0.0060028
0.000526415
0.00602686
0.00270564
0.00597105
0.00594057
0.0022114
0.00293111
0.00554438
0.00586998
0.0265722
0.0221796
0.00550637
0.0161924
0.0201281
0.00453358
0.0120403
0.016054
0.0241954
0.00578144
0.00138104
0.00566632
0.00163101
0.0153039
0.00605949
0.00163697
0.00601155
0.00149321
0.00225356
0.0192341
0.00230519
0.00539214
0.0114256
0.00285514
0.00147227
0.00228709
0.00605306
0.000532355
0.0140332
0.00491508
0.00160233
0.00928986
0.0035364
0.0059285
0.00596858
0.00209774
0.00962903
0.0120194
0.0206575
0.00594624
0.00175721
0.0058678
0.0138493
0.0188956
0.00516647
0.014625
0.00774724
0.00590429
0.0106484
0.00532019
0.00596412
0.00341464
0.00212199
0.000382296
0.000448831
0.0208166
0.0123772
0.00179161
0.00514419
0.00375337
0.0173251
0.0031716
0.00600909
0.0154315
0.00524054
0.00775532
0.00586832
0.00591295
0.00615675
0.0234873
0.00588635
0.0123329
0.00238668
0.00147668
0.00188115
0.0223425
0.0063652
0.0250279
0.0102519
0.0196153
0.0199161
0.00148208
0.00586665
0.00217742
0.00370465
0.0111442
0.00365964
0.0058785
0.00591537
0.00727542
0.00127034
0.00228064
0.00179144
0.0060331
0.00585864
0.00120116
0.00600013
0.00475144
0.00585556
0.0223656
0.00613958
0.00605
0.00919691
0.00194359
0.00193345
0.00586945
0.024033
0.00165276
0.00538289
0.00272562
0.0109491
0.0127999
0.00601527
0.0060926
0.00612878
0.00375607
0.00727457
0.00567552
0.00745138
0.00589764
0.00173081
0.00529298
0.0201386
0.0121026
0.0221794
0.00376228
0.00591538
0.00399018
0.00376952
0.0210587
0.00122891
0.00660792
0.00598275
0.0194119
0.00763451
0.00601138
0.00538927
0.00161014
0.0121324
0.00602806
0.00538936
0.006517
0.00599669
0.00342994
0.00418233
0.00806704
0.00581888
0.00304538
0.00591074
0.00751354
0.0069577
0.00773995
0.00220242
0.0270762
0.0210553
0.00604648
0.00129951
0.00466867
0.00605631
0.0178302
0.00128079
0.00193068
0.0059674
0.0235436
0.00568085
0.00263284
0.00269159
0.00602725
0.00163013
0.00144444
0.0150395
0.020517
0.00601645
0.00226097
0.00295787
0.0041961
0.0133509
0.00603713
0.00345503
0.0153384
0.0167161
0.00776814
0.0157699
0.00182145
0.0240085
0.00570454
0.0189244
0.00251108
0.00205383
0.00169377
0.00585367
0.0143778
0.02183
0.00355346
0.014446
0.017952
0.00309357
0.00541895
0.0157485
0.0117418
0.0203043
0.00798408
0.0181418
0.00120895
0.00103333
0.00236488
0.00603496
0.00779652
0.00531688
0.00606045
0.0158905
0.00367176
0.00191451
0.00602428
0.00745859
0.0201085
0.0042317
0.00494663
0.00886203
0.00569299
0.0106733
0.0195011
0.0229406
0.00376056
0.00476018
0.00487555
0.00129774
0.00563581
0.00676685
0.00232147
0.00168269
0.00790795
0.00278769
0.00497104
0.0152983
0.00601091
0.00588505
0.00320474
0.00141449
0.0044807
0.0196882
0.00584642
0.02255
0.00562515
0.00484446
0.00486579
0.00427622
0.00606258
0.001089
0.0196733
0.0057036
0.00605072
0.0223018
0.00222584
0.00595031
0.00352955
0.00330383
0.00181601
0.0214529
0.00134293
0.0071457
0.0188941
0.00140554
0.0261854
0.00594317
0.00421555
0.00187929
0.0171838
0.0137298
0.00166554
0.00605739
0.00137111
0.00370986
0.0120383
0.0204386
0.00820025
0.00289497
0.0148646
0.0143493
0.00603946
0.00836127
0.000407818
0.00593746
0.00598965
0.00347683
0.00600391
0.00135888
0.00592535
0.00216136
0.0016303
0.00601703
0.00602865
0.00141885
0.00888456
0.00598173
0.0201865
0.0202377
0.00138299
0.0173587
0.00811255
0.00596982
0.00842703
0.00304422
0.0060643
0.0108613
0.00459287
0.00170361
0.00378145
0.00589965
0.00597352
0.0201642
0.00545926
0.0158515
0.00366129
0.00359261
0.00597971
0.00168035
0.0136606
0.0113456
0.00602487
0.0040472
0.0146165
0.0036131
0.00315268
0.0146344
0.00149566
0.00586044
0.00610408
0.0183479
0.00283571
0.00599981
0.00590143
0.00604161
0.00256673
0.00596708
0.00215307
0.00585089
0.00591908
0.0055257
0.00585713
0.011386
0.0171586
0.00409
0.00121811
0.0224815
0.0203737
0.00157238
0.0271656
0.00804197
0.00597894
0.0193816
0.00605433
0.0202298
0.00587336
0.00190593
0.00591398
0.00506177
0.00351748
0.00352979
0.00588034
0.0205999
0.00568606
0.00192698
0.00240693
0.00522675
0.0021169
0.0020698
0.0113146
0.00550297
0.000119043
0.0207796
0.0249016
0.0043506
0.0173523
0.00585991
0.00584965
0.0175477
0.00929584
0.0013948
0.0212295
0.00147295
0.00476248
0.0184757
0.0075936
0.0036283
0.0213413
0.00246678
0.00738297
0.00594374
0.00779623
0.00601011
0.00345371
0.00184368
0.024245
0.00359612
0.0210709
0.00573609
0.00589965
0.0209025
0.0131359
0.0123376
0.0237195
0.00133755
0.018429
0.00140021
0.00586027
0.00755425
0.00599033
0.00823008
0.00665347
0.00943813
0.00111998
0.00163181
0.00124345
0.00141244
0.017462
0.00604943
0.0195587
0.0197254
0.00601321
0.00559892
0.00168093
0.00455476
0.00592204
0.00553167
0.00462428
0.0048655
0.00127356
0.0130555
0.00589405
0.00203875
0.00402369
0.0203162
0.0126361
0.000584417
0.0190437
0.00672205
0.0011419
0.00602398
0.0214726
0.0181026
0.00600277
0.00440351
0.00959476
0.00810599
0.00591235
0.0197147
0.00601357
0.00597855
0.00596095
0.0217205
0.013257
0.00197004
0.0209542
0.0060459
0.00506454
0.00165475
0.00143298
0.00305466
0.00333926
0.00599443
0.00783967
0.0014576
0.0058703
0.00599731
0.00219913
0.00591683
0.00136347
0.00456395
0.00593332
0.00139284
0.00567848
0.00184166
0.0123881
0.0118151
0.0177728
0.0205067
0.00601284
0.00450365
0.0104293
0.0202692
0.0198213
0.0121288
0.0060076
0.0132847
0.00169275
0.00350889
0.00511206
0.00170711
0.0183188
0.00564316
0.00106053
0.00553637
0.0208556
0.00589393
0.00194786
0.00596895
0.0179979
0.020474
0.00607055
0.00575929
0.00366904
0.00588504
0.0166616
0.0203221
0.0206286
0.0161284
0.0151328
0.00592168
0.00409318
0.00258787
0.00157053
0.0170842
0.00579126
0.0214796
0.0189289
0.0043995
0.00226604
0.00397909
0.00634249
0.00186224
0.00586324
0.00594364
0.0134838
0.00588747
0.00488276
0.00596054
0.00602751
0.00601379
0.00072835
0.0132184
0.00136587
0.00274371
0.00587949
0.00345885
0.00162727
0.00864024
0.00219859
0.00222324
0.00178947
0.00207107
0.00587812
0.00180486
0.00786832
0.0185518
0.0185187
0.00344845
0.00186447
0.00606355
0.00186166
0.00159419
0.0266769
0.00141828
0.0252779
0.00590082
0.00293301
0.00189947
0.0058979
0.0125967
0.00192091
0.00589332
0.00589373
0.00190703
0.00823775
0.00600586
0.00590934
0.0208403
0.0181169
0.00566316
0.00180266
0.0199937
0.00206124
0.0113682
0.0178368
0.0200275
0.0151919
0.00166531
0.00140701
0.0110168
0.00471649
0.0174413
0.0105307
0.0211567
0.0192866
0.00490747
0.0193555
0.0090721
0.00492411
0.00360893
0.0178951
0.000985008
0.0173449
0.00946399
0.00386045
0.0197736
0.0061297
0.0181376
0.0061695
0.00595026
0.00197858
0.0184264
0.00590773
0.00412966
0.00184962
0.0123732
0.0186989
0.00193945
0.00655481
0.00391716
0.00585391
0.00615116
0.00599842
0.00191125
0.00239114
0.00595186
0.00137679
0.0018561
0.00359338
0.0187432
0.0188167
0.0190035
0.00589084
0.00137
0.00443428
0.00939293
0.00185243
0.00510469
0.00311267
0.021866
0.00158128
0.00189344
0.00165148
0.00494381
0.00182078
0.00341046
0.00177507
0.0113426
0.00592549
0.00348533
0.00610754
0.00925818
0.00705164
0.0199953
0.00602583
0.0065557
0.00585831
0.00600629
0.00371655
0.00591973
0.00595424
0.000995373
0.0139516
0.00144283
0.00194931
0.0183928
0.0192057
0.0199964
0.0245359
0.00166902
0.00436212
0.00162495
0.00568274
0.00141712
0.0011544
0.000228593
0.00129562
0.00139427
0.0192714
0.00595525
0.00953998
0.00585876
0.00419352
0.00387066
0.00561509
0.00606814
0.00765149
0.0190726
0.00160026
0.00596407
0.0204185
0.008019
0.0182145
0.00180782
0.00523428
0.00365092
0.0149348
0.0013778
0.00584145
0.0200279
0.00162281
0.00191452
0.00195097
0.0176582
0.00747082
0.0194086
0.00601936
0.00431876
0.00157067
0.00613981
0.00249609
0.00310879
0.00135607
0.00171761
0.00849812
0.0195815
0.00407615
0.00743535
0.0197196
0.00212587
0.00191966
0.00149713
0.00169087
0.0170048
0.003307
0.0013168
0.022644
0.00571998
0.0136377
0.00589063
0.0185804
0.0132997
0.00293558
0.00662015
0.00157052
0.00356475
0.0013972
0.0147213
0.0226386
0.00261881
0.0252562
0.00432037
0.00221634
0.018549
0.0199952
0.00596885
0.00709778
0.0148838
0.00161527
0.00544513
0.00144934
0.0199274
0.00120859
0.00274191
0.0135769
0.0107968
0.0105852
0.00592805
0.00256202
0.00135492
0.024825
0.00155297
0.0227966
0.0148762
0.00134164
0.00605939
0.00591522
0.0208818
0.00602891
0.0023254
0.00163131
0.00352899
0.0160058
0.0185553
0.0107011
0.00373994
0.00133923
0.00156185
0.00320352
0.0179159
0.00316621
0.0218019
0.00565146
0.00981539
0.0159718
0.00236699
0.0201404
0.00595956
0.0242018
0.0026046
0.0140449
0.00604723
0.0017059
0.00287599
0.00186293
0.0204206
0.0153597
0.0203789
0.018605
0.00589773
0.00500779
0.00364602
0.00846072
0.0023139
0.0196104
0.00585894
0.0196521
0.00779332
0.00204233
0.0167897
0.0192817
0.00520332
0.0119045
0.00188996
0.00552468
0.005853
0.00120573
0.00150479
0.0198853
0.00589093
0.014537
0.00600584
0.00258851
0.0214399
0.00146386
0.00757654
0.0134038
0.00418061
0.00329142
0.00829013
0.00590427
0.00586479
0.00598225
0.00142627
0.00224312
0.0202248
0.00111333
0.00751401
0.00590415
0.0206325
0.00396519
0.0112404
0.00757861
0.00138542
0.0184343
0.018082
0.00244257
0.0188582
0.0207157
0.00155886
0.00179125
0.00297504
0.00601304
0.00607258
0.00383034
0.00132399
0.00216574
0.00175088
0.0124326
0.001654
0.00213952
0.00858161
0.00585485
0.00285589
0.00802844
0.0207979
0.0127997
0.00890951
0.00393115
0.00556591
0.00545693
0.0183554
0.00447914
0.0253053
0.00599386
0.00597502
0.00122381
0.00584694
0.00132579
0.0017848
0.00236424
0.0019172
0.0145796
0.0146563
0.0210147
0.0192532
0.00585835
0.0136931
0.00158274
0.0020093
0.00181412
0.0176922
0.00131464
0.00946026
0.0180194
0.00130995
0.00155984
0.0203175
0.00600407
0.0215222
0.0183225
0.00371592
0.00575457
0.0235283
0.00262365
0.00595837
0.00158514
0.00176915
0.0248536
0.00576915
0.00973419
0.0203379
0.00600125
0.00589699
0.0243847
0.0022832
0.0133955
0.00300841
0.00591943
0.00402147
0.00158327
0.0211615
0.00178059
0.0137158
0.00380724
0.0208644
0.00156669
0.00599754
0.00968136
0.00590283