/*--------------------------------*- C++ -*----------------------------------*\
| =========                 |                                                 |
| \\      /  F ield         | OpenFOAM: The Open Source CFD Toolbox           |
|  \\    /   O peration     | Version:  v2012                                 |
|   \\  /    A nd           | Website:  www.openfoam.com                      |
|    \\/     M anipulation  |                                                 |
\*---------------------------------------------------------------------------*/
FoamFile
{
    version     2.0;
    format      ascii;
    class       volScalarField;
    location    "300";
    object      omega_0;
}
// * * * * * * * * * * * * * * * * * * * * * * * * * * * * * * * * * * * * * //

dimensions      [0 0 -1 0 0 0 0];


internalField   nonuniform List<scalar> 
14804
(
0.0225285
0.0240333
2.55701
0.0235764
0.0376923
0.0293792
3.75081
0.0441377
0.0272227
0.0232035
0.0439665
1.45097
0.229335
1.33236
2.28823
0.0272846
5.91596
1.33796
0.0273234
0.0225118
0.0239475
0.0376967
0.0421664
0.0280252
0.744428
3.74042
5.07225
0.0245964
2.30178
2.02389
1.55937
5.89392
0.0322541
0.044209
3.19541
0.0236351
0.0241361
0.0278304
0.190995
0.022431
0.243757
0.204315
0.148044
0.0268995
1.33776
1.58563
0.248417
0.023575
0.0915679
0.0239195
0.024845
0.0263294
0.0246042
0.0439847
0.0325856
0.0245613
5.14913
4.51475
0.967258
0.242398
4.49832
3.16112
0.022474
0.0239537
0.0281921
1.41765
0.458963
0.028813
0.0233153
0.0290118
0.0303665
0.0282526
0.0280998
0.0610225
2.51729
0.0248295
0.0253466
0.0802829
0.0222646
0.0754956
0.0711712
0.0377315
0.0609415
2.19862
0.0269828
0.0254073
0.0256881
0.0238478
0.037367
0.0371077
1.92745
0.0238183
0.0224317
0.0246003
0.0236049
2.12403
0.0257302
1.36472
0.0306102
0.0377808
1.57057
2.27676
0.191026
0.0283858
0.11983
0.734183
0.0288784
0.0261069
0.0308012
2.62014
0.0258663
0.0289828
3.00432
0.0540153
0.0335429
2.7135
0.353754
0.161332
0.0276255
0.0230629
2.55038
0.116813
0.0245944
0.0639871
0.027661
0.0561705
0.0248186
0.0248955
0.0428577
2.03163
0.022856
2.12361
0.0267396
1.44321
0.0245097
1.86961
0.575411
0.0342635
2.55671
1.07298
0.0241497
0.0261145
0.0334919
0.0270246
0.29097
0.027082
0.17792
0.187283
2.27908
0.0290383
0.457613
0.0228787
0.185052
0.373789
0.0225645
0.0228785
0.74897
0.0287198
0.0254711
2.22073
0.0246657
0.0235711
0.0250053
0.0264903
0.0337749
1.59112
0.0252591
0.0236328
0.0699736
0.0286258
0.0246594
0.0279494
2.43227
0.0272484
0.538823
2.24671
1.04922
1.45931
2.43983
0.124804
0.0244815
0.0884676
0.0249432
0.977229
0.0237813
2.63133
1.89764
2.27899
1.40285
0.0257631
0.0254191
3.06418
1.70412
0.690113
1.7928
1.41714
1.98745
2.31124
0.0249266
2.08899
0.0249005
0.024956
0.0236462
2.98183
0.0298209
0.115016
1.50474
0.755133
0.062745
0.02458
0.0261601
2.65863
0.0257665
0.0235942
2.1336
0.0246854
0.236669
0.0247015
0.200686
0.750999
0.057928
1.29574
0.0260183
0.101774
2.61338
0.113922
2.28282
0.0246169
0.471645
1.02977
0.0821346
1.78443
0.0249785
0.0246092
1.20523
0.0253781
2.83744
1.99669
0.0254116
1.06667
3.15655
0.0798266
1.54014
2.35983
0.0266032
0.0239791
0.0655586
4.43138
0.0396234
0.0292593
2.8433
2.25189
0.0243901
0.0292033
0.0262219
0.217138
2.25543
2.97075
2.10566
2.3792
0.0295366
0.748114
0.0252074
0.0445749
0.025363
3.91891
0.0243922
0.266082
2.60223
0.0224591
0.0245968
0.200345
0.188419
3.48117
0.0848667
1.27021
0.025609
0.0873718
0.0224362
1.25846
0.024408
2.63329
0.0249416
0.0570742
0.0254077
2.30986
0.0280367
3.59144
0.0247437
2.30647
5.41261
0.0877956
0.153415
3.12173
0.0278245
0.033867
2.99954
0.0249051
0.035916
0.0238131
0.0260261
0.0653132
0.0247401
0.0827692
0.0258621
1.47664
0.427183
0.0245766
1.93578
0.0615041
0.0259859
0.0247008
2.87044
0.0236155
1.48117
0.0256283
0.0651599
0.0248939
0.19913
0.0254075
0.0259627
0.0268065
2.79038
1.35542
0.0246107
0.0237918
0.0585894
2.74036
3.05497
0.063842
0.0906591
0.0244292
0.0248936
4.76647
0.0269238
2.33532
0.0858095
5.66211
2.60044
2.33761
2.2775
0.174809
2.24109
2.71783
0.0255459
0.0252868
1.96331
1.73586
0.0250634
0.0283015
0.0579801
0.0228862
0.0236399
1.56163
0.0243488
0.0255068
1.6281
0.0274648
1.39931
0.0249102
0.0711309
0.0243534
2.17926
2.44754
4.49342
0.0677434
0.0248877
1.80958
2.413
0.0692091
0.0254603
2.21884
0.024679
0.891195
0.037067
2.67997
2.61567
0.0554881
0.0242808
0.106604
0.0253141
0.0462527
2.38873
0.0290965
0.0246016
0.0233433
0.0236215
0.0243345
2.53906
0.0262111
2.6776
0.0565383
0.0397688
0.0253725
0.0246016
2.3514
0.302293
0.049057
0.343862
0.118455
0.0344752
0.0642635
2.28391
3.02772
0.207982
0.0396639
0.130263
0.024089
0.055342
0.023845
0.0247073
0.0850071
5.61369
2.26627
0.443149
0.0243606
1.19227
0.0246615
0.030576
0.034647
1.47682
0.0282763
0.143941
1.835
0.0277673
0.0246169
0.179382
1.17736
0.084254
0.0273605
0.0249865
0.0230728
0.870228
2.07734
0.0267607
1.85496
0.0940617
1.18165
0.0245971
2.9515
2.31618
0.0254931
0.132706
0.0260778
0.0524261
0.0824297
1.28736
0.0282533
0.0249525
1.46796
0.183159
1.18993
2.84829
0.26946
2.24466
0.0244687
1.31166
0.0235329
0.163405
0.0530015
0.0338678
0.0643412
0.0294095
1.54235
0.0246025
2.63894
0.0544087
0.0545294
2.19112
0.0255724
0.0246175
0.0235696
2.30328
3.22354
2.3257
0.0857278
0.0231092
0.196209
0.0250561
0.116318
0.0280901
2.33407
2.07349
0.177617
2.57771
0.0608625
1.83689
0.0264978
2.46753
2.31176
3.0086
2.31618
0.169018
0.935158
2.49804
0.0239246
0.0238512
0.603613
0.0237914
0.0371216
0.0471531
0.0280792
0.0249903
2.37786
0.0292193
0.0547381
0.170825
0.0291242
0.0231173
3.0187
0.09416
2.9825
0.867459
0.0280575
0.0861619
1.18662
2.22641
3.03154
0.0244262
0.0545747
0.0252103
0.127202
2.09036
2.18634
2.27185
2.23192
0.178137
4.05437
2.44571
0.9178
0.258553
0.0228717
2.2739
1.48843
0.979697
0.0259557
0.264521
0.0285542
0.299406
3.07886
0.0269657
1.63268
0.0259975
0.062761
0.0241812
0.0292553
0.584241
0.0241786
0.0278841
0.0271296
0.027026
0.024499
0.0244285
0.0236604
0.119748
0.023307
1.48668
1.18128
0.0265193
2.34401
0.026042
4.36529
0.0241928
1.20431
0.0256427
1.46866
0.0239026
0.456886
2.20949
0.0250984
0.0404377
0.443488
2.87521
3.08844
0.0425397
0.0581961
1.51892
2.42867
0.0461929
0.0232224
2.18458
0.0226745
0.118764
0.911585
2.33492
2.33018
0.0247747
0.0256237
0.0231785
0.0261997
0.0508333
0.0267027
0.441964
1.66337
0.728666
2.38454
6.69653
6.06849
0.120019
0.0281082
1.92903
2.94405
0.0241895
0.0855713
4.79034
1.32533
0.029179
1.03025
0.0284952
0.0617654
2.92809
0.024518
1.96174
2.79621
1.81533
5.45351
0.233742
0.0245792
2.43223
0.0229206
0.0842972
0.172893
0.274445
1.17513
0.0299334
0.0293561
0.696989
0.0308171
0.0851114
0.0276857
0.0226912
0.0223817
4.55865
0.0256275
0.0279605
0.0222775
0.185992
0.9239
0.0838477
0.0341013
0.68125
0.513642
0.0253067
0.0800605
0.0238464
0.0250116
0.0266467
0.0224333
0.0244073
0.0835392
1.32162
2.62159
0.0265841
0.0242232
0.258469
1.36452
0.765882
0.141885
0.0855342
0.112328
1.02776
0.0249383
2.48963
0.0254986
0.103201
2.87402
2.96071
3.09098
0.0482418
0.0223662
2.06242
0.0608429
0.0255572
0.0650515
0.0679603
0.0268821
0.744259
0.0324384
1.23519
2.36629
0.022375
0.141445
1.93652
2.92247
0.049427
0.0258343
2.01627
0.0243371
0.0249597
0.041149
0.0234106
2.17732
3.56515
0.0287987
0.0500622
0.0259783
0.0294317
0.441604
0.0826876
2.11546
0.0242804
1.89999
0.0232236
0.0255222
2.78962
4.36157
5.11698
2.87177
0.026447
2.82084
0.0241807
0.135363
2.39621
2.30456
1.55333
0.349199
0.024358
0.0253919
0.189243
1.74963
0.680379
0.0306245
0.0247832
0.0845639
1.94652
1.32326
0.0271461
0.0270498
0.0241244
0.692055
5.79965
0.605557
0.427751
0.0786351
1.4597
0.0244508
0.0260431
0.0247152
1.93363
0.100696
0.0511146
0.748393
0.0242112
0.0302759
5.8324
0.0447113
2.67849
0.0243205
0.0231906
0.0224672
0.0466676
0.102888
0.616855
0.0824799
2.56147
0.0626457
1.62641
0.0268273
2.94685
0.0251558
0.0565765
0.0248909
1.5588
1.95648
5.12106
2.38099
0.02527
0.0243979
2.26257
0.462452
1.3599
1.54555
0.0259038
0.0246166
1.84316
0.0485402
0.0585185
0.0253645
5.95959
0.234072
2.59059
0.02387
0.0291011
2.19871
0.0552868
2.27966
2.21058
0.0352076
0.0248634
2.19628
0.338928
0.0577017
0.0252153
0.0297305
0.0244252
0.115175
2.00192
0.685062
0.0246973
0.024637
2.17748
0.024554
0.0245726
1.92368
0.0222569
0.0305172
0.0246829
0.186177
0.0247038
0.0666959
2.76956
0.0242647
2.57495
0.0270633
2.65854
0.0243084
0.0255154
2.29293
0.700292
2.81008
0.031425
1.1863
0.0275663
0.0249501
2.87595
0.0235434
0.0247135
0.0247205
0.0247138
2.79141
0.0255769
0.0269098
0.311276
0.0229423
2.72552
0.028049
1.6034
0.0235579
0.097564
2.21488
2.38393
0.434887
0.0252583
2.19224
1.76346
2.37645
0.0238378
0.0531667
0.0318554
0.0247892
0.0247278
0.0241983
2.1391
2.76432
0.0313692
0.0835732
0.0253733
0.0633002
1.32971
0.374208
0.0267789
0.0294475
1.51719
2.60634
0.0236916
0.0238506
2.64995
0.0478216
2.41597
2.64359
0.0480213
0.0300643
0.0257101
0.469781
0.0238198
0.0252145
0.0568191
2.21039
0.0241152
0.0246662
0.0240128
0.0234609
0.0729161
0.0237905
0.0246371
2.12537
1.74334
0.699946
0.430668
4.18247
0.0241795
0.0377716
2.28762
0.028225
0.026315
1.9133
0.0248818
0.160655
2.7535
0.0445446
0.0236904
0.0244311
0.0434068
0.0263113
0.150285
0.0451249
0.0304521
0.417814
0.655605
0.0654176
0.0759104
0.0237103
3.0653
0.155423
0.0419041
2.32879
1.65171
0.0241927
0.0849837
4.53517
0.0245827
0.030117
0.0289793
0.0261088
2.41245
3.02521
0.0674764
0.0360552
0.0240112
0.0253104
0.0239611
0.026345
0.0267002
0.0256987
1.04919
1.18466
0.0276406
1.68254
1.12205
1.9952
0.0450696
0.0270203
1.68556
2.7026
1.36945
0.436038
0.0282579
0.106501
2.044
0.0341553
0.0260199
0.0261271
0.025762
2.9416
0.0616674
0.0282652
0.0467778
1.53345
2.23039
0.0268989
0.0636153
2.43547
0.0246863
0.0244214
0.0490218
0.0281608
0.0258661
0.0272663
2.5196
0.0293736
1.2476
2.41001
0.0536835
0.183499
0.183657
0.542701
0.0233778
0.0259299
0.0353863
1.58876
0.0245841
2.63942
2.14419
1.07438
0.0246098
0.202748
3.0396
0.101399
0.0568304
0.0374267
0.059768
0.0312997
1.84925
2.7079
0.0261272
0.133411
0.0253624
0.0283518
1.88642
0.11239
0.0243589
1.51381
0.222106
0.024204
0.556519
2.3471
1.98726
0.0249126
0.0539387
0.0613608
0.0250169
2.15962
0.0243273
0.125441
0.0316865
2.64258
0.0236763
0.044382
0.115669
0.0242932
3.11564
1.28145
2.52416
0.120847
0.0552523
2.50009
2.68803
0.0235297
0.0267816
0.0258261
0.0245872
0.121248
0.0315854
0.0251649
2.34655
0.114929
0.0244444
0.0246469
0.0318646
0.169273
0.0237081
0.0246162
0.0265998
0.0246396
0.270848
0.190065
0.117728
0.115878
2.84621
1.18083
1.51925
0.493469
0.0261095
0.115425
2.82354
1.5241
0.0223882
0.0235676
0.0245983
1.23078
2.35586
0.0272024
1.38848
0.0246733
0.0267575
0.0395921
2.14041
0.172295
0.0237207
0.0288027
0.0246179
0.0242286
0.0828232
0.0232883
0.0335494
0.0224139
2.54158
0.0269927
0.033684
0.0273686
2.02146
2.99835
0.0243298
0.0252208
0.0840845
0.0224379
0.850168
0.166734
0.0463006
0.0242789
0.0722245
0.0256951
0.285189
0.0256146
2.46616
2.2372
0.0527006
2.86197
2.10025
0.0232312
0.157468
2.88367
0.922478
0.162273
0.0292778
1.91888
2.24601
2.88549
0.0248884
0.0274153
0.0377786
0.120859
0.155076
0.0292702
2.88128
0.0378795
0.026482
0.0300905
2.42211
0.0728164
2.4751
1.82882
2.57007
0.200003
0.03013
0.0240618
2.58588
3.80383
2.70287
0.113931
0.0225909
2.62193
0.0224216
0.0280799
1.3115
0.0251359
3.02683
0.0243626
0.0245327
0.0233111
0.0269077
0.0259837
0.756809
0.0252599
3.09333
0.431673
0.0225273
0.0504778
2.47492
1.77516
0.024657
0.0268749
0.0236545
3.11284
0.0238682
1.48405
0.0321254
0.0239694
2.46103
2.87763
2.07184
0.149303
0.0627581
0.0248951
1.71791
1.35293
1.95879
0.0254093
2.31719
0.028112
0.0256669
0.026143
0.0288751
2.55629
0.0820146
0.200134
0.0466388
0.539297
2.19619
2.92648
0.037021
0.0293703
0.5253
0.0249407
0.195293
0.0259684
0.057057
1.75393
0.0223664
0.0464982
0.432639
1.8115
0.0365858
0.0266811
0.022555
0.0255352
1.00362
0.0724527
2.4261
0.0786387
1.81682
2.58166
2.97094
2.74152
0.441735
0.0749697
2.18234
0.540913
1.96948
0.0654911
0.0296828
2.005
0.0513419
1.50203
1.91833
0.442232
0.0245908
2.36141
3.27359
2.48954
1.79589
0.0304873
0.0238134
0.0238203
1.89399
0.0250022
0.0241857
0.0238633
0.0274561
0.0241137
1.46652
0.188109
2.11263
0.0248339
0.989052
0.0264697
3.21527
0.0236449
2.92586
1.77911
0.0248803
0.333227
0.0226205
2.27495
2.70135
0.050501
0.0262085
0.0237408
0.0265967
0.10139
0.0823741
0.0298814
5.41983
0.0657732
0.192328
0.0703381
0.581538
1.58078
0.0446235
0.253328
2.74147
0.0609104
0.0406421
0.0249347
2.228
0.0253352
0.444804
0.0644039
0.0246373
0.0246042
0.0240206
2.75541
0.0675045
2.2002
2.55249
0.0224934
2.63632
2.21882
0.0298722
0.988627
0.0237515
0.0250097
0.0247008
0.0458296
0.148229
1.15376
6.24176
0.0259864
0.152908
2.14604
0.0237551
2.35229
0.104176
1.96361
0.0445563
1.22815
0.118248
0.0803457
0.0237165
0.0255098
2.29145
0.158362
0.032062
0.326598
3.05432
0.0227447
2.74006
0.026323
0.026704
0.0245616
0.0246272
0.0244053
0.026383
2.91336
2.23506
2.29159
0.036649
0.13223
2.12528
0.0275994
2.27623
2.50321
4.43882
0.0247279
0.163
0.0237719
2.41485
2.47725
0.0617301
2.60794
2.962
0.116531
2.13569
0.0227125
0.0249215
3.48657
1.14189
0.025462
1.97547
2.93368
1.91522
0.0240402
0.167966
3.12414
2.17404
0.0225237
2.54171
0.0247433
0.0249081
1.49316
1.18289
0.0246598
0.0283414
0.181179
2.51808
0.0248206
0.0304957
0.0225019
1.14579
0.0283357
0.0926795
0.0243135
0.0294062
2.50073
0.0249511
1.12752
0.0748657
0.0285527
2.24042
2.14046
1.71728
0.0226019
0.0272617
1.81028
2.41385
1.25357
0.116743
0.024408
0.0260296
0.084751
0.023791
2.49662
2.23611
0.0231764
1.82411
0.0245996
1.03858
2.38633
0.156006
2.11625
0.245101
2.20036
2.65434
0.0303318
0.0686795
0.0253335
0.687246
0.251631
0.0281976
0.0237531
0.0248693
0.0974634
2.21559
2.98793
2.90432
0.0234846
0.0223956
2.97042
0.0599657
0.0251989
0.0265551
3.0823
1.67441
0.0258869
0.0278387
0.0238829
0.0799951
0.0268108
0.024562
0.024972
0.0246335
1.89418
2.49721
2.26782
2.51548
0.114521
0.0244602
0.0240659
0.0848901
0.155482
0.668112
0.0679353
1.23769
0.720206
0.0269866
0.0242514
0.0245902
0.0246578
0.158182
0.588185
2.25415
0.116001
0.0847849
0.0792185
2.44196
1.23257
0.684564
0.0328017
0.0226194
0.025187
0.0251219
0.0671866
2.15446
0.0445171
0.0392278
0.0249053
0.0271
0.167996
0.0283269
0.333161
0.0249121
0.0565916
2.65637
1.03817
0.0624552
1.86602
2.31485
0.0245798
5.05356
3.23338
1.17869
0.02458
0.088197
0.0244471
2.45753
0.0291161
3.09107
0.0261149
1.83293
3.04631
0.023413
0.056861
0.211317
1.55948
1.38169
0.0534153
2.1569
0.023899
2.15435
0.203556
0.0264754
0.0362227
0.0432426
2.26149
1.25797
0.0636908
2.11982
0.024865
0.0254423
0.0234071
0.0297205
0.0367715
0.334527
0.0272632
1.64978
2.80884
2.2476
2.85429
0.106808
2.89188
0.116152
0.0436681
0.0254451
0.0245222
0.0943166
0.174912
2.25023
0.0247011
0.0252475
0.0225624
0.025457
0.0243496
0.197131
0.41239
0.0235707
0.0243786
0.0242479
0.112541
2.61212
0.0227373
2.89972
0.0237271
2.53826
2.0713
0.192073
0.285061
2.74787
0.655146
1.06964
1.64084
0.0288883
0.0276454
0.659514
0.0547812
0.0243999
0.537007
1.59455
0.11548
0.0262528
0.0225211
0.0256156
2.41352
2.6616
0.167419
2.87054
3.44365
0.143294
2.00294
3.39664
1.76796
0.0528028
0.0246555
0.0237552
0.0336383
0.0278973
0.235593
1.6132
0.024509
0.165062
2.59058
0.028121
0.0430691
0.0266015
0.0322369
0.389687
2.21777
0.0583858
0.0779835
0.031439
0.026478
0.108415
1.1761
0.0434998
0.124402
0.026276
0.0598833
0.0295494
0.0261475
0.023401
0.0528352
0.0248985
0.0424073
0.167051
1.73127
0.0271697
5.00015
0.0255353
1.54593
0.421026
0.113414
0.0247436
0.188346
0.0237934
0.0794748
0.421217
2.00951
0.104124
1.788
0.0236508
2.82509
0.797917
0.0289299
0.0423558
2.28065
0.217906
0.0245628
0.0259507
0.0257161
0.512581
3.12031
0.0251195
2.7458
0.0577385
0.0254738
0.0246331
3.18161
4.16036
0.0244474
1.97982
5.49243
0.571037
0.025783
0.0231051
0.627993
2.61358
0.169566
0.0410391
0.0511941
3.0844
0.206755
0.0861241
0.0351755
0.122723
0.0428166
1.43066
0.0233914
0.0298688
1.81118
0.0243957
2.10182
0.0449642
0.0245672
0.0245201
3.0968
0.0354759
0.0251856
0.0300905
0.0287045
2.03333
2.52653
4.42867
0.0528209
1.04583
0.0580145
0.0242319
1.36097
0.0488145
0.0302178
1.63
0.0243352
0.0223535
0.0345797
0.0253234
1.01521
1.74784
0.028258
1.34527
0.0277684
0.0310197
6.11548
0.0478765
0.27845
0.0526929
0.024402
0.0268924
0.0878162
0.0345691
0.0511604
0.118551
0.0637472
0.0364668
0.690661
0.381214
0.0273883
0.049197
0.134094
0.111221
0.0262016
3.33294
0.0882994
0.0413628
0.690261
2.48825
3.00011
2.2058
0.0348638
1.81341
0.158373
0.117281
2.45633
0.0250998
0.0386326
2.6815
0.0799821
0.418222
0.131656
0.034144
1.36208
3.07604
1.26113
0.0514683
0.166268
0.0271971
0.582582
3.15539
2.04646
0.025444
0.0513284
0.177477
0.0385268
0.0793506
0.117864
0.0432275
0.0488715
0.0463813
1.54337
1.88776
0.0380307
0.0643629
2.4597
1.77295
0.0304339
0.0356832
0.0913672
1.61712
0.0264323
2.16077
0.0261511
0.0245792
0.0238068
0.0258097
0.128572
0.0244001
0.0224906
0.0313346
0.0232805
0.0247356
0.75267
0.0324027
3.41634
1.5613
0.0401856
0.0633282
0.0864193
0.0266352
0.024578
0.0243674
1.94286
0.0581732
0.0232665
0.0244901
0.0279949
0.0468816
0.0379316
0.700966
0.0471762
0.0235857
0.0433511
0.600028
0.0281869
0.0253171
0.0307785
2.66957
2.61373
0.0360698
0.359472
0.0818358
2.72802
0.151693
2.24078
0.0243396
3.76334
0.0263016
0.0241729
0.0247836
0.0601424
0.049318
0.0244926
0.038105
0.0243775
0.185118
0.0935529
0.0253069
0.0257467
0.0505455
1.41685
0.0244904
2.41893
0.0265449
2.10884
0.0238277
0.0238325
0.22085
0.0257844
0.0316464
0.0242018
0.0245609
1.60149
0.065264
0.0294935
0.0232965
1.43285
0.870906
0.0286362
1.89131
2.0501
0.0369143
2.44637
2.03523
1.46792
0.0253645
0.109534
0.028469
0.109086
2.25851
0.0245852
0.138174
0.0249455
0.109187
0.0297709
0.316821
0.0314212
0.0304158
2.51881
1.42377
0.153709
0.0888814
0.0247648
0.379823
2.40312
0.0316824
0.130045
1.54749
0.145515
0.0242115
0.0249226
0.0984195
2.36746
2.42286
1.54886
0.0245882
0.107793
0.02468
2.80555
1.62387
4.37298
1.93505
1.40351
0.0241038
0.285649
0.0311354
0.0248946
1.42852
0.0302806
0.866767
0.301519
1.73443
2.72457
0.0356732
1.3874
1.32355
2.25673
0.027923
0.0240975
2.18566
0.0257563
2.06273
0.0252038
0.0245216
0.0257521
1.1134
0.0227992
2.589
5.43559
0.247506
0.0442146
0.848663
1.13159
1.2228
2.78408
3.0744
2.93241
0.147999
0.0242017
0.0778097
5.35053
2.9776
0.0488823
0.0245573
0.0238046
2.6737
0.182568
0.0337847
0.117608
0.0233962
0.0240428
0.205022
0.0265241
3.16483
0.0244416
2.3298
0.0303995
0.0242936
2.44223
0.0608679
0.108628
0.0243636
1.21192
0.126206
0.0302008
0.0714658
1.69365
2.10537
0.0251691
0.0295197
0.0258755
0.0364549
1.32642
1.49938
1.42101
0.0232838
0.122336
1.54121
2.56037
2.48802
0.619364
3.59509
0.0239168
0.0453496
0.137637
2.23706
0.19542
1.12176
0.0240076
2.73845
1.53305
0.0244236
0.0301556
0.0633773
2.85457
0.0244734
0.0301142
1.29997
0.0226969
5.20314
0.0427642
2.44276
1.15686
1.43648
0.0241317
1.3406
1.13383
1.43254
0.0296017
1.3055
2.1672
0.0234656
0.175066
0.0371728
0.0254735
2.00017
0.179501
0.0347547
0.0262425
1.68691
0.0271458
0.0775199
0.0336311
0.023688
0.131795
0.153095
2.65379
1.82873
0.0228037
0.0361002
0.06342
0.0420509
2.04136
0.0252477
0.0378579
2.48021
1.89905
3.35031
1.92999
0.115242
1.09247
0.0275541
1.71081
0.0796141
0.100907
0.126156
0.024545
2.23907
1.43119
1.58806
2.62459
2.0212
0.0610126
1.43393
2.27641
2.91682
2.03377
1.53871
2.28754
0.201534
0.184907
0.0409173
0.0241961
1.67097
0.0285266
0.0246437
2.27711
0.0357406
0.0920689
0.024578
1.22408
3.05046
1.34148
0.0336423
2.56141
0.0273442
2.56066
2.21578
0.653882
0.0264045
1.39361
0.0350938
0.194979
0.0287722
1.30781
0.0446835
0.0785644
1.84436
0.0272686
0.0308833
2.18057
0.0237538
0.0238862
5.34708
0.156447
0.0358646
1.95084
0.0253122
2.35979
0.0275315
0.0354268
0.0257484
0.0410939
0.0246204
0.181976
1.96989
0.0266697
0.0236681
0.608518
0.0915876
0.0244652
0.052888
0.0281101
0.0779168
1.86194
0.0865398
3.57781
2.32175
0.157797
1.38699
0.0250813
0.0265509
0.111253
1.70813
3.11911
6.78843
0.030327
1.50506
0.0266101
1.96225
0.282581
1.6681
0.0511692
1.87228
2.3509
0.0236132
3.25925
0.239913
0.0242516
0.0250894
5.54424
0.0251122
0.0864172
0.0254758
0.0381192
0.0571423
0.0251424
0.0251736
0.156184
2.92826
0.0250811
2.88835
0.281193
0.161806
2.29007
3.40008
0.0246611
1.81232
0.0613109
0.0243615
2.55638
0.037259
0.0494438
1.26783
0.0248258
0.0239734
0.284126
0.0289436
2.05396
0.0261872
0.0287792
0.0243058
0.132722
2.48213
2.2866
0.0241451
0.267578
3.19218
0.0489547
0.0288811
1.77793
0.14635
0.0239785
1.18209
2.29742
0.0677454
0.0243855
0.0244988
0.0252837
0.0476552
0.0242629
0.0727656
2.92513
0.0241952
1.99592
2.84108
2.85427
2.03742
0.0337131
0.198676
2.99213
0.282497
0.139789
1.37988
2.41677
0.0248073
0.244044
0.0244976
2.04966
0.0243031
0.0540908
0.0248121
0.237548
0.109997
0.0262512
3.64596
1.64357
0.0283937
0.0857535
0.0527189
0.0295888
0.0545699
0.100115
2.21745
0.028617
0.318213
1.70654
1.19709
1.03685
2.31607
0.023999
0.0245322
0.29687
2.46902
0.159466
1.77546
0.149835
0.0329157
0.431682
0.302487
0.050774
0.632404
0.0488331
1.91721
0.0253468
2.64901
0.0252059
0.0542992
0.0540735
1.6536
0.0515511
1.86375
0.0265513
0.0245447
0.363696
2.955
2.56225
1.56556
0.195172
1.87217
0.159272
0.0239791
3.35153
0.0240128
2.47165
1.3833
2.01779
0.190929
0.10518
0.184959
0.157155
2.3197
0.0254741
2.07658
2.02473
0.0252511
1.27272
0.126557
0.0359885
0.0266069
0.0284441
1.58855
0.0343549
0.189115
1.87464
0.0244859
0.10174
0.0449339
2.03702
2.89674
0.32075
2.33608
2.15508
0.192532
0.024868
1.57269
2.12141
0.0253396
0.113826
2.0822
2.01836
0.0232235
1.93398
0.0237961
0.0249019
0.0248345
2.26181
2.38784
0.0731502
2.25654
0.0242172
0.0258838
0.108477
0.154702
5.90341
0.0274542
0.0276749
3.43711
0.151314
0.0248162
0.024056
0.0918704
0.0245454
0.0588564
0.239234
1.4604
0.160307
0.0269926
0.0505581
2.22908
2.04895
2.09838
2.37184
0.0252885
0.0381218
0.429811
1.53604
0.322125
2.77503
0.0265528
2.0735
0.0314739
0.05328
1.5757
0.0846621
2.13546
0.0286201
1.02093
0.0281208
1.90411
0.0240557
0.0924061
0.0239891
2.11433
1.33277
0.0251871
0.0252282
1.3654
0.0242505
2.29545
0.30314
1.02786
1.99725
1.70827
0.0245401
0.0439674
0.0273915
0.0595292
2.19419
3.73675
0.878248
2.22561
0.0400956
0.114081
0.0263222
2.66546
0.0858197
0.0235739
0.0247955
0.523059
0.0239068
1.2144
0.0236165
0.0233378
0.0232059
0.177917
1.90379
0.164675
0.073267
0.0246838
0.0530711
0.131834
2.5596
0.0545932
0.0919701
0.0341548
1.51979
0.0255267
0.0765555
0.341931
2.00583
2.14891
0.107618
0.0705317
0.0253444
0.0657584
0.135375
1.40368
0.156837
1.58637
0.0238594
0.0642702
0.053044
0.0244772
1.82635
0.0838598
0.024516
0.0267656
7.44011
1.83298
0.0258517
0.0246058
1.73567
1.6639
0.0283858
0.116772
1.96975
0.100513
2.82827
2.15959
2.62455
2.20366
7.60227
0.158245
1.91187
0.0357519
0.813719
1.72706
2.51729
2.70399
0.0348448
2.91558
2.6223
0.0318664
0.0608708
2.10633
0.178323
2.13234
1.53008
0.0465749
2.55469
0.03046
2.34344
1.27295
0.0247968
0.070699
2.14217
0.0249416
0.0275134
0.0571149
0.345431
2.16142
0.0493432
2.08965
0.0288703
0.022485
0.0259431
0.0258931
0.0608713
0.0548779
0.024586
0.0599942
0.0934544
1.48278
2.80199
2.169
2.18206
0.0239818
0.163882
0.0388724
0.533196
0.0674527
0.438639
5.51545
2.75737
0.13674
0.0624237
2.12937
1.26618
0.0726385
0.0279525
0.0346526
3.01158
0.0248389
0.0285368
0.0296651
2.68116
1.15386
2.74854
0.0265478
3.55807
0.0235703
0.0246506
0.0262913
0.0241474
0.026329
0.174788
1.99192
0.116322
0.0786067
2.82781
2.19568
0.285371
1.03328
0.064677
0.0828246
0.132256
0.0282371
1.47465
0.208141
0.328339
0.195019
0.160162
1.60746
0.0263242
2.52578
0.0243623
0.0267389
0.0286603
0.0260811
0.0250389
1.24361
2.7756
0.056178
0.0248009
2.07207
2.94338
2.34998
0.041443
1.97542
0.0507989
2.17471
0.162795
0.025773
1.98697
0.0527105
0.0541054
0.0675058
1.64987
1.18778
2.20807
0.0237976
0.603875
0.144162
2.62693
0.028064
0.0337334
0.166099
0.0770979
3.02053
2.92386
0.0442178
3.39903
2.22975
0.0753614
0.0580582
0.145519
0.0770269
1.77612
0.0327058
0.172324
3.04993
0.0276026
3.05326
0.0238947
2.90004
2.80617
0.027393
2.70729
0.137901
0.0512385
0.159527
2.39986
2.42343
0.0781282
1.48606
0.027593
0.039307
2.85104
1.29336
0.025639
2.789
3.15612
0.0774689
1.24195
0.155886
2.24061
0.201648
0.0313839
2.90353
2.9107
2.73008
0.0241779
0.0314156
0.16641
1.62569
0.0562386
2.44848
1.90565
0.168412
0.0243578
0.0241568
1.4676
0.0241113
0.0488258
0.0367709
0.055337
1.99623
0.810307
2.75678
0.026594
0.168817
0.0775911
0.0592682
2.16358
0.499237
0.847546
0.0282403
1.63209
0.527621
0.0304224
2.25501
0.0259303
1.68774
0.048847
2.37355
0.0241709
0.124568
0.0665522
0.112967
2.2767
1.83983
1.88415
2.97711
0.0228865
2.2605
0.0555522
3.24464
0.0409673
2.22319
0.0240606
1.78007
2.90515
0.0395526
1.85698
2.65373
0.0287789
2.94817
0.111168
0.0295039
0.0243402
0.20269
0.129599
2.76397
0.0245611
2.37145
0.0241503
0.0513255
2.20252
0.0779805
3.38247
2.99251
0.040663
0.0575548
2.98265
0.0248197
0.023607
0.0249287
0.0643636
0.0909943
2.26239
0.189185
2.71081
0.0237232
2.2901
0.0344786
0.593156
0.483032
0.078194
3.05485
2.17601
0.0305792
0.319639
0.384653
0.139173
0.107473
0.0326132
0.0231634
0.0252773
0.0461848
0.17117
0.0925909
0.105421
1.70604
0.106441
0.103869
3.22925
0.0243967
0.066666
1.97454
2.30521
0.292469
3.18925
0.185436
0.0291966
0.0286816
3.12904
0.0341109
1.52881
0.0259485
0.0249245
0.197092
0.0244104
0.0784419
0.0358686
0.0476141
0.0506089
3.236
2.17742
2.33115
3.1009
0.0243072
2.24858
0.133732
1.49934
0.108245
2.15152
0.195373
3.11866
2.16783
0.173362
0.145434
2.26969
0.0245036
2.61499
3.178
0.0334264
0.0275174
2.60654
0.0308399
0.0248588
0.0537939
2.90597
1.51382
0.0270802
1.72784
0.284131
0.0283112
0.0233636
1.35825
0.0402002
2.00618
0.0320536
0.0248105
0.189955
0.0571331
2.34748
0.0644541
1.68107
0.0477893
2.31327
0.10681
0.0228936
3.12123
0.0232074
0.0476152
0.0980874
2.66126
0.0503572
3.00304
0.0855754
3.22574
1.58483
0.173435
3.04908
3.10892
0.322454
2.71072
0.116196
0.570079
0.0248271
0.0561912
2.88504
0.0246989
0.172453
2.30741
0.0390221
0.0262916
1.96819
0.0294591
0.0475671
0.12584
0.0380686
0.105961
0.025352
3.14666
0.0313774
2.17571
0.187311
2.32209
0.117254
0.0491992
0.027126
0.106623
0.0254375
1.96749
0.02304
0.101018
2.23779
0.0240806
0.0764994
2.34048
3.02902
0.106535
0.0259829
0.0644725
0.132727
0.272912
0.0234481
1.12697
0.32846
0.0299727
0.106881
3.45016
0.0255747
0.108767
0.0802123
0.0240085
0.0233284
2.80695
2.06909
2.96385
0.140081
2.20723
2.86528
0.0825322
0.0987774
0.209661
0.176315
0.286749
0.0235215
0.0231739
0.0311021
2.78637
2.24234
0.287043
2.31619
0.193753
0.0243008
3.43269
3.03795
0.0838038
0.0310117
0.353588
0.109022
0.0303001
0.171043
0.0251283
0.0298765
0.0316833
0.0589098
0.0306045
0.384822
1.47668
0.270577
0.0243229
0.0361715
0.0617171
0.178849
0.0326742
0.331432
0.0494258
0.0495251
0.0598888
0.0231359
0.0245984
0.0274038
0.143748
0.0781464
1.77903
0.0399618
1.51459
0.0244422
0.0377553
1.52195
0.0262045
0.0296252
0.0568964
2.21045
0.0249295
2.47644
0.0305764
0.0430241
0.0249844
0.0267506
1.46414
0.0241182
2.23219
0.0305177
0.02688
0.0922225
0.0458174
1.16705
0.10669
1.49167
0.109435
0.0264787
0.106022
0.0342325
0.106747
2.01537
1.64577
0.0905569
2.26104
0.0820296
0.0248583
0.026941
0.0348214
0.0341986
0.10954
0.0277096
2.24826
0.0531882
0.0240198
0.0267556
0.105493
0.380399
0.542291
0.588295
0.0304459
0.0643278
0.0294372
2.03141
0.024061
0.0300735
0.0245347
0.0263818
3.0888
0.14111
0.577615
1.41687
0.105307
0.0637745
0.0234831
2.33699
2.29885
0.0242876
0.0601054
2.67171
0.0318707
0.0270148
0.0337768
1.47882
0.0297052
0.0289941
0.0267125
0.0260971
0.0248658
0.0314438
0.0234817
1.02711
1.21598
1.87803
0.0658871
0.0238424
0.0295566
1.10905
0.0282115
0.0282432
0.105652
0.0374193
0.155721
3.7905
0.0347101
0.0271415
0.624353
0.0274955
2.27421
1.31479
2.25455
0.0311199
0.434222
0.0277361
0.0248324
0.188331
0.0915255
0.379325
0.0364635
0.105074
0.0264362
0.0268129
1.86472
1.69382
2.6129
0.026904
2.30677
3.79164
0.0590301
0.0242317
0.0456088
0.0250843
1.14348
0.0315572
0.0332141
1.72956
2.26753
0.0235743
0.0325093
2.47433
0.0427689
0.0371774
0.0457384
0.026612
0.0455674
2.7739
1.58773
0.13425
0.0276474
0.0292197
0.0252518
0.024675
0.245451
0.0462184
0.0356473
0.298457
2.22038
0.024467
1.10887
1.63616
2.56381
0.142007
2.32332
0.034921
0.104054
0.0923388
0.0299617
0.287441
0.0558593
0.024174
0.0896342
0.0783393
0.023463
0.0242202
0.0290523
0.0329519
2.28088
0.0271462
0.0235869
0.026775
3.01336
0.0301927
0.0472119
0.24012
0.024121
0.0304507
0.0298128
0.0270437
0.0278894
2.36725
0.0280729
0.0275538
0.023972
1.12292
0.0463611
3.13104
0.0265418
0.36556
2.2519
0.0379459
0.0245005
0.0257673
0.0322932
0.0340616
0.0267268
0.0380024
0.0274968
0.0263581
0.0255654
0.0822697
2.28631
0.0273311
0.0279561
0.0690173
0.0303258
0.0230774
2.34031
0.0366264
0.0598573
0.0236727
0.0240944
1.50649
0.0242576
0.0239365
0.0242286
2.82605
0.0290729
1.52917
0.0242582
2.11015
0.0281345
0.15674
0.0345361
2.29266
0.104454
0.077543
0.033125
0.0263338
2.35455
0.143134
2.87605
0.032667
0.0251885
0.0277874
0.0261865
0.0245913
0.0305028
0.0795201
0.181878
0.0290661
0.0274032
0.045645
0.0243752
3.14819
0.0245128
0.0286222
0.0342309
0.0251436
0.188931
0.0492525
0.0235487
0.0230066
0.427371
0.062469
0.0791638
1.6602
0.0251534
0.233195
3.01632
1.9021
0.0229303
0.194584
0.026873
0.0275774
2.29985
0.0300368
0.729636
0.0283632
2.12587
1.39964
0.0727395
0.0244824
0.0293517
2.12151
0.0267187
0.104953
0.0456669
2.40227
0.0360192
0.295212
2.11803
0.575194
0.0459949
0.1725
0.0281016
1.62865
0.207988
0.0256781
0.07276
0.0252692
2.53123
0.0370201
1.68348
0.0343119
0.169476
0.175958
0.0409207
0.0265263
0.0482697
0.0273319
0.0272075
0.0243402
0.0277784
2.9635
0.0248498
3.51292
2.4034
0.245164
0.0285323
0.028693
0.144082
0.0256407
0.0230013
0.0386268
0.0281893
2.47598
0.0609098
0.0318483
0.0253221
0.0243042
0.527903
0.0260286
0.0232317
0.0248195
3.20147
2.0355
0.28956
0.0796377
0.0357262
0.0262975
0.0256457
0.161743
0.0235207
0.0323384
0.0251118
0.0247769
1.34816
5.53436
0.0886718
2.3321
1.19598
0.0256777
0.0251431
6.28394
0.0783566
0.0991969
0.0729198
0.0457123
0.0998369
0.028513
1.23518
0.0255375
0.0552226
1.19815
1.29877