/*--------------------------------*- C++ -*----------------------------------*\
| =========                 |                                                 |
| \\      /  F ield         | OpenFOAM: The Open Source CFD Toolbox           |
|  \\    /   O peration     | Version:  v2012                                 |
|   \\  /    A nd           | Website:  www.openfoam.com                      |
|    \\/     M anipulation  |                                                 |
\*---------------------------------------------------------------------------*/
FoamFile
{
    version     2.0;
    format      ascii;
    class       volScalarField;
    location    "300";
    object      p;
}
// * * * * * * * * * * * * * * * * * * * * * * * * * * * * * * * * * * * * * //

dimensions      [0 2 -2 0 0 0 0];


internalField   nonuniform List<scalar> 
14804
(
-0.000537963
-0.00580804
-0.0794803
-0.00743396
-0.0968475
-0.0217854
-0.101444
-0.080368
-0.000751045
-4.27076e-05
-0.000110975
-0.0781174
-0.000449928
0.014417
-0.0914884
-0.0399285
-0.129706
0.0141894
-0.0410308
-0.000537973
-0.00456554
-0.0952404
-0.00152172
-0.0369013
0.00329141
-0.0981587
-0.10098
-0.016612
-0.0913354
-0.0764181
0.00378384
-0.130077
-0.0724557
-0.0785585
-0.147272
-0.00761065
-0.0226928
-0.0363146
-0.125756
-0.000405472
-0.113885
-0.125578
-0.0460196
-0.0617375
0.0122004
-0.0144087
-0.106953
-0.00765306
-0.038578
-0.00447701
-0.0244459
-0.00841262
-0.000912551
-0.00131742
-0.0723686
-0.0164616
-0.0977325
-0.128596
0.00910419
-0.000845621
-0.131633
-0.143031
-0.000452452
-0.00558788
-0.0697979
-0.0787164
-0.000104617
-0.0024489
-5.06863e-05
-0.0278686
-0.0454376
-0.00258739
-0.0739121
-0.0790753
-0.0771939
-0.0239009
-0.0433651
-0.0466068
-6.19772e-05
-0.000131935
-0.000981224
-3.59403e-05
-0.0962961
-0.0832225
-0.00222931
-0.0384968
-0.00421566
-0.0102762
-0.067278
-0.0689582
-0.0115823
-0.0102833
-0.000435932
-0.0354854
-5.07307e-05
-0.0754417
-0.00709169
0.0141955
-0.0304162
-1.2898e-05
-0.0152271
-0.0538473
-0.0991085
-0.0714573
-0.0978242
0.00408349
-0.0146602
-0.00609128
-0.0313747
-0.0806358
-0.00624368
-0.0140471
-0.0671807
-0.0837118
-0.0477823
-0.0937168
-0.0860793
-0.0454958
-0.0386093
-0.000895816
-0.0818089
-0.0966091
-0.0356303
-0.0972183
-0.0396593
-0.0847858
-0.00419906
-0.00132366
-0.0803579
-0.076846
-0.00166187
-0.0754201
-0.000789639
0.0115771
-0.000849339
-0.006473
-0.131172
-0.00155035
-0.0747724
0.0120407
-0.0230694
-0.000803508
-0.00167817
-0.0628956
-0.120101
-0.00466728
-0.0858336
-0.126866
-0.0901952
-0.0127631
0.00182615
-0.00172733
-0.0996733
-0.121595
-0.000546574
-0.00183636
0.00366093
-0.0652331
-0.0337171
-0.0884799
-0.0223472
-0.000548669
-0.00131952
-0.000768741
-0.0584176
-0.0333881
-0.00202268
-6.37028e-05
-0.000801691
-0.0639916
-0.0219773
-0.0741656
-0.069782
-0.00446107
-0.00327805
-0.0970843
-0.059722
-0.0796594
-0.0707772
-0.00107034
-0.000935616
-0.0370297
-0.0372349
0.00811289
-0.000928351
-0.0831419
-0.00549611
-0.107169
0.0109189
-0.00220182
-0.00713766
-0.122669
-0.0633971
0.00399439
-0.0186102
0.00965668
-0.0261822
-0.104666
-0.0376938
-0.0676369
-0.0317273
-0.0071221
-0.000576094
-0.124421
-0.0214436
-0.0800832
0.00588451
0.00349271
-0.0808135
-0.0338935
-0.00387164
-0.0844068
-0.000830189
-0.00743295
-0.069254
-0.03906
0.000147375
-0.0447961
-0.132003
0.0033931
-0.0183522
0.0147562
-0.0195223
-0.00045106
-0.134058
-0.0814255
-0.0967438
-0.0393901
-0.000962853
-0.0386563
-0.0483544
-0.0206402
-0.0338951
-0.0344806
0.0125208
-0.0379704
-0.107984
-0.0238091
-0.048827
0.0132276
-0.0811291
-0.0364582
0.0115256
-0.137069
-0.0174167
-0.00644516
-0.0328574
-0.133863
-0.0792732
-0.085005
-0.102311
-0.051388
-0.000975402
-0.00660861
-0.00961739
0.000242225
-0.0818208
-0.113428
-0.0657062
-0.134747
-0.00620482
0.00137997
-0.0096031
-0.000949453
-0.00695252
-0.0911464
-0.0334592
-0.000322681
-0.0788736
-0.000446262
-0.0366951
-0.0478769
-0.113619
-0.0797104
-0.112765
0.0130498
-0.00398496
-0.0725769
-0.00041501
0.0135415
-0.0339624
-0.0903896
-0.0332377
-0.0363769
-0.0480695
-0.120636
-0.038094
-0.110341
-0.0229014
-0.119047
-0.0907008
-0.0711316
-0.00062376
-0.138451
-0.0351212
-0.0468367
-0.115572
-0.0495349
-0.0931595
-0.00210194
-0.000615535
-0.0214938
-0.0223534
-0.0447704
-0.0188545
0.00852797
-0.000211167
-0.0329269
-0.0604031
-0.00306513
-0.00667318
-0.0449978
-0.0986021
-0.00766476
-0.0406496
-0.000460205
-0.00213182
-0.00231783
-0.128703
-0.00255636
-0.000579017
-0.045328
-0.105063
0.00854798
-0.0365156
-0.00428651
-0.0193555
-0.0934928
-0.124447
-0.120784
-0.00236766
-0.00426506
-0.0492949
-0.109725
-0.00400703
-0.118332
-0.112094
-0.114415
-0.0821383
-0.1213
-0.105752
-0.0757995
-0.079711
-0.0912627
-0.000837925
-0.0434194
-0.0673013
-0.0653732
-0.00683554
-0.0333786
-0.0788547
-0.000711166
-0.00549755
0.00505711
-0.0077713
-0.000599642
-0.00705894
-0.0176817
0.00698356
-0.048462
-0.00346945
-0.00370364
-0.047729
-0.0804557
-0.11529
-0.0199573
-0.0479087
0.0113455
-0.0781168
-0.00447952
-0.000586284
-0.0875578
-0.000605846
0.00985485
-8.31597e-05
-0.0850649
-0.0797123
-0.000139614
-0.0304339
-0.0613338
-0.00669239
-0.000100312
-0.07568
-0.0833107
-0.000618575
-0.00149224
-0.00538772
-0.00768895
-0.135101
-0.00728249
-0.0931179
-0.0088124
-0.0967039
-0.00254896
-0.0334333
-0.135091
-0.110189
-0.10205
-0.00330448
-0.123555
-0.07032
0.000562129
-0.108918
-0.120498
-0.0898947
-0.0808368
-0.0299267
-0.00257008
-0.000926386
-0.00421371
-0.014318
-0.116451
-0.132598
-0.0877133
0.000427318
-0.0044025
0.00778966
-0.0305936
-0.0467155
-0.069302
0.00777802
-0.0345808
-0.0520594
-0.0446251
-0.00395934
-0.0426852
-0.0757125
-0.0817656
-0.107717
-0.0461609
-0.00671329
-0.000817973
0.0108384
-0.0788872
-0.0200389
-0.0447991
-0.0696747
-0.0813628
-0.0424082
-0.120818
-0.108168
-0.041785
-0.02804
-0.00863277
-0.0525766
-0.0378017
0.0126804
-0.00372296
-0.0317642
0.00741878
-0.0886537
0.00862292
-0.108523
-0.109569
-0.0945129
-0.0117567
0.00902258
-0.00578667
-0.0477931
-0.0190007
-0.0453067
-0.123097
-0.00378965
0.00985351
-0.0378235
-0.078083
-0.05306
-0.0094756
-0.0819743
-0.042212
-0.0375454
-0.00765403
-0.116969
-0.0664067
-0.0780355
-0.115381
-0.000849568
-0.0981953
-0.000601997
-0.0936258
-0.0260376
-0.075316
-0.0698896
-0.0973002
-0.0801879
-0.000210916
0.00948172
-0.0687571
-0.0793972
-0.107883
-0.124691
-0.123061
-0.0646667
0.0103524
-0.114382
-0.000183931
-0.000870301
0.00152731
-0.000851436
-0.0941137
-0.101504
-0.0316095
-0.000595628
-0.137582
-0.0210279
-0.000723078
-0.0658637
-0.00377639
-0.000799187
-0.124309
-0.07101
-0.124136
0.00978802
-0.0327713
-0.109495
0.0117485
-0.0890651
-0.129224
-0.035575
-0.00507127
-0.00718169
-0.124238
-0.078402
-0.0469176
-0.1041
-0.0906226
-0.084579
-0.0775747
-0.107109
-0.137939
-6.9481e-05
-0.00178817
-0.0873737
0.00954353
0.00990353
-0.0133929
-0.000149435
-0.0298497
-0.0400154
-0.0784253
-0.0193159
-0.0024463
-0.0414599
-0.00576319
-9.94204e-05
-0.0194913
-0.139355
-0.0192084
-0.00934849
-0.00217533
-0.00251853
-0.00377586
-0.0358124
-0.00477329
-0.107264
-0.000168219
0.0123714
0.00978828
-0.0185545
-0.132618
-0.0138069
-0.126698
-0.0227724
0.00864546
-0.0257735
-0.0609402
-0.000920123
-0.0137391
-0.0860486
-0.00643675
-0.0984894
-0.0801917
-0.104438
-0.0797817
-0.0014386
-0.0838535
0.00697595
-0.0800466
-0.000730054
-0.00153061
-0.0806571
-0.000569423
-0.0952852
0.0106913
-0.121971
-0.117539
-0.0321113
-0.0363731
-0.00352503
-0.0347643
-0.000731092
-0.0213735
0.000732488
0.00532226
0.00284535
-0.106749
-0.0985047
-0.112183
-0.108848
-0.00888548
-0.0649158
-0.111725
-0.0200635
-0.00379591
-0.111513
-0.0104097
-0.0132063
0.0135694
-0.0310059
-0.00677736
-0.129509
-0.00945277
-0.0206535
-0.103393
-0.00769757
-0.127327
0.000569198
-0.0091301
-0.115378
-0.000679592
-0.1046
-0.0910938
-0.0583958
-0.0800942
-0.0115122
-0.0271276
0.00563449
-0.0405041
-0.000796979
-0.0101165
-0.000582563
-0.000252275
-0.11359
-0.0414986
-0.00954015
-7.63919e-05
-0.107204
0.00601959
-0.0817598
-0.0577312
0.00644259
0.000910921
-0.0512543
-0.043348
-0.00484913
-0.00633555
-0.0227759
-0.000432347
-0.0344124
-0.0879465
0.0125576
-0.0785406
-0.0702067
-0.000842058
-0.108334
0.0105508
0.00387568
-0.0480616
-0.106158
0.000359775
0.00458682
-0.0363132
-0.0832455
-0.0345339
-0.00108431
-0.10918
-0.121224
-0.123751
-0.000925509
-0.000199901
-0.0673571
-0.0355547
-0.0264838
-0.000800846
-0.0338688
-0.0206057
0.00160816
-0.00174091
0.0133216
-0.13341
-0.000184902
-0.00888471
-0.0133914
-0.121165
-0.00152387
-0.0182385
-0.0394084
-0.000629333
-0.00233163
-0.0240407
-0.0018382
-0.0681926
-0.080034
-0.0199908
-0.103788
-0.0180418
-0.0061024
-0.000284858
-0.0803566
-0.0805619
-0.00060167
-0.00844933
-0.001784
-0.00224688
-0.0979501
-0.124685
-0.0992679
-0.108958
-0.0229738
-0.109219
-0.0218967
-0.0070391
-0.0994218
-0.104287
-0.0796576
-0.0802193
-0.00818039
-0.000459471
-0.115306
-0.00169601
0.00276464
-0.0739827
-0.0106832
-0.086794
-0.0492448
0.0081917
-0.0462892
-0.00384334
-0.00265198
0.000345724
-0.134785
0.00120525
0.000763726
-0.00082476
-0.0810795
-0.0377905
-0.0156835
-0.0325836
-0.0403463
-0.0614961
-0.00149145
0.00103625
-0.0204376
-0.0729801
-0.112358
-0.0139664
-0.0784103
-0.00811988
-0.00352773
-7.87483e-05
-0.0132133
-0.0461497
0.00510139
-0.0344016
-0.0797689
-0.060651
0.0051492
-0.0219789
-0.109889
-0.00703881
-0.000624142
-0.0471954
-0.080623
-0.0221223
-0.0862601
-0.0752946
-0.0110406
-0.00275441
-0.0843773
-0.00139135
-0.0801728
-0.0800576
-0.0160513
-0.0398102
-0.0576485
-0.00335481
-0.0819819
-0.0424005
-0.0793915
-0.000872777
-0.0920677
-0.000571686
-0.0424816
-0.0829961
-0.0321068
-0.051078
-0.0630129
-0.00151348
-0.0466466
-0.0789046
-0.00145555
-0.00418779
-0.0117345
-0.00569953
-0.0348961
-0.0309712
-0.0411748
0.00244409
-0.0431011
-0.0299192
-0.0764834
-0.0121308
-0.0316542
-0.0157994
-3.59067e-05
-0.0405144
-0.0214682
-0.0902931
-0.0152856
0.00113355
-0.111004
-0.00703253
-0.142237
-0.0640577
-0.087257
-0.0310346
-0.0331118
-0.112843
0.00525056
-0.107634
-0.00184295
0.00937214
-0.00075776
-0.0360932
-0.0989059
-0.00742729
-0.045027
-0.0364296
-0.0452141
-0.103425
-0.0191578
-0.0475716
-0.0127106
-0.00183715
-0.0978574
-0.0086486
-0.0354861
-0.00743285
-0.00112534
-0.0837241
-0.0786055
0.00075184
-0.0510144
-0.0645538
-0.0792588
-0.0750123
-0.0097302
-0.00147724
-0.00944302
-0.00170986
-0.0017188
-0.0195439
-0.0840776
-0.0975971
-0.00931591
-0.0913536
-0.0322453
0.000911717
-0.0794874
-0.112608
-0.0463793
-0.083372
0.00952501
-0.0815736
-0.00699456
-0.00950888
-0.0909464
-0.0036726
-0.0792255
-0.0878071
-0.00859208
-0.0453292
-0.00220332
0.000453509
-0.00207495
-0.0108419
-0.0770676
-0.0863229
-0.00215218
-0.0157769
-0.0066529
-0.00563233
-0.0713718
-0.000576908
-0.043193
-0.07588
-0.016745
0.00609066
0.000430725
-0.0778677
-0.0215891
-0.0319907
-0.0958742
-0.0267739
-0.0679087
-0.0421096
-0.0112702
-0.0857608
-0.0998783
-0.0617194
-0.00556121
-0.0374836
-0.00130352
-0.0237785
-0.050034
-0.00119357
-0.0108301
0.00111877
0.00355689
-0.0240396
-0.0722322
-0.0072192
-0.117175
7.659e-05
-0.0225397
-0.127751
-0.0187392
-0.0224258
-0.120106
-0.117293
-0.000781282
-0.0304609
-0.0291551
-0.0429409
-0.0776424
-0.11664
-0.0726399
-0.00138234
-0.000574537
-0.044785
-0.00148172
-0.00651849
-0.0613799
-0.0189948
0.0144605
-0.0800654
-0.00341614
-0.0761491
0.0134423
-0.0602585
-0.0649123
-0.000780432
-0.0192835
-0.0935645
-0.0794592
0.00422053
-0.0768073
-0.0354485
-0.0761123
-0.044279
-0.00233928
-0.0239547
-0.00130023
-0.12247
-0.0336987
-0.008166
-0.00823363
-0.0769168
-0.0507267
-0.0198387
-0.117226
-0.0757026
-0.0432553
-0.00883803
-0.0117538
-0.00324802
-0.0248954
-0.0177351
-0.0748134
-0.0120527
0.0132318
-0.0799227
-0.0197071
-0.0845383
-0.0858732
-0.000245943
-0.00533091
-0.00022761
-0.0992442
-0.0775067
-0.0203961
-0.0950436
-0.075338
0.013833
-0.0388535
-0.123707
-0.0229853
-0.0356744
-0.0399025
-0.0777599
3.57211e-06
-9.72641e-05
-0.00924289
-0.101763
-0.00831705
-0.000662419
-0.000802142
-0.0686749
-0.0562177
-0.000733899
-0.0065121
-0.0774923
-0.0385364
-0.017814
0.00128831
-0.0790196
-0.0527052
-0.0402631
-0.01742
0.000297107
-0.00724333
-0.0789963
-0.00281564
-0.00530259
-0.0637642
-0.0882837
-0.00543936
-0.0638147
-0.0905573
-0.000871935
-0.140422
-0.079596
-0.084301
-0.00707973
-0.0352306
-0.0851671
-0.096011
-0.00720843
-0.0167606
-0.0480506
-0.0208811
-0.000605193
-0.00853578
-2.51047e-05
-0.0630605
-0.0845741
-0.0386069
-0.0430828
-0.00237591
-0.062999
-0.00547452
-0.0427007
-0.017406
-0.0311276
0.00310747
-0.097345
-0.000817034
-0.0330118
-0.100605
0.0142792
0.00551167
0.000259662
-0.0474414
-0.000240016
-0.116697
-0.117806
-0.000225139
-0.00144855
-0.0322421
-0.0666979
-0.098515
-0.0438453
-0.0810464
-0.0182989
-0.0508284
-0.000552575
-0.0807897
-0.116313
-0.000911112
-0.0275764
-0.000898546
-0.0181873
-0.0834864
-0.000541128
-0.0391163
-0.000396919
-0.0841386
-0.0509237
-0.0377691
-0.0188707
-0.0373329
-0.114087
-0.00745111
-0.0546114
-0.101033
-0.000401033
0.00356141
-0.0577967
-0.0993938
-0.0282467
0.00146956
-0.00149156
0.00487491
-0.0343738
-0.121618
-0.0557279
-0.0852499
-0.102932
-0.0293181
-0.000519828
-0.0430555
-0.104956
0.00929147
0.00330871
-0.0817277
-0.0180352
-0.0819075
-0.115222
-0.0483817
-0.000762722
-0.0794508
-0.000397984
-0.0577531
-0.0296526
-0.0760522
-0.000648333
-0.0617352
-0.0426185
-0.0792317
-0.000657545
-0.0983903
-0.0129676
-0.134663
-0.114995
-0.0035021
-0.000533946
-0.0881993
-0.0868494
-0.0923096
-0.07827
-3.16674e-06
-0.0210407
-0.000363603
-0.0631288
-0.0804118
-0.00606042
-0.124968
-0.00724235
-0.0303642
-0.000954273
-0.0486099
-0.00748183
0.00380201
-0.00967135
-0.138242
-9.1289e-06
-7.8299e-05
-0.0845426
-0.0834832
-0.00556609
-0.017987
-0.0181386
-0.00775558
-0.129362
-0.000457569
-0.00898947
-0.064913
-0.000492514
-0.114247
-0.116889
-0.0304009
-0.000626363
-0.0856513
-0.04905
0.00391424
-0.0804968
-0.0458374
-0.00132416
-0.0969697
-0.0158945
-0.0352706
-0.0166623
-0.0555971
-0.0866088
-0.000798264
-0.116573
-0.00052278
0.000987929
-0.0465091
-0.114637
-0.0291067
-0.00467882
-0.0015915
-0.0398595
-0.105086
-0.0473294
-0.0332505
-0.0133842
-0.00014026
-0.00100668
0.000252092
-0.0613407
-0.00271422
-0.0178614
-0.00036522
-0.0315597
0.00477855
-0.00883249
-0.122998
-0.0906494
-0.0143667
-0.0795733
-0.12733
-0.0905896
0.000997257
-0.00933424
-0.091075
0.00201582
-0.0368864
-0.00958947
-0.00464736
-0.0670213
-0.0109986
-0.0794686
-0.0648023
0.00052431
-0.0393773
-0.0612681
-0.0772765
-0.0211173
-0.0353573
-0.000780927
-0.000307029
-0.0110387
-0.0609897
-0.000828883
-0.0161486
-0.00456307
-0.0761995
-0.000366739
-0.0775866
-0.105214
-0.0438536
-0.0452271
0.0072065
-0.0160056
-0.0617816
-0.00529006
-0.104434
-0.0421685
-0.00082943
0.00400546
-1.62504e-05
-0.0900999
-0.0963245
-0.00770822
-0.043745
-0.00471034
-0.0302249
-0.0480206
-0.0413112
-0.000818079
-0.125232
-0.0707811
0.000206995
-0.0730206
-0.0998922
-0.0748695
-0.00113337
-0.0343651
-0.10537
-0.0857484
-0.0154722
-0.0345509
-0.0557739
-0.00928477
-0.000257168
-0.119527
-0.0429754
-0.00556918
-0.0188232
-0.099684
-0.02235
-0.0839345
-0.0833374
-0.000470201
-0.092418
-0.0995007
-0.04376
0.00560983
-0.00375674
-0.0146382
-0.00434681
-0.000986518
-0.0595105
-0.0816477
-0.0805122
-0.0166767
-0.0142969
-0.0569862
-0.00420778
-0.0764684
-0.000364521
-0.0168023
-0.0680597
-0.080423
-0.0921847
-0.000299507
-0.00863944
-0.00156456
-0.0997716
-0.0679024
-0.00860264
7.20225e-05
-0.12463
-0.000430807
-0.0897164
-0.00158119
-0.0621937
-0.0414517
-0.0386213
-8.21074e-05
-0.0159844
-0.115446
-0.0918163
-0.0830144
-0.032803
-0.00309974
-0.0821607
-0.00455846
-0.0837258
-0.0883583
-0.0796903
-0.0453836
-0.0914177
-0.00480504
-0.112664
-0.0751454
-0.0591814
-0.0749437
-0.115441
-0.00663877
-0.0666929
-0.000402844
-0.0390066
-0.117795
-0.0814475
-0.0323515
-0.0639775
-0.113032
-0.0623357
-0.019255
-0.0594571
-0.1288
-0.0849981
-0.000345576
-0.0900062
-0.00644411
-0.0414779
-0.0796534
0.00859924
-0.0427366
-0.0784435
-0.0802596
-0.132724
-0.0296004
-0.0326145
-0.000317367
0.0144692
-0.0156654
0.00228094
-0.0286329
-0.00671599
-0.0871386
-0.00111408
0.0124397
-0.0575511
-0.0691038
-0.0935502
-0.0801137
-0.0354385
-0.000496393
-0.0429414
-0.0329454
-0.0798942
-0.0797603
-0.0755342
-0.00660432
-0.0247329
-0.0848136
-0.0038296
-0.083367
-0.0795005
-0.00168331
-0.00727239
-0.004438
0.0108027
-0.0991304
-0.0741951
-0.0796268
0.00677188
-0.0946624
-0.0948213
-0.00357204
0.000439051
-0.0487256
0.00230115
-0.000287225
-0.0686758
-0.00398295
-0.0296346
-0.0026861
-0.0471565
-0.115107
-0.103702
-0.0016863
-6.50866e-05
-0.112175
-0.0148887
-0.0538551
-0.0076914
-0.135711
-0.0284669
-0.0268768
-0.00402106
-0.0043048
-0.00193213
-0.0593349
-0.0209739
-0.0351743
-0.0395659
-0.0585452
-0.123309
-0.113187
-0.0810692
0.00294984
-0.00856632
-0.000864475
-0.123681
-0.0842168
0.00520086
-0.0100387
-0.0797914
0.00336379
-0.0452194
-0.00649891
-0.0138438
-0.0281809
-0.0799794
0.00158307
-0.0472689
-0.132451
-0.127267
-0.100683
-0.0778277
-0.0813974
0.00415422
-0.0448413
-0.000517519
-0.0132078
-0.0129589
0.00120156
-0.0661279
-0.00911793
-0.0251397
-0.0493717
-0.00104244
-0.0612726
-0.0632657
-0.0363014
-0.0489652
-0.000297093
-0.0930752
0.00677978
-0.0706396
-0.062133
-0.128057
-0.041864
-0.0807209
-0.0777931
0.0144006
-0.0396588
-0.0407295
-0.0364536
-0.0786485
-0.0566215
-0.123338
-0.0172309
-0.00556227
-0.132988
-0.00568366
-0.0735708
-0.0596713
0.000911042
-0.0810478
-0.0815275
-0.0865552
-0.0125079
-0.0457034
-0.127334
-0.0214342
-0.0775351
-0.00596127
-0.100625
-0.0802777
-0.113757
-0.0414236
-0.0410165
-0.00563822
-0.00156843
-0.00556381
-0.0258634
-0.119083
-0.000531799
-0.0749771
-0.110704
-0.0836818
-0.101395
-0.0841816
-0.122973
-0.0773591
-0.00611921
-0.0367972
-0.00524904
0.001704
-0.12346
-0.0892665
-0.000826845
-0.0411397
-0.000322686
-0.000865567
-0.0301895
-0.109872
-0.000160923
-0.00099304
-0.0323086
-0.0243419
-0.0742634
-0.092085
-5.3788e-05
-0.104238
-0.00872969
-0.0811901
-0.0801213
-0.000709668
0.000219956
-0.115345
0.00347788
-0.116315
-0.0129142
-0.0070981
-0.000501286
0.00498454
-0.0418723
-0.000818188
0.0052754
-0.0734105
-0.103347
-0.0665006
-6.13049e-05
-0.0316467
-0.00182557
-0.0986382
-0.114524
-0.105912
-0.0796101
0.00549567
-0.0499976
-0.125456
-0.0552572
-0.0328754
-0.0428715
-0.00336176
-0.00576799
-0.0618241
-8.06348e-05
-0.00923368
-0.00999832
-0.0973903
-0.0929248
-0.0722745
-0.0609296
-0.0283205
-0.05881
0.000598055
-0.0850745
-0.0397478
-0.0679047
-0.0694205
-0.0298793
-0.103149
0.0130862
-0.000530242
-0.116006
-0.00245534
-0.119667
-0.0290778
-0.000846751
-0.00544617
-0.0421821
-0.0436708
-0.0589138
-0.103408
-0.0607106
-0.021937
-0.0874715
-0.00084569
0.0109632
-0.000221713
-0.0248884
-0.0182332
-0.0915486
-0.00405399
-0.0711884
-0.000339568
-0.0282158
-0.00814363
-0.0105895
-0.00799406
-0.0954149
0.00541197
-0.0185092
-0.0560643
-0.0936647
-0.0196673
-0.0304143
-0.0481989
-0.00683153
-0.0872287
-0.141281
-0.000835499
-0.110724
-0.0163971
-0.0408865
-0.0287558
-0.137693
-0.0798593
-0.0383075
-0.0309657
-0.0808676
0.0022095
-0.025606
-0.000921884
0.00353351
-0.0875395
-0.109687
-0.0111487
-0.0504911
-0.133318
-0.131109
-0.118947
-0.000343842
-0.112582
-0.0674201
-0.0811594
-0.00533653
-3.54762e-05
-0.00121554
-0.0329093
-0.0750318
-0.0607281
-0.00966742
-0.0127775
-0.0811381
-0.0966278
-0.00164487
-0.00785764
-0.0180331
-0.0516885
-0.0824256
-0.120927
-0.00131368
0.00530529
-0.0754425
-0.000844007
-0.0805448
-0.0352442
-0.0811294
-0.00803211
-0.00686929
-0.00015164
-0.00523871
-0.0414248
0.0110841
-0.00295159
-0.0132209
-0.0805146
-0.0592275
-0.00254667
-0.087446
-0.00086725
-0.000304065
-0.0487655
-0.0302819
-0.0606167
0.0017993
-0.0953518
-0.0472776
-0.13464
-0.110379
-0.0159334
0.0027583
-0.00530224
-0.0729087
-0.000772833
0.0019795
-0.0237778
-0.0399019
-0.081182
-0.000349944
-0.016128
0.00216985
-0.0757639
-0.13287
-0.0771259
-0.0337976
-0.081039
-0.0899738
-0.117352
-0.122557
-0.00169843
-0.00161471
-0.087095
-0.118951
0.000794124
-0.0522927
-0.033893
0.00773138
-0.140584
-0.0799823
-0.000603269
-0.0561777
-0.0752799
0.00184662
-0.12983
-0.0682242
-0.0210001
-0.043982
-0.130699
-0.0022667
-0.0693216
0.0018597
-0.0573933
-0.0443498
-0.0960358
0.00935781
-0.0188599
-0.00314499
-0.116036
-0.0714298
-0.0525749
-0.0762703
-0.000324386
-0.0314789
-0.0297345
-0.00247601
-0.0603931
-0.032648
-0.0419706
-0.0105169
-0.0156374
-0.0112194
-0.00694636
-0.000506871
-0.08899
-0.00118135
-0.0288862
0.00181265
-0.000362328
-0.134161
-0.0257401
-0.00192316
-0.0904853
-0.129469
-1.47013e-05
-0.0126421
-0.0307609
-0.0267985
0.000356769
-0.000939575
-0.0111741
-0.00547387
-0.108425
-0.0294787
0.00299639
-0.0982984
-0.00182893
-0.00121081
0.00131904
-0.00555838
-0.0457175
-0.0685687
-0.0902669
-0.0904401
-0.0176469
-0.00019889
-0.000538023
-0.0786385
-0.0660513
-0.0816028
-0.0138747
-0.0776853
-0.0406519
-0.0236327
-0.0289249
-0.0168118
-0.109696
-0.000921193
-0.095827
-0.000399958
-0.0870598
-0.000793512
-0.000951297
-0.00087521
-0.0810862
0.012075
-0.0319265
-0.0657168
-0.00888988
-0.0782322
-0.0108087
-0.00447008
-0.0559245
-0.0243183
-0.0582725
-0.00042004
-0.0292049
-0.0807334
0.000205207
-0.0199552
-0.0036168
0.00369624
0.0100521
-0.00279329
-0.0597654
-0.0435379
-0.0017788
-0.0751987
-0.0246972
-0.00686679
-0.000337981
-0.12434
-0.0134639
-0.109842
-0.086283
-0.0119516
-0.0201772
-0.0386347
-0.116958
-0.0797095
-0.000130188
-0.0710969
-0.00798279
-0.0819902
-0.0810575
-0.0351982
-0.0335543
-0.0186661
-0.12381
-0.0653303
-0.000524205
-0.00519085
-0.0760061
0.000343512
-0.0165166
-0.0454164
-0.0305046
-0.0588516
-0.0805915
-0.0241784
-0.0298165
-0.093403
-0.0441818
-0.0957364
0.007768
-0.122843
-0.0604049
-0.0797731
-0.0158895
-0.000265135
-0.0102153
-0.0446847
0.00272587
-0.0828904
-0.0992609
-0.0207549
0.00186695
-0.0969494
-0.0938988
-0.0802512
-0.0817414
-0.0991489
-0.0605078
-0.00693025
-0.0813595
-0.0506167
-0.0676703
-0.000895879
-0.0321307
-0.000750759
0.0149646
-0.000320573
-0.0847981
-0.077973
0.00636345
-0.0766604
0.00902642
-0.0807237
0.0129868
-0.108875
-0.134829
-0.117745
-0.0726157
-0.0240491
-0.0581561
-0.12339
-0.126242
-0.000656921
-0.039305
-0.00429009
-0.105464
-0.0816574
-0.0599436
-0.0892186
-0.00112296
-0.019701
-0.129426
-0.035872
-0.0774604
-0.0366411
-0.100242
-0.0283336
-0.00664472
-0.0792947
-0.0688382
0.00308124
-0.0312651
0.0139758
-0.114049
-0.00498719
0.00135161
0.00487443
-0.0366679
-0.0512807
-0.0219732
-0.00115085
-0.0271299
-0.079801
0.00276988
-0.0794613
-0.00160583
-0.00876587
0.000391937
-0.0855619
-0.0845688
0.00390616
-0.078597
-0.00492438
-0.0202968
-0.000511619
-0.0763707
-0.106668
-0.0808199
-0.00725999
-0.094413
-0.0787649
-0.0133391
-0.00520512
-0.0925322
-0.0163298
-0.0132139
-0.00508401
-0.0802002
-4.8346e-05
-0.0880514
-0.0103097
-0.0829376
-0.0806108
-0.0809127
-0.015835
-0.0796718
-0.0808453
-0.079174
-0.0816315
0.0119743
-0.0773524
-0.00111158
-0.136132
-0.0164638
-0.0197947
-0.0735593
-0.077385
-0.0866586
-0.0182883
-0.0160335
-0.00224963
0.00145909
-0.049334
-0.000517971
-0.0214806
-0.078544
-0.0906963
-0.0392677
-7.73973e-05
-0.0758482
0.000730801
-0.00354366
-0.0247771
-0.0470688
-0.0304801
-0.071006
-0.0611768
-0.102314
-0.0638969
-0.0875891
0.0135806
-0.00451242
-0.0326247
-0.0331454
-0.0282688
-0.0505077
-0.0408485
-0.0808171
-0.00142363
-0.079784
-0.0838215
-0.076644
-0.000106994
-0.0810747
-0.0912658
-0.118027
-0.0459338
-0.0783398
-0.110769
-0.118406
-0.0870478
-0.0560531
-0.0065899
-0.0777227
-0.000417755
-0.0115459
-0.0924375
-0.0307159
-0.0648808
-0.000867221
-0.0800941
-0.131653
-0.0806413
-0.00321135
-0.0608006
-0.00309938
-0.0794284
-0.10039
0.00220039
-0.0595922
-0.0793236
-0.0261934
-0.132203
-0.0167652
-0.0800534
-0.0542676
-0.0871301
-0.075935
-0.0712245
-0.000300538
-0.0806172
-0.0035582
-0.0119114
-0.083069
-0.0612907
-0.029542
-0.0624894
-0.000880873
-0.104472
-0.00215124
-0.0166424
-0.055485
-0.00355862
-0.00514792
-0.081539
-0.0660424
-0.00151245
-0.000979682
0.00252462
-0.0422855
-0.00430336
-0.0169588
-0.0569324
-0.0769208
-0.0172304
-0.12591
-0.112049
-0.125278
-0.0646548
0.00667616
-0.00190023
-0.051712
-0.0710494
0.00415646
-0.133032
-0.0780171
-0.0359535
-0.0566597
-0.0590363
-0.0577732
-0.000250649
-0.0769419
-0.0346781
-0.0540466
-0.00330163
-0.00182524
-0.109873
-0.132334
-0.00683421
-0.0518773
-0.116095
-0.0506065
-0.122409
-0.00276367
-0.0649816
-0.0969773
-0.0486037
-0.0464516
-0.0711382
-0.126026
-0.0525105
-0.112991
0.000295934
-0.0886839
-0.0562894
-0.127551
-0.029425
-0.0749051
0.000588924
-0.00398112
-0.0808011
-0.00319672
-0.106468
-0.0812292
-0.0477727
-0.000137055
-0.000409726
-0.00259253
-0.0745632
-0.064601
-0.0517396
-0.0135541
0.00485929
-0.101229
-0.0740774
-0.0068434
0.000860359
-0.13694
-0.000734104
-0.0609389
-0.0396865
-0.0695062
-0.0171462
-0.0802135
-0.11491
0.00102127
-0.0137698
-0.0330993
-0.044061
-0.0429387
-0.0136572
-0.0523612
-0.0763746
-0.01697
-0.0347435
-0.0755835
-0.111743
-0.0247158
-0.0327491
-0.111577
-0.129986
-0.000322571
-0.0166648
0.011736
-0.0808226
-0.0361684
-0.000417471
-0.0105747
-0.0754035
-0.0279277
-0.0732745
-0.0467088
-5.48517e-05
-0.000181737
-0.0659554
-0.0804585
-0.0253096
-0.0172008
-0.0646788
-0.0455478
-0.000867904
-0.0574532
-0.0121911
-0.0493116
-0.00259922
-0.0832882
-0.0283795
0.0134506
0.00523862
-0.111739
-0.017963
-0.0405706
-4.52552e-05
-0.0821472
-0.135582
-0.0316164
-0.0629945
-0.00036917
-0.000131957
-0.000778386
-0.00363609
0.00283736
-0.0475458
-0.0773962
-0.00273179
-0.0748419
-0.0536748
-0.015399
-0.0767593
-0.0106293
-0.00621599
-0.0332153
-0.00175584
-0.0354974
0.000360303
-0.117186
-0.0830268
0.0110019
-0.130393
-0.0568117
-0.0958433
-0.0171347
-0.0977908
-0.000431939
-0.0845701
-0.0799752
-0.0635346
-0.118645
-0.101372
-0.0886202
-0.0772434
-0.113654
-0.0358741
-0.039536
-0.0743557
-0.0541064
-0.0796261
-0.0237598
-5.96463e-05
-0.0190464
-0.00276031
-0.00971272
-0.00316913
-0.0945865
-0.0528794
-0.033557
-0.0315595
-0.0114117
-0.0596915
-0.110422
-0.093878
-0.130169
-0.0767029
-0.11162
-0.0310402
-0.0245624
-0.0834182
-0.00556115
-0.000543005
-0.064258
-0.0735043
-0.00251371
-0.0583366
-0.00361966
-0.0426206
-0.0413518
-0.0849374
-0.0852666
-0.0677801
-0.0756804
-0.00587613
-0.0508365
-0.0998961
-0.0813334
-0.110207
-0.0590569
-0.0110328
-0.121506
-0.0756222
-0.000372896
-0.00717666
0.00059726
-0.0328749
-0.117168
-0.000210623
-0.0804104
-0.101788
-0.00179905
-0.0777451
-0.0744915
-0.0274426
-0.0812671
-0.0776795
-0.00588835
-0.00279788
-9.2797e-05
-0.0217366
-0.000478733
-0.100712
-0.0414448
-0.0269721
-0.0906662
-0.0148208
-0.0809047
-0.0901112
-0.0853494
-0.0124962
-0.0532264
-0.00202474
-0.0366223
-0.015549
-0.0681854
-0.000798703
-0.0830485
0.00990105
-0.0208258
-2.0206e-05
-0.0808269
-0.0239242
-0.101094
9.60517e-05
0.0108177
-0.0194535
-0.0425303
-0.0316218
-0.0218434
-0.0659901
-0.0977938
-0.0441516
-0.0823413
0.0102245
-0.100992
-0.0108138
0.00342046
-0.0582032
-0.1099
-0.0680211
-0.00763406
-0.0419763
0.000754388
-0.0122248
-0.0808014
-0.00399127
-0.00117054
-0.000943553
-0.0830699
-0.055318
-0.108062
0.00109785
-0.0442298
-0.000871647
-0.0248752
-0.0906844
-0.0558692
-0.013564
-0.0933218
-0.0322235
-0.00176559
-0.0784485
-0.000384051
-0.0746923
-0.0873554
-0.000480246
-0.0764196
-0.0211645
-0.0742523
-0.0628958
0.0108186
-0.0871828
-0.00635728
-0.00998534
0.000815252
-0.0782748
-0.0324047
-0.0510251
-0.0662319
-0.0353337
-0.0145655
-0.0887728
-0.0763733
-0.014681
-0.000391637
-0.030673
0.00847946
-0.0101307
-0.0862503
-0.0599203
-0.024963
-0.111423
-0.0419705
-0.0862001
-0.043181
-0.0809785
-0.092852
-0.0559716
-0.00277323
0.00533257
0.00173643
-0.083473
-0.0897434
-0.01611
-0.109557
-0.0960956
-0.000770742
-0.000764501
-0.0817506
-0.0933094
-0.0829434
-0.0762496
-0.00222682
-0.081554
-0.0294011
-0.126458
-0.0799794
-0.0409075
-0.0659607
-0.0862382
-0.000932024
-0.043019
-0.0804697
0.00101431
-0.0900003
-0.0791222
-0.0480915
-0.0453358
-0.000455244
-0.00104384
-0.0137746
-0.0722302
-0.0452363
-0.028684
-0.116075
-0.0633224
-0.0815656
-0.0974466
-0.0902634
-0.0930507
-0.0137775
-0.0944277
-0.00276144
0.00109438
-0.076093
0.00223483
-0.0893899
-0.104673
-0.0660763
-0.0740301
-0.0798337
-0.0816856
-0.0782327
-0.0556531
-0.0926008
-0.129612
-0.0466961
-0.0505709
-0.0229837
-0.100663
-0.0808585
-0.0935242
-0.0271776
-0.0895271
-0.00786938
-0.00216572
-0.0619541
-0.0154002
-0.0170952
-0.0941981
-0.064552
-0.12134
-0.0661624
-0.0983258
-0.0958825
0.000186586
0.0108306
-0.0939148
-0.00014576
-0.0180107
-0.00994988
-0.0517073
-0.135017
-0.115787
-0.137615
-0.0987514
-0.0274926
-0.0175956
-0.0860893
-0.0326908
-0.051884
-0.0442433
-1.7874e-05
-0.0124756
-0.0799857
-0.0954221
-0.0982462
-0.0386005
-0.0764918
-0.13116
-0.128732
-0.0765021
-0.0800448
-0.000886983
-0.0792432
-0.10485
-0.00170811
-0.0639996
-0.0952623
-0.080195
-0.0658125
-0.0185417
-0.0803198
-0.0989925
-0.00342957
0.00618731
-0.0210775
-0.107362
-0.0755478
-0.0417726
-0.100349
-0.0850175
-0.138453
-0.107612
-0.019649
-0.099333
-0.10339
-0.0539396
-0.0720143
-0.0420522
-0.0886143
5.90585e-05
-0.043135
-0.128649
-0.139638
-0.0057613
-0.12784
-0.0116291
-0.104306
-0.10123
-0.0647122
-0.112536
-0.0692728
-0.000989695
-0.0828415
-0.100697
-0.100939
0.00167089
-0.00394779
-0.0420466
-0.0747919
-0.100761
0.0152502
-0.0261589
-0.11891
-0.135443
-0.0953175
-0.0800603
-0.0414799
-0.107023
-0.119944
-0.0566767
-0.109907
-0.120121
-0.101611
-0.0153329
-0.0671639
-0.111216
0.00340614
-0.101593
-0.104083
-0.0237499
-0.106551
-0.00556339
-0.0162217
-0.00208479
-0.00584591
-0.0507301
-0.0974241
-0.000780105
0.00744515
0.00606882
-0.104355
-0.0600438
-0.11785
-0.102132
-0.0028127
-0.0878423
0.00782293
0.00735558
-0.00665441
-0.0733164
0.000451343
-0.0790616
-0.110636
-0.0417501
-0.00828503
-0.0412092
-0.0646509
-0.00575599
-0.0117246
0.000645464
-0.0215734
-0.116184
-0.00179053
-0.0133105
-0.112283
-0.000207917
-0.0785528
-0.000829945
-0.111441
-0.0623687
-0.10204
-0.0201282
-0.0408625
-0.128166
-0.0765072
-0.0556605
-0.0875165
-7.37394e-05
-0.121125
-0.0271661
-0.0112493
-0.0325664