/*--------------------------------*- C++ -*----------------------------------*\
| =========                 |                                                 |
| \\      /  F ield         | OpenFOAM: The Open Source CFD Toolbox           |
|  \\    /   O peration     | Version:  v2012                                 |
|   \\  /    A nd           | Website:  www.openfoam.com                      |
|    \\/     M anipulation  |                                                 |
\*---------------------------------------------------------------------------*/
FoamFile
{
    version     2.0;
    format      ascii;
    class       surfaceScalarField;
    location    "300";
    object      phi;
}
// * * * * * * * * * * * * * * * * * * * * * * * * * * * * * * * * * * * * * //

dimensions      [0 3 -1 0 0 0 0];
oriented        oriented;


internalField   nonuniform List<scalar> 
21967
(
0.060826
-0.465819
0.404993
0.65589
-0.249449
-0.406441
0.0739233
-0.0789582
0.00503493
-0.398473
-0.14163
0.540103
0.325527
-0.20401
-0.121517
-0.133669
0.424365
-0.290696
9.65704e-05
-0.0054086
0.00531203
0.251213
-0.0651495
-0.186063
0.136656
-0.573492
0.436836
-0.389151
-0.196092
0.585243
0.0759522
0.498101
-0.574053
0.00626457
-0.0067851
0.000520535
-0.389859
-0.190136
0.579995
-0.302296
0.0107355
0.29156
-0.0292527
0.0167325
0.0125202
-0.506004
0.225567
0.280437
-0.000381545
0.000245041
0.000136504
-0.0543339
-0.247962
-0.245899
-0.260105
0.562516
-0.50169
0.670577
-0.35422
-0.316356
0.138959
0.186568
-0.454579
0.391058
0.0635217
0.289883
-0.428937
0.139054
0.320919
-0.43821
0.117291
0.000972435
0.00541162
-0.00638406
0.00413012
-0.00403355
0.571932
-0.0833757
-0.488557
-0.0168183
-0.0124344
-0.0258824
0.00013457
0.0257478
0.0894528
-0.0962551
0.00680237
-0.00062128
0.000239735
0.203156
0.107581
-0.310736
0.247449
0.00376382
0.0600396
-0.0031715
-0.0568681
0.174609
-0.569152
0.394543
-0.45475
0.595344
-0.140594
0.425892
-0.13601
-0.0268033
-0.0773275
0.104131
-0.424939
-0.124189
0.549128
-0.00539778
0.118028
-0.11263
0.114321
-0.141125
0.0204627
-0.179249
0.158786
-0.186797
-0.170819
0.357616
-0.200571
-0.012263
0.212834
-0.0388566
-0.00562896
0.0444856
-0.00973125
-0.101517
0.111248
0.13869
-0.537163
0.205021
-0.194036
-0.0109843
0.257782
0.412794
0.610526
-0.319571
-0.290955
-0.592437
0.604347
-0.0119099
0.710608
-0.47509
-0.235518
-0.440669
-0.0139103
-0.0675754
0.270731
0.113441
0.458491
-0.00371825
0.00469068
0.00100355
-0.000758506
0.278306
-0.246345
-0.0319614
0.235589
-0.625448
-0.000353055
-0.000268225
-0.0120055
0.0720451
0.132541
-0.564504
0.431964
0.382415
0.273475
-0.216789
0.386257
-0.169468
0.000619966
0.0056446
-0.463564
0.353508
0.110056
0.0818894
0.390535
-0.472425
0.306129
-0.69528
0.111417
-0.3615
0.250083
-0.362917
0.114708
0.248209
-0.378875
0.460764
-0.257772
0.347521
-0.0897491
-0.176311
-0.0208882
0.197199
-0.0608324
-0.024865
0.0856974
0.313583
0.296944
-0.149558
0.419832
-0.270274
-0.227635
0.214192
0.0134432
-0.161073
0.609944
-0.448871
0.153666
-0.31715
0.163484
-0.207701
0.361367
0.607957
-0.106265
-0.501691
-0.0139465
-0.163222
0.177168
0.0154407
-0.000115138
-0.0153256
0.660088
-0.660088
0.326774
-0.44922
0.122446
-0.00409003
0.518195
-0.514105
0.178205
0.362215
-0.54042
-0.319371
0.227452
0.0919192
-0.194711
-0.12466
-0.023611
0.137743
-0.114132
-0.352606
0.530812
0.122931
-0.54787
-0.361524
0.533329
-0.171805
-0.610396
0.313943
0.296453
0.0316212
-0.015368
-0.0162531
-0.483576
0.619892
-0.136316
-0.189835
-0.378367
0.135881
0.242485
0.0644225
0.543534
-0.0482534
0.00939676
0.123662
-0.0199928
-0.103669
-0.0217672
0.132671
-0.110904
0.0526371
-0.269426
0.138072
-0.158419
0.0203474
0.41163
-0.0907105
0.484426
-0.148273
-0.336154
-0.552558
-0.0291211
0.581679
-0.332201
-0.0461651
-0.00272491
0.0026106
0.000114311
-0.467646
-0.0849113
0.367115
0.117311
0.00222373
-0.00181189
-0.0448407
-0.182055
0.226896
0.259975
-0.306345
0.0463693
-0.0732761
0.0749178
-0.00164168
-0.0132763
-0.105311
0.118587
-0.170298
0.190761
-0.491768
0.200201
0.291566
0.435393
-0.583128
0.147735
-0.075794
0.0149616
0.151805
-0.0137333
-0.472249
0.110725
0.141266
-0.155213
-0.2662
0.12506
-0.169901
-0.481146
0.477056
-0.71483
0.378976
0.335854
0.0779137
-0.143063
0.000199517
-0.0260819
-0.569994
0.423785
0.14621
0.00873715
0.022884
0.566362
-0.429706
0.14977
-0.0712639
-0.0785066
0.214014
0.496594
-0.162587
0.0147772
0.14781
-0.0490134
-0.0670946
0.116108
0.0460001
-0.394864
0.348864
-0.00187065
0.124598
-0.166777
0.0421785
-0.537767
0.0830173
-0.159339
-0.42066
0.579999
0.391899
-0.345899
-0.336701
0.149905
-0.101126
0.123598
-0.0224713
0.362308
-0.566357
0.204049
0.119824
-0.133101
-0.147603
0.0702753
0.0121635
-0.0149383
0.00277482
-0.506506
0.401108
0.105399
-0.398709
-0.0648552
-0.418261
-0.151733
0.0699609
-0.0917281
-0.123513
0.0223864
0.159314
-0.625133
0.409292
0.157811
-0.567103
-0.329704
0.400139
-0.070435
0.32456
-0.292131
-0.0324293
-0.458021
0.390968
0.0670535
0.0146526
-0.00248913
0.617059
-0.259463
-0.357596
-0.598731
0.434805
0.163926
-0.334549
-0.380281
0.407023
0.241835
-0.305722
0.0638865
-0.00955066
0.00856497
0.000985683
-0.471065
-0.170961
0.642027
-0.318849
-0.291548
0.364107
-0.58208
0.217974
0.115287
0.209272
0.305974
0.311085
-0.254304
-0.00346793
0.0108125
0.0493671
-0.0601796
-0.111348
0.473656
0.214113
-0.235729
0.0216159
0.0126352
-0.00223448
-0.0104007
-0.141961
-0.00670802
0.148669
-0.00332151
0.00394148
0.0774217
-0.0666092
0.580773
-0.216666
0.668327
-0.317825
-0.350502
-0.00104805
0.206069
-0.337184
0.438128
-0.100944
0.222413
0.0558938
-0.213672
0.598546
-0.384875
0.00308207
0.0723511
-0.0754332
-0.112621
-0.0499661
0.0105629
-0.00981229
-0.000750586
0.0313925
0.118378
-0.549122
0.0780566
0.598118
-0.320103
-0.278015
0.062528
-0.000181585
-0.0623464
-0.000157336
-0.00392495
0.00408228
0.248865
-0.326851
0.0779862
-0.0656933
0.0638635
0.00182981
-0.147877
-0.0619301
0.209807
0.0861452
-0.0982261
0.0120808
0.00999552
0.000567359
-0.425302
0.0881178
0.054072
-0.0437239
-0.0103481
-0.0894703
0.430659
-0.341189
0.429355
-0.585123
0.155768
-0.145332
-0.453398
0.00941908
0.0708086
-0.0802277
-0.35328
0.219611
-0.15029
0.148027
0.00226282
0.0866377
0.00281505
0.416266
-0.325787
-0.0904792
0.0152547
-0.191565
-0.563084
0.468168
0.0949157
-0.516405
0.512181
0.00422431
-0.0629333
0.0660153
0.139812
-0.560472
-0.539372
0.397742
-0.003871
0.0466645
-0.0427935
-0.517079
-0.0404994
0.557579
0.418848
0.0467747
-0.465623
0.325471
-0.499051
0.17358
0.061924
-0.110937
-0.0171039
0.43337
-0.367443
0.0905183
0.276925
0.175942
-0.0791243
-0.096818
0.626085
-0.45647
-0.169616
0.444856
0.135917
0.00493721
-0.0189464
0.0140092
-0.135381
-0.0149093
-7.87292e-05
0.0127139
-0.532903
0.0158241
-0.215733
0.530463
-0.31473
-0.143336
-0.0137859
0.157122
-0.18227
-0.0453654
-0.000631914
-0.0650614
0.449633
-0.362928
-0.086705
-0.029755
-0.16259
-0.0295332
0.192123
0.362282
-0.0355074
-0.0250895
-0.0514571
0.0765466
0.101415
-0.0152696
0.460285
-0.20671
-0.253576
0.105387
0.0298935
-0.13528
-0.0100003
0.00878932
0.00121094
-0.210219
0.208147
0.0020718
0.169968
0.0491908
-0.219158
0.00674743
-0.00145731
-0.430514
-0.145073
0.575587
-0.554745
0.153055
0.40169
-0.213608
-0.0069974
0.220605
0.000580883
-2.72523e-05
-0.00055363
-0.289676
0.21376
0.0759159
0.310836
-0.0643345
0.0740718
-0.00973736
-0.00397203
0.127634
0.193237
0.321926
-0.38755
0.0656244
-0.0222809
0.476041
-0.45376
0.367969
-0.492864
0.124895
0.0168911
-0.00145041
-0.0574609
-0.00857497
0.0660359
0.00101685
0.0530551
0.00630909
0.000438342
0.430333
-0.108408
-0.1177
-0.32051
0.414509
-0.43679
0.347526
-0.551362
0.203837
0.250456
0.347662
-0.000191108
0.00688031
-0.0066892
-0.557129
0.397642
0.159487
-0.145932
0.513901
-0.000939416
-0.0151942
0.0161336
0.549369
-0.416829
0.36173
-0.492828
0.131099
0.00472054
0.140025
-0.144745
-0.115184
0.109786
-0.00454302
-0.00545725
0.161502
-0.164832
0.00333025
-0.174853
-0.0174
-0.499005
0.189754
-0.142044
-0.0477094
0.42518
0.0285323
0.14741
-0.456755
-0.100374
-0.0370857
0.0386333
-0.0015476
0.337574
0.11206
-0.00214776
0.234507
-0.232359
0.342647
0.117639
0.00883179
-0.00755234
-0.00127944
-0.228736
0.000458719
0.00386019
-0.00431891
0.55966
-0.316138
-0.243522
-0.00667327
0.00862804
-0.00195478
0.0053821
-0.00557321
0.0647347
0.125019
-0.133555
0.578411
0.0675891
-0.0795945
0.120848
0.305044
0.308332
-0.048357
-0.0574639
0.0647426
-0.00727867
-0.315589
0.423008
-0.107419
0.0495536
-0.251569
0.202016
0.552921
-0.400229
-0.152691
0.735061
-0.461198
-0.273864
0.224822
-0.239226
0.0144048
0.300197
0.207166
0.00702622
0.344118
0.281968
0.0756323
-0.0330643
-0.0425679
0.113086
-0.440651
0.327566
-0.575735
0.446786
0.128949
-0.0015603
0.0279846
-0.0264243
-0.103796
-0.23647
0.340266
-0.0817942
0.483127
-0.401333
0.474864
-0.149394
-0.0676975
0.0625166
0.00518083
-0.364764
-0.142494
-0.000842086
-0.585475
0.550525
0.0349495
-0.311497
-0.707352
0.323593
0.383759
-0.0856788
-0.711146
0.146939
0.564207
0.333913
0.401149
-0.345989
0.119159
0.22683
0.0746492
-0.0997387
-0.0715669
0.00397889
0.067588
-0.110519
-0.160286
0.579718
-0.419433
-0.233819
-0.133624
-0.0831835
0.00990738
0.0536563
-0.0675495
0.0138932
-0.186146
0.184533
0.00161282
-0.229162
-0.0595987
0.288761
-0.425668
0.465494
-0.0398258
0.104811
-0.0027567
0.00321541
0.345783
-0.511242
0.165459
0.0087642
6.75854e-05
0.181771
-0.0202692
-0.00275237
0.00263992
0.000112449
0.0762843
-0.00393315
0.00209094
-0.00853304
0.0107694
-0.00223632
-0.0345338
0.111698
-0.0771646
0.00507482
0.000659217
-0.00573404
0.072723
0.00219473
-0.318149
0.457961
-0.354673
0.205115
0.0292049
0.00144803
-0.0306529
0.00412363
-0.00428097
0.548837
-0.119482
-0.392721
0.26935
0.123371
0.196374
-0.217263
0.432115
0.139552
-0.571667
0.575915
-0.254653
-0.321262
-0.0378341
-0.102185
0.140019
0.538305
-0.402876
-0.13543
0.765912
-0.431999
0.0199126
-0.2015
0.181587
-0.569338
0.138824
-0.0057871
-0.0657798
0.444373
-0.35938
-0.0849928
-0.336636
-0.00980844
0.346444
-0.604018
0.514125
0.0898928
0.126299
-0.116922
-0.00937648
0.0454388
-0.0424687
-0.00297017
-0.00214724
-0.000605126
0.00650788
0.218314
0.104517
0.339857
-0.0199393
0.0912082
0.0421983
0.00324054
-0.0555881
-0.281048
0.328889
0.437023
-0.0140697
0.0148876
-0.000817889
0.7109
-0.305074
-0.405826
-0.150749
-0.0437914
0.194541
0.568961
-0.493009
0.00680334
-0.0697366
0.00197837
-0.0023074
0.000329032
0.613417
-0.115317
-0.608767
0.26032
0.348447
-0.0234527
-0.134811
0.158264
0.356909
-0.438703
0.507152
-0.0253405
0.021749
0.00359155
0.248276
0.0625602
0.233145
0.477755
-0.553881
-0.039216
0.593097
0.37428
0.201635
0.479667
0.0586388
-0.00934847
0.0142857
-0.56258
0.0790042
-0.033396
-0.00368966
0.185439
0.107322
-0.292761
-0.221307
0.0160054
0.205302
-0.14656
-0.564586
-0.107567
-0.00443216
0.00646275
-0.00203059
0.0943566
-0.126347
0.0319906
0.000601707
-0.186813
0.186211
0.239934
-0.025821
-0.00287623
0.124981
-0.122104
0.325305
-0.260515
-0.06479
-0.358379
0.437739
-0.0793595
0.0110345
-0.0092832
-0.00175134
0.0640021
-0.0103457
0.140196
-0.0765266
-0.0636696
-0.185979
-0.103697
0.226881
-0.066091
-0.16079
-0.620709
0.474149
-0.413495
-0.00183772
0.415333
-0.57194
0.411654
-0.514716
0.6325
-0.117784
0.172089
-0.160094
-0.011995
0.000227828
0.000582928
0.480226
-0.367141
0.0528904
-0.478558
-0.0483441
0.266108
-0.217764
0.496616
-0.399913
-0.0967031
-0.054039
-0.308878
0.19801
0.127294
0.0556929
-0.271872
0.173702
-0.0250096
-0.148692
-0.0533852
0.0407542
0.012631
0.326629
-0.491584
0.164955
0.546506
-0.454033
-0.0924735
-0.135522
0.100988
0.000540229
-0.00163131
0.00109108
-0.152138
0.166386
-0.0142474
-0.158714
0.38564
-0.226926
0.419757
0.12908
-0.594284
0.436096
0.158188
-0.134697
-0.0776955
0.212393
0.0301783
-0.0348337
0.00465543
0.322435
-0.423874
0.101439
-0.027201
-0.0261842
-0.222763
0.175007
0.0477559
0.00139572
-0.000855489
0.413325
0.133181
-0.0345055
0.0351757
-0.000670234
0.00146248
-0.0994789
0.363718
-0.264239
0.0261349
0.200746
-0.527315
-0.0651221
-0.040043
0.220532
-0.180489
-0.211267
-0.102392
0.0165812
0.085811
-0.188896
0.515525
-0.441652
0.352182
-0.0894172
0.0836301
0.104892
0.0353038
0.206268
-0.280167
0.0738981
0.0347124
-0.0347253
1.29008e-05
0.11676
-0.0224034
-0.0112801
-0.0016945
0.0129746
0.333517
-0.600191
0.266673
-0.0623945
0.0663734
0.297704
-0.547153
-0.165577
-0.328245
0.307566
0.0206795
0.233716
0.0746165
0.00790807
0.505298
-0.177114
-0.328184
0.182028
-0.230372
0.393604
-0.492826
0.0992224
-0.00487573
0.00189892
0.143611
-0.183654
-0.180128
0.365566
-0.0148565
-0.00138767
0.0162442
-0.302397
0.202919
-0.0992247
0.543439
-0.404749
-0.00779203
-0.00128245
0.00907448
0.00259052
0.00617711
-0.00110229
0.00725741
-0.158891
0.158464
-0.0885027
0.756428
-0.427538
-0.143571
0.147999
-0.00442825
-0.407311
0.285647
0.121664
-0.0166034
-0.035274
0.031403
0.102916
0.0555478
-0.0719922
0.0776051
-0.0056129
-0.200067
0.707219
0.0630471
-0.231393
-0.11786
0.349253
0.0472439
-0.00951434
-0.0377296
0.00122225
-0.0300685
-0.00443701
0.00881841
-0.00698273
-0.00183568
-0.136302
0.150977
-0.0146748
0.0366338
-0.187383
0.00503229
-0.0210104
0.0159781
0.190831
-0.555112
0.364281
0.582492
-0.386379
-0.196113
-0.383872
0.143275
0.240597
0.415924
0.166568
0.188513
0.191671
-0.19107
-0.405437
0.128076
0.277362
0.451354
0.00187693
0.354866
0.0694993
0.142459
-0.448401
0.305942
-0.157946
0.0216432
0.336806
0.168492
-0.14136
0.577456
0.0641128
-0.0546937
-0.158029
-0.0266269
0.0344567
-0.00782978
-0.178489
-0.136087
0.0296325
0.252702
-0.046434
0.0140664
-0.0133676
-0.000698857
-0.00376481
0.0331738
-0.029409
-0.341462
0.527269
-0.185806
-0.0823454
-0.247168
0.329513
0.625129
-0.374673
0.116676
-0.119552
0.0310367
-0.000858395
0.00773445
0.118564
-0.00932442
-0.00116861
0.010493
-0.00133224
0.0140172
-0.012685
-0.00396814
0.123793
0.0165997
-0.00813307
-0.00846667
0.00145199
0.018271
-0.019723
-0.106878
0.103764
0.00311391
0.661133
-0.332629
-0.328504
-0.158221
0.567513
-0.000871903
-0.201901
0.0540242
0.167121
-0.130487
-0.656479
0.355486
0.300993
0.32456
0.336573
-0.391247
0.129337
0.26191
0.15343
-0.167216
0.0118519
-0.0127913
-0.0889956
0.411431
-0.0352012
0.0328274
0.00237385
-0.515865
-0.0131037
0.528969
-0.380956
0.325368
-0.313169
-0.245485
0.558654
0.0652378
-0.370703
0.305465
-0.0148114
-0.518455
0.10799
0.410465
0.32705
-0.446475
0.119425
0.180406
0.479682
-0.513149
-0.606127
0.00210866
-0.459372
0.11791
-0.383245
-0.191152
0.574397
-0.168418
0.0918183
0.0766002
-0.316654
0.507485
-0.0319331
0.240879
0.0368529
-0.277732
0.32093
-0.419491
0.0985617
-0.00544001
-0.0014771
0.00691711
-0.241181
-0.415298
-0.000787694
0.00122309
-0.000435392
0.380023
0.14235
-0.522372
0.0586586
0.207449
-0.358024
-0.0504246
0.408449
-0.140357
-0.00160408
0.376544
-0.590215
-0.0189862
0.200875
-0.181889
0.0307674
-0.0096857
-0.0210817
0.51862
-0.0988627
0.0120638
-0.233371
0.0749704
-0.118862
0.0438912
0.00438855
-0.068723
-0.0110679
-0.00246171
0.0135296
-0.217216
-0.223453
0.238636
-0.113576
-0.109098
0.00477524
0.324356
0.21855
-0.542906
-0.496309
-0.0575722
0.0425859
-0.0316557
-0.0109302
-0.513302
0.00379796
0.509504
0.0082342
-0.193954
0.00126607
0.000836015
-0.562703
0.0533706
0.509333
-0.0238653
0.505854
-0.481989
0.134783
-0.537112
0.402329
0.589554
-0.61012
0.0205663
0.46293
-0.138574
0.358533
-0.425613
0.0670799
0.453778
-0.10027
-0.0166567
-0.142418
0.159075
0.100495
0.311135
0.0168258
-0.0153739
-0.00401076
0.00449479
-0.00048403
0.00244864
-0.00273835
0.000289708
-0.0916278
-0.0767907
0.434872
-0.107822
-0.00186066
0.0310655
0.0608855
-0.060565
-0.000320491
-0.530317
0.411796
0.118521
0.0710724
-0.300234
-0.000522986
0.00297163
0.160094
-0.17908
-0.271173
-0.235333
0.163608
-0.0390104
-0.263172
-0.273635
0.00854876
0.343452
-0.462679
0.119227
-0.0955781
0.103408
-0.00782982
0.0370049
-0.00229246
-0.136172
0.156085
0.000215853
0.555687
-0.136839
-0.129588
0.473039
-0.0113459
0.0163782
0.564004
-0.13189
-0.164705
0.163266
0.00143942
0.0177427
-0.0942693
-0.144254
0.137546
-0.00394597
0.00143251
0.00251346
0.374
0.0173669
-0.391367
-0.23865
0.350067
0.057027
0.0705119
-0.303141
0.232629
-0.278713
-0.230076
0.508789
0.330808
0.103176
-0.433983
-0.528231
0.0149294
0.44286
0.110062
-0.552922
0.00263176
8.15733e-06
-0.538704
0.0228384
-0.115668
-0.570158
0.409084
0.101616
-0.111348
-0.268964
0.0789375
0.190026
0.156862
-0.162827
0.00596437
-0.0217152
0.26355
0.305892
-0.121024
0.387798
-0.266774
-0.127234
-0.247881
0.375116
0.215644
-0.00847792
-0.534991
0.151746
0.394035
0.124585
0.0553648
0.348344
-0.403709
0.535322
-0.412391
-0.53505
0.078295
0.154306
0.000334047
-0.15464
-0.0709997
0.000808238
0.00046171
-0.00126995
0.121251
-0.647393
0.251861
0.395533
0.0152434
-0.141054
-0.346808
-0.158345
-0.0209035
0.00168057
0.0176774
0.230289
-0.247966
0.120266
0.203525
-0.323791
0.268557
0.169571
-0.0424112
0.00312947
0.0392818
-0.295837
-0.162185
0.298876
-0.281199
0.0378359
-0.00737895
-0.0304569
-0.0306734
0.0329744
-0.00230093
-0.0125775
0.0661885
-0.053611
0.457496
-0.10997
0.443285
-0.562443
0.119158
0.000453088
-0.0240217
0.0235686
0.234731
-0.236879
-0.397587
0.0395629
-0.505304
0.226591
0.0109443
-0.224552
-0.0653411
0.329444
0.0179113
-0.347355
-0.0611835
0.453083
-0.0852671
0.0806421
0.00462498
0.00102274
0.554192
-0.110906
0.26101
-0.105265
-0.155745
-0.139343
0.115732
0.00378328
-0.420409
0.308285
0.112124
-0.172088
-0.325009
0.497097
-0.0661552
0.0725923
-0.0064371
0.648057
-0.414912
-0.143145
0.35091
-0.0600106
-0.2909
0.459817
-0.547181
0.0873639
0.0204178
-0.0199647
-0.0132005
0.00213254
-0.31198
0.377218
-0.174231
-0.0125818
0.268971
-0.441059
0.32451
0.105823
0.355308
0.124919
0.004433
0.152429
-0.00100742
-0.00171749
0.333867
0.314189
0.0251227
0.654657
-0.19484
-0.461329
-0.0877932
0.00324319
0.0381334
-0.0413766
-0.00101554
-0.000491691
0.00150723
2.22736e-05
-0.00403303
-0.0820845
0.0306275
-0.353147
0.408511
0.00311054
0.297103
-0.486102
0.188998
0.0296466
0.231364
0.00937147
-0.000734222
-0.00863725
0.00144493
-0.00318914
-0.00013237
-0.0447286
0.119699
0.473285
-0.00794311
-0.465342
-0.05537
-0.530105
-0.00517859
-0.110006
-0.0222861
-0.0129151
0.431455
-0.33096
0.0676162
0.21006
-0.277676
-0.373199
-0.17257
0.545769
0.175808
-0.0215017
0.06431
-0.0553204
-0.00898961
-0.0094784
-0.0529161
0.182935
-0.34165
0.447109
-0.101326
-0.478513
-0.142196
0.336427
-0.0069829
0.000220979
-0.244745
-0.139127
-0.334014
-0.106637
-0.195716
-0.386364
0.000475806
-0.00301579
0.213765
-0.537355
0.323591
0.107376
-0.447867
0.340491
-0.50282
-0.0598833
-0.00440006
-0.0559469
0.0603469
0.128548
-0.152001
-0.27795
0.28244
-0.103181
-0.427136
0.280864
-0.213247
-0.000106586
-0.0926046
0.325607
-0.233003
-0.00307595
0.0704093
-0.385592
0.520376
0.488973
-0.540084
0.0511109
0.214552
-0.307157
-0.191539
0.15164
0.0398995
-0.223884
0.282543
0.00394903
0.204198
0.0147889
-0.0172506
0.2168
-0.187103
-0.0296965
-0.118841
-0.0772689
0.00239827
0.0584872
0.236748
0.38838
-0.108589
-0.339812
0.094852
0.347317
-0.442169
-0.00221408
0.00268989
0.00583679
-0.000177671
-0.00618735
0.00636502
0.00863681
-0.101138
0.092501
0.52418
-0.417203
-0.106977
-0.56693
0.0884176
0.0138945
0.00299666
0.148202
-0.363935
-0.00193068
5.65109e-05
0.00187417
0.000305002
-0.00251909
0.443638
-0.336263
0.106392
0.380759
-0.48715
-0.000136237
0.00802888
-0.00789264
0.256191
0.0540073
-0.310199
0.188386
0.0502493
0.372066
0.0477658
-0.00353632
0.00394733
-0.000411016
-0.298579
-0.194285
-0.00780431
0.100317
-0.0925129
0.632158
-0.251159
-0.380999
0.216521
0.383706
0.0156598
-0.00176536
-0.238539
0.00521666
0.233322
0.0762295
-0.0962223
-0.0586185
0.0599695
-0.00135098
0.0488158
-0.44368
-0.328611
0.423463
0.0374668
0.00511909
-0.228455
7.75856e-05
0.228377
-0.318816
0.451623
-0.118106
0.443505
-0.118995
-0.00778177
-0.252403
0.186312
-0.0705552
0.305556
0.125899
-0.438817
0.511328
-0.0725116
0.112271
0.384345
-0.00424691
0.00698206
-0.00273516
-0.440182
-0.160008
-0.546806
0.104076
0.44273
-0.0989844
-0.00974857
0.108733
0.112431
0.497513
-0.202612
0.273124
0.495947
0.00854291
-0.50449
-0.122925
0.140668
-0.42521
-0.0920072
0.517217
0.433121
-0.123766
-0.309354
0.0291265
0.0078784
-0.117541
0.53526
-0.41772
0.014132
-0.00748636
-0.0182372
-0.318464
0.0909926
-0.0712608
-0.0197318
-0.124727
-0.48404
0.391763
-0.000795667
-0.00148931
0.00932855
-0.00783924
-0.203452
-0.123399
0.0350634
-0.00593694
0.320332
-0.381516
-0.0392872
-0.461594
-0.111898
0.397319
-0.128761
-0.0136728
-0.0540247
0.117963
0.425476
0.395424
-0.513121
0.117697
0.438618
-0.462483
-0.103627
-0.00480895
-0.0301721
0.0349811
-0.0987905
-0.335844
0.434634
0.236701
-0.379339
0.142638
0.00757593
0.193299
0.613101
-0.45529
0.0357266
-0.0324834
0.282805
0.152067
-0.00888901
-0.000661643
0.520613
-0.40265
0.239278
0.00480802
0.0259594
0.101825
-0.0906777
-0.0111476
0.434595
-0.422848
-0.0117471
-0.327048
0.199813
-0.0576017
0.00158046
-0.00127546
-0.0345551
0.0430551
-0.00849998
0.357213
-0.513688
0.156475
-0.309768
-0.103727
0.422263
-0.341042
-0.0812204
0.466162
0.105874
-0.572035
0.551522
-0.0853602
-0.10666
0.0168448
-0.0169599
0.0898745
-0.0564732
-0.0334013
0.353209
0.0690536
-0.00111936
0.155995
-0.154876
-0.0814762
0.407918
-0.326442
0.313941
0.11918
-0.00505735
0.00445949
0.000597865
-0.00831953
-0.109288
0.299045
-0.0507687
0.236052
0.00429201
-0.544096
0.426555
0.492574
-0.135361
0.0598716
0.031121
0.300899
-0.0447073
0.00764318
-0.0790651
0.335307
-0.0785749
-0.256732
0.279586
-0.164878
0.504
0.131754
0.403553
0.149368
0.150981
0.196503
-0.000128191
-0.00149259
-0.0129409
0.0144335
-0.571191
0.02872
-0.45393
-0.40896
-0.145785
-0.334454
0.632158
-0.0372823
-0.167896
0.205179
0.486825
-0.244117
0.46704
0.0332269
-0.0351975
0.00197058
0.0691824
-0.00531893
-0.257062
0.20413
0.0529321
0.474361
-0.119053
0.00229977
0.0143
0.495315
-0.198212
-0.076239
0.289588
-0.213349
0.00104933
-0.0123294
-0.327416
-0.079895
0.246576
-0.0629723
0.00702539
0.0344207
0.00757211
0.125844
-0.133417
0.0567372
0.0331373
-0.209052
0.0717952
0.137257
0.641164
-0.444817
-0.196347
0.57861
-0.364845
-0.508059
0.392807
0.115252
0.0414996
-0.394646
0.0153566
-0.117002
-0.0530255
0.427026
0.43105
-0.346836
-0.30943
0.238215
0.071215
0.240423
-0.0225115
-0.217912
0.107126
-0.144409
-0.114784
-0.429311
-0.00502152
-0.496751
0.198172
0.0169659
0.333944
-0.00157331
0.00732064
-0.00574732
0.010053
0.0264631
-0.0365161
-0.106079
0.161079
-0.00680308
-0.154276
-0.000416061
0.00240294
-0.00198688
-0.610205
0.17992
0.430286
-0.191615
0.327496
-0.232162
-0.261909
-0.142112
0.404021
0.0906607
0.0111646
0.00653813
0.183524
-0.00184497
-0.181679
-0.326208
0.375024
-0.633934
0.382775
-0.450194
0.316317
0.133877
0.165409
-0.499958
0.0154812
-0.416396
0.245577
-0.423799
-0.0360205
0.141407
-0.00353553
-0.00041044
0.263751
-0.449379
0.185628
0.00415338
-0.00159818
-0.00255521
0.165016
-0.135122
0.0151992
-0.0167595
0.153176
0.0644994
-0.217675
-0.521316
0.0597222
0.0595245
-0.0494715
0.0529913
0.000587252
0.10174
0.25633
-0.35807
-0.325718
0.0811596
0.244559
0.0523834
0.114942
-0.167325
0.0323007
-0.0321661
0.288562
-0.0548462
0.042671
-0.374434
0.415934
-0.504753
-0.044938
0.549691
-0.0105299
0.0813386
0.227733
-0.132982
0.415787
0.0750027
0.260305
0.00603659
-0.00823644
0.00219984
0.0938431
-0.0193688
-0.0744743
0.0926516
-0.549121
-0.169909
0.173055
-0.00314651
-0.0824926
0.0911294
0.0174235
-0.45624
0.344444
0.13661
-0.481054
-0.11828
0.332832
-0.156284
0.420035
-0.0248497
-0.393108
0.417958
-0.484932
-0.0844054
-0.00632871
0.418475
-0.0686858
0.015694
-0.000905085
-0.237727
-0.128513
0.124545
-0.120941
0.229454
0.0712833
-0.300737
-0.600897
0.18458
0.416316
0.410996
-0.496318
0.0853214
-0.00522827
0.218291
0.00244055
0.00171283
-0.557698
0.154856
0.402842
0.00973453
0.0796945
-0.089429
0.0358072
-0.00258032
-0.135482
-0.0312942
0.381632
-0.491286
0.109654
-0.0083424
0.122664
0.013063
-0.0135586
0.216385
-0.164002
-0.183506
-0.0468386
0.230345
-0.243923
0.0027903
0.241132
-0.360217
0.0117958
-0.525937
0.514141
0.0365304
-0.172702
-0.00646401
0.0933225
-0.0868585
0.211737
0.392609
0.62456
-0.260241
-0.36432
-0.633259
0.202352
0.430907
0.0642009
-0.273089
0.208888
0.0319526
-0.00396803
0.496714
-0.21919
-0.277524
-0.563167
0.191816
0.371351
-0.00434455
0.16424
-0.0108094
-0.500873
0.39006
0.110813
0.407604
-0.17815
0.00232059
-0.000740126
0.0562127
-0.0525575
-0.0036552
0.3398
-0.432333
0.0925329
0.0109077
0.296658
0.329149
-0.348374
-0.000668106
0.00147634
-0.0950604
-0.47187
-0.00328325
0.22832
-0.225037
-0.241954
-0.00427011
0.246224
0.00261319
0.0399041
-0.0425173
0.38651
-0.0558764
-0.138492
0.144797
-0.00630505
-0.43338
0.031511
-0.00229539
0.000496575
0.00179882
-0.0374216
0.0411197
-0.00369805
0.22504
-0.228324
0.236031
-0.00152392
-0.0402763
0.00285469
0.0813712
-0.0716367
0.405829
-0.306523
-0.0969059
0.403429
0.111896
0.265055
-0.376951
-0.380065
-0.177633
0.514978
-0.0182639
-0.414154
0.335207
0.0789466
-0.217338
0.628334
-0.0106526
0.0607689
-0.0501163
-0.00595217
-0.142999
0.148952
0.434775
-0.542405
0.10763
0.20964
-0.42484
0.489367
-0.0645274
0.14541
0.00556732
0.640011
-0.257596
-0.510091
0.056058
-0.416593
0.11007
0.0445619
-0.444475
-0.260794
0.362534
-0.00457803
0.137249
0.50547
0.00950732
-0.137461
0.0603991
0.155035
-0.102516
-0.00277945
0.231523
-0.352547
-0.107787
-0.256283
0.36407
0.205033
0.419527
0.0112976
0.0811359
-0.0924335
0.100361
-0.112728
0.0123677
-0.119583
-0.320065
0.485474
-0.10002
0.00367665
0.117037
-0.120714
0.015978
-0.018384
0.00240598
0.383996
-0.252539
-0.131457
-0.00101414
-0.00200164
0.524511
-0.163203
-0.361308
0.0965486
-0.359561
0.263013
0.590355
-0.252175
-0.33818
0.00205654
0.000554054
0.00701248
0.115639
-0.122651
0.212167
0.380377
-0.130294
0.151056
-0.468881
-0.104796
-0.396077
-0.13951
-0.0233167
0.579896
-0.151984
-0.427913
0.364301
-0.228708
-0.135593
0.0959359
0.439386
-0.026635
-0.0136412
0.352954
-0.256405
0.125866
0.238434
0.471875
-0.127757
0.147409
-0.0121975
-0.135212
0.00728166
0.220487
0.259179
0.293191
0.119798
-0.412988
-0.00309896
-0.154537
0.157636
0.511739
-0.415803
-0.210571
-0.0464906
-0.00918156
-0.149343
0.158525
0.192563
-0.000891736
-0.480731
-0.0472024
0.527934
0.429512
-0.115572
-0.49907
0.564883
-0.0658129
0.0531867
-0.277071
0.46207
0.127484
0.0165543
-0.00913095
-0.00742336
-0.128216
0.00359225
0.124623
0.00373301
-0.185788
-0.040437
0.0356281
0.12998
-0.0620371
-0.0679427
0.161003
0.418893
0.155652
0.0351084
-0.0723889
-0.00969567
-0.0465509
-0.23158
0.284767
0.24999
0.0490548
0.00442351
0.000803332
-0.0828906
0.00919995
0.0736906
-0.419378
0.0599978
-0.537282
0.0159663
-0.190508
-0.0534151
0.244731
0.260739
-0.158941
0.14976
0.127372
-0.359534
0.00212371
0.0191908
-0.0213145
0.40625
0.184106
0.123426
-0.365681
0.242255
-0.269635
0.347118
-0.0774834
-0.000117707
-0.0150765
-0.453971
0.23478
0.000668192
0.00870328
-0.0830946
0.0933949
-0.0103003
0.0127217
0.00141031
-0.119517
0.114338
-0.536783
0.359669
-0.374468
-0.259466
0.0369335
-0.0343203
0.00683825
-0.00701592
0.00819532
0.0731759
0.125784
0.0222432
-0.483015
-0.0267529
0.509767
0.020831
-0.00776796
0.0771877
0.434551
0.158011
0.219318
-0.37733
-0.00169555
0.00311706
-0.00142151
-0.139891
0.533926
0.0639312
0.471139
-0.250651
-0.105169
-0.384141
0.48931
0.582762
-0.391192
-0.19157
-0.269823
-0.109516
-0.459365
-0.103215
-0.129872
-0.225594
0.355466
0.371955
0.0575662
-0.429521
-0.00429398
-0.02737
0.031664
0.360355
0.114006
0.594968
-0.587696
-0.00727237
0.193383
-0.18965
-0.00129156
-0.0181764
0.100692
-0.0825155
0.280841
0.24367
-0.0130574
-0.437355
-0.131797
0.0342162
-0.037981
-0.601566
0.466798
0.134768
-0.208429
0.00692918
-0.293679
0.0517247
-0.512342
-0.0892243
0.0142139
0.00234038
-0.071593
0.113622
0.0163577
-0.25208
0.496811
-0.0660137
0.181164
-0.115151
0.260604
0.162404
0.176445
0.000278673
-0.176723
-0.00365721
0.00196166
0.00133777
-0.476239
-0.0285137
-0.00246512
0.0184431
-0.198128
0.444065
-0.245936
-0.515464
-0.0946559
0.36149
0.137811
-0.499301
-0.211646
-0.0885663
0.300212
-0.110317
0.0840826
0.0262342
-0.307726
-0.00518214
0.312908
-0.112504
0.672743
-0.46767
-0.205074
0.351817
-0.280534
0.0110683
0.0827748
-0.0647388
0.0739387
-0.211735
-0.0515295
0.263264
-0.450836
0.334455
0.116381
0.0114787
0.44039
-0.10059
0.0111175
-0.112706
0.101589
-0.363161
0.255375
-0.00250751
-0.00708651
0.0762689
-0.409693
-0.126097
0.53579
0.492093
-0.0992858
0.36974
-0.00583148
0.00569524
-0.124512
0.482452
-0.357941
-0.0956631
0.503791
-0.426603
-0.310287
-0.0932154
0.403502
-0.206322
0.326588
-0.285503
0.0542864
0.231217
-0.0153193
0.00618834
0.156031
-0.15715
-0.0901811
-0.00135309
0.00310535
0.0391841
-0.0309888
-0.274646
-0.226086
-0.0594173
0.0137164
-0.0150486
0.386538
0.00697093
0.0656213
-0.290698
0.233323
0.0573745
-0.0988668
-0.351969
0.112139
-0.108463
-0.298407
-0.000902985
-0.00106391
0.0019669
0.034746
-0.0366066
0.316391
-0.243144
-0.380516
0.486908
-0.0698332
0.0591806
0.0159408
-0.0138171
0.0164245
0.00440647
0.0423355
-0.0488022
0.00646672
-0.224342
-0.290334
0.514676
-0.363687
0.550964
-0.187277
0.392668
0.110837
-0.503505
-0.0389025
0.0358876
0.0030149
0.426437
0.0352663
-0.461704
-0.515992
0.136628
0.379364
0.606227
-0.348445
-0.123874
0.317366
-0.505554
0.141867
0.00655713
0.112734
-0.0812941
0.0738281
0.00746598
-0.43746
0.364434
0.073026
0.282462
0.300302
-0.355445
0.0551434
-0.000878004
0.366863
0.273149
0.0577169
0.00357072
-0.0612876
0.0380998
-0.0442624
0.00616252
0.577493
-0.133681
-0.259178
0.392859
0.120195
-0.60321
0.000649636
0.0365519
-0.00341624
-0.0331357
-0.334921
0.256346
0.132173
-0.394082
-0.586274
0.216836
0.369437
0.222838
0.112787
-0.335625
-0.151493
-0.0400465
0.00372125
0.211922
0.279243
-0.503585
0.000207545
-0.00124759
0.184772
-0.604805
0.344564
-0.169741
0.123753
-0.0208925
-0.102861
-0.00288727
-0.0040807
0.00696796
0.384694
0.1074
-0.167206
-0.00881929
0.176025
-0.0127225
0.0873717
-0.179589
-0.329569
0.241889
0.0876804
-0.433467
0.0705387
-0.0334442
-0.0947714
0.446904
-0.0749494
0.119764
0.0146239
-0.0430506
0.57677
-0.303295
-0.541599
0.401706
0.139894
-0.0629372