/*--------------------------------*- C++ -*----------------------------------*\
| =========                 |                                                 |
| \\      /  F ield         | OpenFOAM: The Open Source CFD Toolbox           |
|  \\    /   O peration     | Version:  v2012                                 |
|   \\  /    A nd           | Website:  www.openfoam.com                      |
|    \\/     M anipulation  |                                                 |
\*---------------------------------------------------------------------------*/
FoamFile
{
    version     2.0;
    format      ascii;
    class       volVectorField;
    location    "300";
    object      U;
}
// * * * * * * * * * * * * * * * * * * * * * * * * * * * * * * * * * * * * * //

dimensions      [0 1 -1 0 0 0 0];


internalField   nonuniform List<vector> 
14804
(
(0.991148 0.00031159 -2.05559e-22)
(0.993523 0.000614926 1.54176e-21)
(0.811115 0.0991006 7.68328e-23)
(0.996546 0.00200992 -2.34707e-21)
(1.10751 0.0457764 -1.02639e-20)
(1.03125 0.0341366 0)
(0.114868 0.0124149 0)
(1.09325 0.0622425 0)
(1.01111 0.00156868 -1.22744e-22)
(0.999346 0.000643376 -1.36163e-23)
(1.01892 0.000907818 -3.08089e-23)
(-0.070401 0.0138302 2.66397e-20)
(0.973107 0.0023446 3.69955e-22)
(0.866815 0.0484761 -1.96043e-22)
(0.359843 0.0537402 -2.13189e-20)
(1.04518 0.0332888 -3.70354e-23)
(0.00858343 0.00581838 3.39331e-23)
(0.907502 0.0488838 8.41629e-22)
(1.04625 0.0332716 0)
(0.990756 0.000297688 9.42017e-24)
(1.00019 0.00349226 -1.9869e-21)
(1.10602 0.0462594 3.63901e-20)
(1.02021 0.0147414 5.22545e-22)
(1.04366 0.0361259 -1.38458e-20)
(0.8798 0.0163034 -3.26578e-22)
(0.124802 0.0123469 -2.24451e-20)
(0.0993689 0.00912647 0)
(1.01205 0.0120702 -7.10849e-21)
(0.359271 0.0556975 2.35838e-20)
(0.370187 0.0538838 0)
(0.443738 0.0561601 2.60267e-21)
(0.00504903 0.00511834 -4.96302e-21)
(1.08195 0.0439012 -2.30384e-20)
(1.0918 0.0631699 0)
(0.804594 0.101757 -8.51021e-21)
(0.997416 0.00259811 0)
(1.01098 0.00322281 3.62597e-21)
(1.04254 0.034964 1.35533e-20)
(1.13363 0.108811 -7.90994e-21)
(0.990018 0.000218126 -1.77231e-22)
(1.12777 0.111822 0)
(1.138 0.107426 -4.02682e-20)
(1.06489 0.102456 0)
(1.06505 0.0252769 0)
(0.727651 0.0441249 0)
(0.280478 0.0564714 0)
(1.11947 0.110977 0)
(0.996602 0.00192024 1.18644e-21)
(1.05754 0.0875206 1.16062e-20)
(1.00003 0.00338402 1.71994e-21)
(1.02038 0.0161194 3.38414e-22)
(0.993193 0.000316813 2.32542e-21)
(1.00463 0.00125437 2.56917e-22)
(1.02038 0.0151247 0)
(1.08198 0.0450922 5.18519e-20)
(1.01162 0.0116856 6.35785e-21)
(0.11076 0.0094552 0)
(0.0200402 0.00860151 -7.67718e-21)
(0.667385 0.0207588 2.64063e-21)
(0.955964 0.00169734 -3.1659e-22)
(0.013327 0.00691867 0)
(0.828747 0.104552 1.97379e-20)
(0.990699 0.00028856 2.80516e-22)
(0.993283 0.000595229 -1.37306e-21)
(1.07561 0.0292619 1.72041e-20)
(-0.0648786 0.0101067 -3.0775e-20)
(0.835067 0.00487525 -2.96431e-22)
(1.01367 0.0057908 -5.35329e-22)
(1.00005 0.000674265 7.69969e-24)
(1.03663 0.0364654 -4.86267e-21)
(1.0548 0.0438921 -9.83589e-21)
(1.01295 0.00572183 -5.81422e-22)
(1.07939 0.02577 -1.02862e-20)
(1.09366 0.0773436 -1.55867e-20)
(0.817733 0.102585 4.06461e-21)
(1.01982 0.0159461 5.46744e-21)
(1.04084 0.0194954 0)
(1.06464 0.0857757 3.19303e-21)
(0.989552 0.000202586 0)
(1.02224 0.0418398 1.34006e-22)
(1.02274 0.0412971 0)
(1.01765 0.00103111 1.31476e-23)
(1.10961 0.0740199 2.6991e-20)
(0.27291 0.0317937 0)
(0.993571 6.84384e-05 0)
(1.0368 0.0214431 2.76177e-21)
(0.989501 9.37163e-05 0)
(1.0007 0.00411711 0)
(1.07955 0.0559829 -1.42141e-20)
(1.08093 0.0554131 -1.49738e-20)
(0.763374 0.0889855 1.44102e-21)
(1.00036 0.00377742 0)
(0.989902 0.000199839 5.64895e-23)
(1.02706 0.011209 7.02374e-21)
(1.00172 0.000724523 2.73161e-23)
(0.321909 0.0469866 1.64109e-20)
(0.992727 0.000303117 5.03952e-22)
(0.768482 0.0464497 2.51428e-22)
(1.04068 0.0413445 6.19891e-21)
(1.01717 0.00102821 0)
(0.251531 0.0540126 0)
(0.783589 0.102588 -1.94871e-22)
(1.11411 0.107747 -3.77918e-20)
(1.07754 0.0297776 -2.24862e-20)
(1.11235 0.0978641 2.03081e-21)
(0.834634 0.0151718 5.45238e-23)
(1.02405 0.0274222 2.60283e-21)
(0.991139 0.000196737 -2.3662e-22)
(1.0418 0.0420167 -1.31051e-20)
(-0.00072536 -0.0492408 -2.80532e-21)
(0.991463 0.00028221 0)
(1.02362 0.0271746 -4.61488e-21)
(-0.0238315 0.00486762 -1.77887e-20)
(1.09752 0.0716326 2.4345e-20)
(1.05943 0.0505598 -7.15554e-21)
(0.807611 0.100882 4.60212e-20)
(1.10784 0.110924 -1.84569e-20)
(1.06374 0.104994 0)
(1.04453 0.0348635 -9.95483e-21)
(0.995709 0.000726744 -2.6913e-22)
(0.78417 0.0985007 0)
(1.1111 0.0969675 0)
(1.02709 0.010806 -3.86174e-21)
(1.11059 0.0754922 -1.01583e-20)
(1.0455 0.0348159 1.815e-20)
(1.0987 0.0730111 -3.2804e-20)
(0.990455 0.000206937 1.38533e-21)
(0.987544 -5.83365e-05 0)
(1.09276 0.0612575 0)
(0.358172 0.0506129 4.20101e-21)
(0.990494 0.000260353 6.23313e-22)
(0.319418 0.04729 -7.84976e-23)
(1.01011 0.00154001 -1.35055e-22)
(0.476644 0.0472708 4.32678e-21)
(1.00436 0.00123418 -3.57109e-22)
(0.754431 0.0851647 1.46071e-23)
(1.14979 0.113197 3.09982e-20)
(1.01745 0.00536767 0)
(0.786314 0.0982573 0)
(0.539931 0.0241415 3.60195e-21)
(1.01134 0.00289433 0)
(1.00885 0.00146396 0)
(1.01689 0.00535717 0)
(1.06673 0.0257689 0)
(1.13457 0.111565 -2.76665e-20)
(1.0123 0.00909468 -7.91087e-22)
(1.09992 0.109519 1.60857e-20)
(1.13374 0.110175 -2.74968e-20)
(0.236991 0.0283417 0)
(1.02252 0.0258935 3.32459e-21)
(0.822636 0.00462832 2.50128e-22)
(0.990605 0.000281639 -5.67966e-22)
(1.11129 0.108337 0)
(1.13897 0.112749 3.27263e-20)
(0.991405 0.000344375 2.96096e-22)
(0.990801 0.000328093 -3.0412e-22)
(0.780599 0.0154262 -1.36131e-22)
(1.07201 0.0344418 1.90792e-20)
(1.03261 0.0222947 0)
(0.248059 0.0312359 0)
(1.01712 0.0138986 5.84425e-21)
(1.00036 0.000831322 -3.69039e-22)
(0.987807 -8.02058e-05 4.3505e-22)
(1.00982 0.0014933 2.13179e-22)
(1.06962 0.0506326 -3.52934e-20)
(0.0664799 0.0389694 -8.02216e-22)
(0.988271 -4.72456e-05 2.89855e-22)
(1.00174 0.000725701 2.1115e-23)
(1.02475 0.00496981 1.62891e-22)
(1.07064 0.0345828 -3.16898e-20)
(1.01671 0.0137371 -6.82664e-22)
(1.07927 0.0245232 6.57141e-21)
(0.671636 0.091482 1.4676e-20)
(1.0126 0.00900642 1.81041e-21)
(1.02164 0.079489 0)
(0.211002 0.031408 -3.01326e-20)
(1.07651 0.111983 -1.38938e-20)
(-0.048524 0.00842186 -3.32565e-20)
(0.718268 0.0959384 1.25745e-20)
(1.02405 0.00486688 -4.27212e-24)
(1.00404 0.00127576 2.77271e-22)
(1.05607 0.0859886 -1.00042e-20)
(1.03237 0.0164747 -2.05008e-23)
(0.691733 0.0235286 4.51691e-23)
(1.00073 0.00106879 -4.40625e-22)
(0.792248 0.0990354 -2.13949e-20)
(0.782979 0.0879339 -2.07979e-21)
(0.177152 0.0300038 -3.88832e-21)
(0.464457 0.042334 -2.11224e-21)
(0.988522 -8.37591e-05 3.23025e-22)
(1.00947 0.00959413 2.71158e-21)
(0.771575 0.101264 -9.04025e-21)
(-0.0260075 0.0434594 1.96401e-20)
(0.678409 0.00942588 2.95148e-22)
(0.46027 0.0753858 -2.25461e-21)
(0.673052 0.0475598 -1.34859e-21)
(0.615045 0.0889171 -6.78629e-22)
(0.170969 0.028317 4.42508e-21)
(1.0325 0.0159618 0)
(0.474352 0.0764168 -1.94043e-20)
(1.02705 0.016848 0)
(1.00742 0.00820313 0)
(1.00062 0.00084851 -1.02211e-22)
(0.904372 0.109466 0)
(1.0315 0.0350126 0)
(1.096 0.0981911 -9.07599e-21)
(0.410248 0.0510957 -1.73543e-21)
(0.919131 0.0161778 -4.96271e-22)
(1.09537 0.0782079 0)
(1.02557 0.0114089 0)
(0.989313 2.19295e-05 0)
(0.738979 0.0952449 1.12564e-20)
(1.00816 0.00146386 0)
(0.996813 0.00223619 1.12201e-21)
(0.483195 0.0753042 7.85624e-21)
(1.02677 0.00175537 0)
(0.866732 0.000919502 1.31447e-23)
(1.03454 0.00350507 1.20045e-20)
(1.13962 0.112116 -3.28066e-20)
(0.889803 0.0159373 3.08879e-22)
(1.03742 0.0611336 7.51679e-21)
(0.551648 0.038853 5.08348e-21)
(1.00607 0.00136872 5.91109e-21)
(1.02497 0.00485705 -9.81796e-23)
(0.267913 0.0575239 3.08807e-20)
(1.09721 0.0975065 -1.14614e-20)
(0.204996 0.0299118 2.92796e-20)
(1.02724 0.00192422 4.50605e-24)
(0.840118 0.00503453 9.52755e-23)
(1.05719 0.109642 0)
(1.06631 0.0869665 0)
(0.437355 0.074702 -5.31083e-21)
(1.02961 0.0176003 1.41564e-20)
(1.02642 0.0116426 1.71471e-21)
(0.610923 0.0349565 1.75562e-21)
(1.03589 0.0210638 -8.73626e-22)
(0.868263 0.106539 0)
(0.650847 0.0908667 -6.08654e-21)
(1.04639 0.0175735 0)
(0.487666 0.0201583 -8.35924e-23)
(0.0976909 0.0139248 1.88977e-20)
(1.05518 0.0824801 -2.50233e-21)
(0.767248 0.0555695 0)
(0.103255 0.0303708 -5.06455e-21)
(1.00279 0.000886189 1.08372e-20)
(0.994251 0.000710195 1.04583e-21)
(1.05112 0.0744858 7.42508e-21)
(0.00912308 0.00798616 6.08576e-20)
(1.09138 0.0572857 -2.01109e-20)
(1.09168 0.0239614 1.34482e-20)
(0.797089 0.101488 -1.50629e-23)
(0.810926 0.104336 -1.31266e-20)
(1.00384 0.00123788 0)
(1.01718 0.0167854 5.10501e-22)
(0.994667 0.000439176 -3.24628e-21)
(1.01464 0.00485857 2.14464e-23)
(0.266757 0.0299542 0)
(0.778195 0.102003 1.64773e-22)
(0.488048 0.0778528 7.5984e-21)
(0.0954652 0.028484 0)
(1.01729 0.0166517 0)
(0.864908 0.0160243 -1.7995e-22)
(0.996122 0.000711334 1.65481e-21)
(1.02056 0.00474458 8.28353e-23)
(1.00923 0.00933926 -3.79504e-21)
(0.154127 0.0133325 1.28788e-20)
(1.02245 0.00647176 4.26067e-23)
(1.00234 0.00507118 -1.31789e-23)
(0.27316 0.029378 0)
(0.99037 0.000258874 -1.01133e-23)
(1.02795 0.0103045 2.42501e-20)
(1.06708 0.108617 5.476e-21)
(1.12309 0.109875 0)
(0.106023 0.0146753 -2.29947e-20)
(1.12559 0.0830136 0)
(0.649882 0.0388357 -3.55671e-21)
(0.989303 6.4357e-05 -1.31799e-21)
(1.08879 0.0902479 0)
(0.990243 0.000249483 -1.26408e-22)
(0.539659 0.0353412 -4.59136e-21)
(1.02306 0.00661246 -3.50385e-21)
(0.49405 0.0748338 0)
(1.02878 0.0173415 -1.31204e-20)
(1.0538 0.0710503 0)
(1.04576 0.0181565 -1.51899e-20)
(0.140314 0.0301059 -4.33837e-20)
(1.04468 0.0360967 1.57761e-20)
(0.086572 0.0120308 2.8369e-20)
(1.01827 0.0148393 -6.81111e-21)
(0.14749 0.0306187 -3.59976e-20)
(0.139171 0.0102487 -2.83e-20)
(1.08741 0.0905561 1.8098e-20)
(1.02215 0.00480894 -5.24844e-23)
(0.885027 0.109837 -4.00639e-20)
(1.04155 0.0350436 1.9186e-20)
(1.05868 0.0514047 6.65758e-21)
(0.773949 0.102191 1.85696e-20)
(1.04206 0.00438109 3.60043e-21)
(1.10314 0.0440583 1.04222e-20)
(0.989066 0.00011655 3.44595e-22)
(1.00877 0.00123977 0)
(1.04077 0.0677749 -1.13289e-21)
(1.01772 0.0146924 -1.07172e-20)
(1.06295 0.0862993 1.01663e-20)
(1.00571 0.00135586 -3.41828e-21)
(0.284826 0.00226259 -2.1172e-23)
(0.809565 0.00509271 7.57651e-23)
(1.02472 0.0118262 1.29582e-20)
(0.258611 0.069241 0)
(1.02387 0.0414457 -2.25707e-22)
(0.991697 0.000285816 -2.36019e-21)
(1.03494 0.00381785 -1.84154e-20)
(0.694416 0.0933869 1.596e-20)
(0.997127 0.00234871 1.22705e-21)
(1.04471 0.110454 2.63751e-21)
(0.988762 -7.06347e-05 -1.35072e-22)
(1.02344 0.0421285 -5.77329e-22)
(0.988146 -5.48727e-05 2.8479e-22)
(1.13654 0.110174 -3.62046e-21)
(0.98843 -0.000131331 -5.42036e-22)
(1.00867 0.0012333 0)
(1.04892 0.0305326 -1.00601e-20)
(0.921616 0.10893 0)
(0.344764 0.0339722 0)
(1.02799 0.0108182 -1.24812e-20)
(0.998831 0.00290459 -7.45074e-22)
(1.03832 0.0623526 -1.28647e-20)
(0.777728 0.0982087 -2.74437e-20)
(0.739674 0.0993678 0)
(1.13208 0.0667107 -2.17995e-20)
(1.02493 0.0568557 -3.04769e-22)
(1.00326 0.00428505 0)
(1.04155 0.00380473 0)
(0.0718001 0.00869015 0)
(1.01157 0.00761248 0)
(0.132837 0.0283081 4.5842e-20)
(1.12478 0.0840456 -3.43901e-21)
(0.0503591 0.00700145 0)
(0.81858 0.1004 4.46494e-20)
(0.135801 0.0276555 3.23731e-20)
(0.184081 0.0305741 -7.74169e-21)
(1.09005 0.108477 7.58801e-21)
(0.0514959 0.0249608 4.55681e-20)
(0.779491 0.0977402 -4.07048e-20)
(1.00736 0.00141338 -3.50463e-22)
(1.04044 0.0188693 0)
(0.327213 0.0630804 -4.75027e-21)
(-0.0198346 0.0449007 0)
(1.0077 0.00819821 6.47396e-22)
(1.04071 0.0361926 -1.29344e-20)
(1.09331 0.0753964 2.64828e-20)
(0.994524 0.000591414 0)
(0.997278 0.00269224 0)
(0.595999 0.0573523 4.2284e-22)
(1.00435 0.00669458 3.34159e-21)
(1.00754 0.0011672 2.80166e-22)
(0.972759 0.0890781 7.79634e-24)
(1.0015 0.000712833 -7.42019e-21)
(0.360997 0.039969 0)
(1.04145 0.00735998 0)
(1.02496 0.0496403 1.93201e-21)
(0.990596 0.000228687 1.15534e-21)
(0.913852 0.10868 0)
(0.554103 0.0781037 0)
(0.0567204 0.00883219 -2.28218e-22)
(1.03949 0.067549 -2.35063e-21)
(1.04075 0.00769205 6.50458e-21)
(0.346979 -0.0141638 3.28978e-21)
(0.53766 0.075916 0)
(1.0257 0.050249 -2.58195e-21)
(1.00747 0.00116267 9.55326e-23)
(0.252948 0.0310272 1.58164e-20)
(1.00509 0.00105413 0)
(0.601286 0.0151684 4.02466e-21)
(1.01733 0.000931715 1.4613e-23)
(0.711858 0.0923813 -3.74335e-20)
(-0.00783499 -0.0404495 1.35596e-21)
(1.01967 0.000922681 5.34463e-23)
(1.01858 0.00340731 3.86516e-23)
(1.07872 0.0962947 3.184e-20)
(0.992619 0.000433224 0)
(1.01937 0.00104282 2.47966e-23)
(0.291641 0.0456075 -3.16095e-20)
(1.08993 0.0247381 -4.12847e-20)
(1.00493 0.00103492 -1.77956e-22)
(0.988865 9.14771e-05 -5.6056e-23)
(0.997097 0.00260041 0)
(1.00409 0.00651756 -1.62975e-21)
(0.241995 0.0538134 0)
(0.992152 0.000166187 1.05287e-21)
(0.510262 0.0760144 -4.23393e-21)
(1.02849 0.0494926 0)
(1.10748 0.0502121 0)
(0.98856 -4.60096e-05 -6.97494e-22)
(1.02546 0.0120256 0)
(0.110195 0.0309072 0)
(1.1271 0.112676 -6.65049e-21)
(1.11404 0.0612348 -1.69709e-20)
(1.0286 0.0777734 -6.10873e-23)
(1.13538 0.093623 -6.04634e-21)
(1.08117 0.0500119 0)
(1.02121 0.0287917 0)
(0.172125 0.0305012 8.03349e-21)
(0.771579 0.102718 -5.58512e-22)
(1.10344 0.109267 0)
(1.09273 0.0564128 1.91707e-20)
(1.05024 0.0941868 0)
(0.989343 8.07103e-05 -7.85603e-22)
(1.02161 0.029101 0)
(0.999395 0.00303925 -1.43684e-21)
(1.00205 0.00148596 0)
(1.12886 0.082087 5.53796e-20)
(0.00202848 0.00571478 -7.06666e-20)
(0.242671 0.029018 -1.8483e-21)
(0.845773 0.00618849 -1.90235e-23)
(1.00299 0.00430668 -2.41476e-22)
(0.957425 0.059312 0)
(1.02378 0.0136097 1.77055e-20)
(1.05625 0.0443461 -1.15648e-20)
(1.08024 0.0508612 -2.43681e-22)
(0.294448 -5.47017e-05 2.21864e-21)
(1.0417 0.0362255 -1.38414e-20)
(1.07058 0.103018 0)
(0.374295 0.075254 4.17052e-21)
(1.01315 0.0087009 0)
(1.03091 0.0020497 8.84014e-21)
(1.0927 0.107348 -6.29463e-21)
(0.000718936 -0.0237549 -5.01727e-20)
(1.12084 0.0842758 0)
(1.05117 0.0332935 -1.36598e-22)
(1.00735 0.00792639 -3.13818e-21)
(0.995965 0.000713931 0)
(0.580244 0.00541548 0)
(0.388273 0.0549162 1.52594e-20)
(1.02494 0.0254431 -4.92045e-21)
(0.38396 0.0766899 -1.6952e-20)
(1.08629 0.0930267 2.66567e-20)
(0.00267431 -0.0263613 3.89689e-20)
(1.03055 0.00215566 -2.4153e-20)
(0.435633 0.0766718 5.30265e-20)
(0.173786 0.0278582 0)
(1.04026 0.0215911 0)
(1.04843 0.0941139 0)
(0.993966 0.000432326 -6.32836e-22)
(1.06826 0.0718065 1.25588e-20)
(1.05653 0.0840306 0)
(0.392322 0.0298188 -7.17426e-22)
(1.01364 0.00862513 0)
(1.02757 0.0175644 0)
(0.416195 0.0479994 -1.83408e-21)
(1.10235 0.109518 -2.72222e-20)
(0.892944 0.0354704 6.57329e-23)
(0.485382 0.0765758 3.98871e-20)
(1.12282 0.111142 -5.69478e-23)
(0.220912 0.0305531 0)
(0.999593 0.00129894 2.25477e-21)
(0.306327 0.0242224 1.9831e-21)
(0.994304 0.000808144 -1.83991e-21)
(1.0658 0.106631 -4.65051e-21)
(1.03732 0.0580961 -1.03207e-20)
(1.05714 0.0507951 -1.1963e-20)
(1.13428 0.0669774 0)
(1.01516 0.0103323 7.55103e-23)
(0.882404 0.0571249 0)
(1.02888 0.00983437 -1.45445e-20)
(-0.0490333 0.0189409 1.89179e-20)
(1.06899 0.0732791 0)
(1.02881 0.0486672 0)
(0.285203 0.0329625 -3.02432e-21)
(1.04102 0.0222404 4.71996e-21)
(1.02886 0.0103269 1.45902e-20)
(0.996526 0.00170589 1.21951e-21)
(0.151967 0.0301249 0)
(-0.0175252 0.00235344 0)
(0.0677102 0.032234 -2.76384e-20)
(1.12784 0.0832657 -6.5523e-20)
(0.996174 0.000737163 4.24778e-22)
(1.11054 0.109696 0)
(1.0063 0.0011038 1.95598e-22)
(1.10835 0.0971817 0)
(1.03347 0.0331406 -4.83782e-21)
(0.298677 0.0445471 1.82179e-20)
(0.453173 0.0714354 -1.8263e-20)
(1.10902 0.109946 -1.93361e-20)
(0.818177 0.100413 -2.69339e-21)
(1.01985 0.00109097 -3.36005e-23)
(0.364718 -0.0186126 0)
(1.0708 0.014908 -1.70261e-20)
(0.548438 0.0780007 -1.34476e-20)
(0.165445 0.0285918 1.14495e-21)
(0.455097 0.0779784 -5.70403e-20)
(0.134869 0.0304931 -1.82473e-20)
(1.08111 0.107294 -1.66406e-20)
(0.619055 0.0189232 1.15072e-21)
(0.30666 0.0568232 0)
(0.986997 6.76206e-06 4.70896e-23)
(1.00121 0.00105241 1.55775e-22)
(0.823908 0.00959178 -3.48462e-22)
(1.00099 0.00102371 2.94789e-22)
(1.10433 0.0454981 -4.18742e-20)
(1.11327 0.0591569 -3.16596e-20)
(1.03864 0.0350464 0)
(1.0062 0.00109725 0)
(0.0982484 0.0279151 0)
(1.03035 0.0333106 0)
(1.0214 0.0270421 1.05825e-22)
(1.08247 0.108385 1.96505e-20)
(1.01498 0.0100662 0)
(0.996412 0.000734784 -1.252e-22)
(0.855042 0.106543 -2.11909e-20)
(1.08757 0.0924112 -1.49684e-20)
(0.463705 0.0796336 -4.9549e-20)
(0.577177 0.0101566 -9.90431e-22)
(1.03961 0.0351298 1.2527e-20)
(1.12273 0.0850061 1.02817e-20)
(0.846589 0.0352299 0)
(0.240334 0.0305143 0)
(0.452724 0.0783686 1.71309e-20)
(1.02446 0.00598209 -1.96976e-20)
(1.02493 0.0413576 -1.63301e-21)
(1.00859 0.00899933 1.27377e-21)
(1.13597 0.0953664 3.15633e-20)
(0.403595 0.0579329 0)
(0.8811 0.107769 0)
(0.190079 0.0302626 3.32953e-20)
(0.235864 0.0308422 1.29713e-20)
(1.09757 0.108632 1.92521e-20)
(0.247433 0.0248434 0)
(0.327183 0.0566875 -2.881e-20)
(1.15875 0.115029 0)
(0.999273 0.00352065 0)
(0.990888 0.000360929 2.91106e-22)
(0.233987 0.0287831 0)
(0.735301 0.0526423 0)
(0.655967 0.0233842 1.29216e-21)
(0.999458 0.000863009 -3.7349e-21)
(1.00044 0.00348175 1.78779e-22)
(1.03776 0.0358793 0)
(1.05971 0.107213 9.39006e-21)
(0.258436 0.0258303 0)
(1.02471 0.0255973 0)
(0.186062 0.00489864 -4.42411e-22)
(1.02808 0.000672171 4.15011e-22)
(1.02646 0.0491965 1.73084e-21)
(1.00415 0.000759596 0)
(1.02898 0.0323783 -7.26193e-21)
(1.16189 0.113877 1.22919e-21)
(1.00969 0.00735745 4.13076e-21)
(1.01765 0.0187219 8.21873e-23)
(0.990597 4.66552e-05 7.56543e-22)
(0.990326 -2.5094e-05 0)
(0.990261 0.000188383 -1.02846e-21)
(1.02456 0.00569076 1.51907e-20)
(0.992848 0.000539597 0)
(1.12088 0.0966436 -2.02986e-20)
(0.987108 3.29181e-06 0)
(0.711547 0.0521663 0)
(0.919958 0.0375339 0)
(1.02285 0.0235627 8.50963e-21)
(0.114784 0.030453 0)
(0.999737 0.000874921 -1.13092e-21)
(0.0259894 0.00840779 3.43331e-20)
(1.01222 0.00645925 -4.68546e-21)
(0.977098 0.0572727 -1.04616e-21)
(1.02612 0.0223918 0)
(1.06709 0.11202 2.72016e-21)
(1.00152 0.00111174 -2.8797e-22)
(1.0339 0.0920357 4.06344e-21)
(0.400887 0.0575998 9.9361e-21)
(1.00762 0.00788874 2.565e-21)
(1.10951 0.0502581 -4.39416e-22)
(1.10359 0.11206 -4.49351e-20)
(0.768862 0.0986214 -4.26446e-21)
(0.249496 0.0231 -3.1853e-20)
(1.02024 0.0154004 0)
(1.09807 0.074481 3.22733e-20)
(0.535906 0.0510568 1.29782e-21)
(0.533905 0.0763922 0)
(1.02066 0.00301351 -1.67349e-22)
(0.98926 0.000127848 1.20532e-22)
(0.439276 0.0640538 2.96386e-20)
(0.992429 0.00043258 2.10007e-22)
(1.10983 0.0979421 0)
(0.588496 0.00155415 0)
(0.127779 0.0285204 5.1275e-21)
(0.140854 0.0280674 0)
(1.01983 0.0021819 -1.57227e-20)
(1.02368 0.00144784 0)
(0.992596 0.000776245 -5.89483e-22)
(1.02101 0.00126266 0)
(1.02166 0.00287375 0)
(1.02601 0.0259493 4.49058e-21)
(0.812985 0.00438222 8.43872e-23)
(0.714798 0.0671963 -5.36126e-22)
(0.852487 0.0153729 1.58016e-21)
(0.302484 0.0528558 -2.94057e-20)
(0.0955544 0.00754547 0)
(0.0556595 0.00622087 0)
(1.12235 0.0963825 0)
(1.01767 0.0186328 0)
(0.338823 0.0655366 0)
(0.778428 0.102153 0)
(1.01039 0.00739146 -4.14066e-21)
(1.02614 0.0576163 -3.16878e-22)
(0.0665202 0.00844851 -1.17544e-20)
(1.02194 0.0947914 -3.38548e-21)
(1.02305 0.0264972 4.87359e-21)
(0.517974 0.0186308 -1.81653e-21)
(1.03873 0.0360536 0)
(1.0273 0.0498977 0)
(0.436745 0.0756727 4.8678e-20)
(1.0064 0.00839777 1.09321e-21)
(0.652333 0.0890774 5.45805e-21)
(0.464593 0.0747915 -3.19907e-20)
(0.899238 0.0875157 -3.4339e-21)
(0.0155575 0.00672921 -3.47988e-20)
(0.860372 0.000882669 -3.464e-23)
(1.00653 0.00841502 0)
(0.282642 0.0532086 -2.93178e-20)
(0.994926 0.000605475 0)
(1.11788 0.0850872 3.00759e-20)
(1.10212 0.108287 -1.18334e-20)
(1.07694 0.111218 1.43034e-20)
(-0.0535067 -0.00149122 1.40291e-20)
(1.02246 0.0262902 -3.40826e-21)
(1.03642 0.0371724 1.08855e-20)
(0.674179 0.002119 -1.45612e-21)
(1.0505 0.0446372 9.85158e-21)
(1.02392 0.00481447 0)
(1.01799 0.0193413 -2.67534e-21)
(0.992649 0.000470728 -2.16916e-22)
(0.990448 0.000272705 -1.1381e-22)
(0.0609172 0.00791101 0)
(1.02913 0.00088887 0)
(1.018 0.0192823 -8.62465e-23)
(0.989783 0.000230034 -1.26188e-23)
(1.11755 0.109161 2.20103e-20)
(0.673362 0.0203748 -1.43678e-22)
(1.09715 0.0887695 4.286e-20)
(1.06904 0.0517308 2.05769e-20)
(0.671635 0.00586609 6.13779e-22)
(0.810342 0.00879915 1.19698e-22)
(1.048 0.0144744 -2.81794e-20)
(1.06149 0.0847532 -4.80634e-22)
(0.9925 0.000484164 3.86605e-22)
(1.00726 0.00761917 2.49451e-21)
(1.02716 0.0264556 3.62846e-21)
(0.989709 0.00017483 0)
(1.02331 0.00612416 6.12444e-21)
(1.10278 0.0874733 -3.77105e-20)
(0.402396 0.033619 0)
(-0.0125038 -0.022271 -1.4302e-21)
(1.07257 0.0147653 2.15605e-20)
(1.00315 0.00116426 0)
(1.1234 0.112012 -7.26444e-21)
(0.606283 0.0417276 3.69183e-21)
(0.816197 0.0166638 -7.35205e-22)
(1.06691 0.10205 0)
(1.11956 0.0857545 -3.56723e-21)
(1.02287 0.0603965 -4.12556e-22)
(0.788914 0.0260727 1.51318e-21)
(1.03144 0.0164976 1.82279e-23)
(0.546124 0.0766884 1.47774e-20)
(1.03355 0.0226089 -1.89438e-23)
(1.02411 0.0595532 -5.10282e-22)
(0.482971 0.0781963 4.17583e-20)
(0.467208 0.0783548 0)
(0.772492 0.103065 1.95514e-20)
(1.0214 0.00469845 0)
(0.990537 0.00027873 -6.94355e-23)
(0.283651 0.0626433 1.06388e-20)
(1.05334 0.0725826 -6.73559e-21)
(1.02642 0.0221498 -2.16511e-21)
(1.02346 0.00472193 0)
(1.05221 0.076091 0)
(1.0257 0.0260966 -4.64592e-21)
(0.948873 0.0178296 0)
(1.01645 0.0051913 0)
(0.354657 0.0152662 1.8659e-22)
(0.103342 0.0283771 0)
(0.990794 0.000298597 8.0671e-23)
(1.03124 0.0808853 2.54e-21)
(0.833696 0.0926238 0)
(0.444241 0.0763521 0)
(1.02138 0.0259924 0)
(1.02013 0.0202892 1.14733e-22)
(0.545705 0.0869388 -1.24594e-20)
(1.00383 0.00101233 0)
(0.988482 -6.86075e-05 2.00921e-23)
(1.04 0.052649 0)
(0.989214 0.000123315 2.69263e-22)
(0.25427 0.0615607 -2.16368e-20)
(0.239007 0.0199919 2.1846e-20)
(1.02881 0.0315524 0)
(1.11582 0.0614376 5.16903e-20)
(1.02057 0.0209344 1.23608e-22)
(1.017 0.0161064 0)
(0.856105 0.00665856 2.56337e-23)
(1.09565 0.0880563 -5.5331e-20)
(-0.00366051 -0.0455092 -1.25234e-20)
(1.00373 0.000998495 -1.13213e-22)
(0.73232 0.0870841 -1.01395e-21)
(0.98966 0.000145017 -2.33349e-22)
(0.988399 -1.30429e-06 3.59861e-22)
(0.545994 0.0812463 -2.03134e-20)
(0.0310907 0.00836634 0)
(0.103547 0.00900395 0)
(0.829153 0.10362 0)
(1.02663 0.0256082 3.53486e-21)
(0.464525 0.076247 -4.70078e-20)
(1.01149 0.00657004 0)
(1.02976 0.0799942 0)
(0.178441 0.0246873 -1.37198e-20)
(0.178957 0.0282411 -2.8248e-20)
(-0.0370611 0.0114944 3.77103e-20)
(1.10037 0.110656 3.4427e-20)
(1.0046 0.00695236 0)
(0.98788 -4.83267e-05 -1.14923e-22)
(1.1248 0.109017 -3.2264e-21)
(0.180526 0.00106749 -2.27686e-22)
(0.916977 0.015993 0)
(1.08236 0.0389218 1.27676e-20)
(0.997888 0.000986225 0)
(1.10173 0.0881708 4.49694e-20)
(0.45376 0.0803117 1.64102e-20)
(0.286523 0.0209281 -2.6694e-22)
(1.05072 0.0322756 3.187e-20)
(1.01187 0.00751411 5.05334e-22)
(0.989662 0.000107042 4.27038e-22)
(0.966031 0.018967 5.2704e-24)
(-0.00366785 0.00580518 3.74195e-20)
(0.81798 0.00959762 0)
(0.802619 0.00432285 1.54279e-22)
(1.02424 0.00492775 3.90122e-23)
(-0.0348124 0.0389148 -1.41781e-20)
(1.02595 0.00393934 6.56156e-21)
(1.01882 0.0198486 2.07159e-21)
(1.02052 0.00242482 1.07936e-20)
(0.468996 0.0814776 0)
(1.07881 0.0948026 2.95083e-20)
(1.0215 0.0267147 0)
(0.797297 0.0151192 -2.86904e-22)
(1.01092 0.00767359 1.45043e-20)
(1.081 0.0375889 3.74441e-20)
(0.0531159 0.00642877 0)
(1.03147 0.0473316 1.78124e-21)
(-0.0511663 0.0175788 7.78808e-21)
(1.00424 0.00671345 0)
(0.992468 0.000662137 -1.76223e-21)
(0.988024 9.13522e-05 3.64521e-23)
(1.03121 0.0483107 0)
(1.06471 0.0934116 8.87458e-21)
(1.00735 0.056304 -4.62009e-22)
(1.05341 0.0826572 0)
(0.263786 0.0267054 -2.66021e-20)
(1.07673 0.0792926 -9.77969e-21)
(0.645988 0.0614956 6.16465e-22)
(1.02684 0.0266602 5.1714e-21)
(0.75162 0.0994742 0)
(1.00834 0.00876118 -2.65584e-21)
(1.02145 0.0277712 0)
(1.04024 0.00878828 -7.14774e-21)
(-0.0304864 0.0387143 9.41481e-23)
(0.619773 0.0883138 -6.0561e-21)
(0.163382 0.0113143 1.31192e-20)
(0.954639 0.108949 -1.64831e-20)
(0.997592 0.000872055 4.86034e-21)
(0.989204 4.58104e-05 1.1005e-21)
(0.269432 0.0295923 -2.7071e-20)
(0.807305 0.00279613 0)
(-0.0187126 -0.029084 1.75368e-20)
(-0.0309964 0.0323363 0)
(1.01846 0.0192099 -6.20039e-21)
(1.03053 0.0086914 2.21356e-20)
(0.0557102 0.0597118 1.27876e-20)
(1.02278 0.0323245 -1.36589e-21)
(1.09646 0.0752682 6.4355e-21)
(1.04012 0.0199924 0)
(0.0818983 0.00236209 3.53819e-20)
(1.01127 0.00527153 -1.24464e-22)
(0.938558 0.106777 1.13949e-20)
(1.00181 0.000889314 0)
(1.02537 0.00022847 7.79873e-21)
(0.279724 0.0325417 1.96655e-20)
(1.04966 0.0683269 6.15006e-21)
(0.715726 0.0976775 -9.29984e-21)
(0.552804 0.0850678 -4.53713e-22)
(1.01778 0.00553293 -5.69724e-22)
(1.03928 0.00837633 7.18355e-21)
(0.449473 0.0652563 -1.35122e-20)
(1.02788 0.0747161 1.183e-22)
(1.02455 0.0420832 1.95618e-21)
(0.998483 0.000903235 -1.12747e-21)
(1.01711 0.0159746 9.14687e-23)
(1.02396 0.00631711 -3.66768e-21)
(1.05097 0.0921043 0)
(0.519712 0.0853461 -6.75525e-21)
(0.931557 0.0154369 -5.77039e-22)
(1.03409 0.00763726 -2.56891e-21)
(1.02298 0.0133447 -1.39017e-20)
(-0.0777922 0.0190255 -3.09897e-20)
(0.999875 0.00133776 2.06262e-21)
(1.02369 0.0121014 0)
(0.649859 0.0870047 2.8224e-21)
(0.989467 0.000193879 -4.28266e-24)
(1.04994 0.0435473 -2.22505e-20)
(1.0092 0.00191559 0)
(1.10546 0.107835 8.00784e-21)
(1.01176 0.0123603 -1.82767e-21)
(1.02096 0.0228277 -4.88273e-22)
(0.465009 0.0739583 0)
(0.994673 0.000765677 -2.38953e-21)
(0.235012 0.0544507 0)
(1.06782 0.0251643 -1.93604e-20)
(0.848864 0.10364 -3.07458e-20)
(1.01918 0.00351507 1.00043e-20)
(1.03226 0.0226869 0)
(0.162648 0.03035 3.61809e-20)
(0.672444 0.00879314 2.31601e-21)
(0.487971 0.077369 0)
(1.01579 0.0051872 0)
(0.873712 0.0378087 -1.21682e-21)
(1.01144 0.00160739 -1.40163e-22)
(1.03138 0.0169273 -5.75104e-21)
(0.717593 0.094682 -1.46433e-20)
(0.996274 0.00157464 1.03133e-21)
(1.03462 0.00264852 2.46254e-20)
(1.02418 0.00192282 0)
(1.035 0.00303644 -2.28993e-20)
(0.493446 0.0772172 -2.16431e-20)
(1.01985 0.0194786 -2.60552e-21)
(1.05136 0.0308033 -1.02206e-20)
(1.03695 0.0899171 -1.28076e-21)
(0.990542 0.000264991 5.6057e-22)
(0.504726 0.076851 2.06494e-20)
(1.01731 0.0180419 -2.13525e-21)
(0.0603785 0.0431317 2.0484e-21)
(0.99622 0.00137374 -3.43586e-21)
(1.02392 0.0577946 6.85079e-23)
(0.407872 0.0581006 -9.63587e-21)
(0.977383 0.109258 -1.80175e-20)
(0.780013 0.00176733 3.48169e-22)
(1.04734 0.0138701 0)
(0.532702 0.0826616 3.73723e-20)
(-0.0258457 0.0297332 0)
(0.532791 0.0759426 7.4607e-21)
(1.00037 0.00404885 -5.61826e-21)
(1.02184 0.0296737 0)
(1.0222 0.0263772 0)
(1.00506 0.0022825 -5.37551e-22)
(1.00458 0.0021765 5.9076e-22)
(1.01016 0.00763017 0)
(0.290246 0.0356282 2.31858e-20)
(0.845044 0.101762 8.38581e-21)
(1.0218 0.025654 2.80526e-21)
(1.10588 0.0869745 0)
(1.03062 0.0214396 -9.82934e-21)
(1.02081 0.022164 3.62687e-22)
(-0.0647954 0.00471672 2.90722e-20)
(1.12868 0.112458 0)
(1.04987 0.0301798 0)
(1.09025 0.0266384 2.14095e-20)
(0.821965 0.0555937 0)
(0.791164 0.0991312 -2.0318e-20)
(0.995386 0.000956107 0)
(1.00041 0.00416446 2.83611e-21)
(0.849625 0.102621 0)
(1.0228 0.0317634 1.17152e-21)
(0.552581 0.0771405 -1.37897e-20)
(0.884829 0.10458 3.74175e-20)
(1.02716 0.0427796 -2.10533e-21)
(1.05408 0.0427652 0)
(0.988637 7.55044e-05 -1.00794e-21)
(0.848111 0.00528806 -8.8704e-23)
(0.988777 9.73184e-05 -3.65925e-22)
(0.99734 0.00085914 -2.34941e-21)
(1.09153 0.0746295 -2.47674e-20)
(0.258818 0.0313807 1.40999e-20)
(0.988492 7.39427e-05 -3.36734e-22)
(1.01186 0.0122542 0)
(0.994599 0.000776488 -4.2983e-21)
(0.994383 0.000956816 4.04548e-22)
(1.08716 0.0846129 1.25924e-20)
(1.00156 0.000867103 0)
(1.03123 0.00125006 0)
(0.433371 0.0635747 -1.37176e-20)
(0.423127 0.0720019 6.31736e-21)
(1.01566 0.0635003 -4.14286e-23)
(0.830792 0.00637701 1.26379e-23)
(0.243363 0.0245459 2.48401e-20)
(1.01136 0.00679375 0)
(1.04634 0.0529174 0)
(0.210559 0.0281519 7.98812e-21)
(1.03436 0.0337643 0)
(1.06948 0.0137328 0)
(0.443892 0.0798397 -1.20905e-20)
(0.998571 0.0010538 -6.19262e-21)
(1.10158 0.105214 2.98346e-20)
(0.841853 0.102084 -7.80686e-21)
(1.07588 0.0655521 3.06935e-20)
(0.997883 0.00297302 9.33666e-22)
(1.02552 0.00351146 6.32303e-21)
(1.0203 0.014071 -9.09877e-23)
(1.02698 0.0254318 0)
(1.06858 0.103583 -6.59099e-22)
(1.02044 0.0144367 -2.13258e-22)
(1.02224 0.026093 3.45592e-21)
(0.779836 0.00183159 8.40646e-23)
(0.678877 0.00591082 1.15319e-21)
(1.0431 0.0695647 -4.90824e-21)
(1.08802 0.0859995 -4.41036e-20)
(0.995712 0.00105769 -1.04562e-21)
(0.742451 0.100295 0)
(1.02094 0.00457722 0)
(1.03879 0.0524913 0)
(0.125334 0.0305141 0)
(0.302682 0.0617852 -2.15892e-21)
(1.01205 0.00672909 2.67319e-21)
(1.13215 0.0810977 0)
(0.0506123 0.00824099 6.31649e-20)
(1.00475 0.00121678 -1.13316e-22)
(1.04012 0.0400841 0)
(1.03766 0.0368443 -1.83335e-20)
(1.04419 0.0263535 -1.28037e-20)
(0.952841 0.10846 1.7452e-20)
(0.744387 0.100237 0)
(1.08803 0.081634 -2.56488e-20)
(1.01837 0.00546023 -8.69043e-23)
(1.00268 0.000927702 -1.8755e-22)
(1.04211 0.0185482 1.34651e-20)
(0.987787 8.33542e-05 -7.45449e-22)
(0.99126 0.000182116 2.23589e-21)
(1.0642 0.023894 -2.41939e-20)
(1.02034 0.0201417 1.38514e-22)
(0.47833 0.0145458 2.08872e-21)
(-0.0567076 -0.00180672 0)
(1.01265 0.00729476 0)
(-0.0336007 0.0255142 0)
(0.528604 0.0274263 -3.59191e-21)
(0.226005 0.0676168 0)
(1.07912 0.0663189 0)
(1.01082 0.00160759 1.30516e-22)
(0.349432 0.066889 4.41876e-21)
(0.795349 0.099561 3.09128e-20)
(-0.0706308 0.00827748 -1.77315e-20)
(1.00911 0.020995 -6.41881e-22)
(1.08257 0.0243074 -2.15765e-20)
(1.0548 0.0911443 0)
(0.393786 0.0582245 0)
(1.05631 0.051363 1.54559e-20)
(0.988898 -4.37441e-05 -6.1599e-22)
(1.02648 0.0245532 0)
(0.988791 6.22514e-05 0)
(0.933105 0.110622 0)
(1.05169 0.0727621 1.48331e-20)
(1.01734 0.0179334 2.72422e-21)
(1.02673 0.0415782 3.45251e-21)
(-0.085741 0.0179657 -1.08743e-20)
(0.710923 0.100372 0)