/*--------------------------------*- C++ -*----------------------------------*\
| =========                 |                                                 |
| \\      /  F ield         | OpenFOAM: The Open Source CFD Toolbox           |
|  \\    /   O peration     | Version:  v2012                                 |
|   \\  /    A nd           | Website:  www.openfoam.com                      |
|    \\/     M anipulation  |                                                 |
\*---------------------------------------------------------------------------*/
FoamFile
{
    version     2.0;
    format      ascii;
    class       volVectorField;
    location    "300";
    object      U_0;
}
// * * * * * * * * * * * * * * * * * * * * * * * * * * * * * * * * * * * * * //

dimensions      [0 1 -1 0 0 0 0];


internalField   nonuniform List<vector> 
14804
(
(0.991148 0.000311592 -2.05552e-22)
(0.993523 0.000614926 1.54179e-21)
(0.811115 0.0991007 7.68317e-23)
(0.996546 0.00200992 -2.34714e-21)
(1.10751 0.0457764 -1.02642e-20)
(1.03125 0.0341366 0)
(0.114868 0.0124149 0)
(1.09325 0.0622425 0)
(1.01111 0.00156881 -1.2273e-22)
(0.999346 0.000643382 -1.36159e-23)
(1.01892 0.000909467 -3.08291e-23)
(-0.0704001 0.0138308 2.66396e-20)
(0.973108 0.00234936 3.69968e-22)
(0.866806 0.0484706 -1.96067e-22)
(0.359843 0.0537403 -2.13192e-20)
(1.04518 0.0332888 -3.70352e-23)
(0.0085833 0.00581838 3.39338e-23)
(0.907495 0.0488794 8.4173e-22)
(1.04625 0.0332716 0)
(0.990756 0.00029769 9.41993e-24)
(1.00019 0.00349226 -1.98695e-21)
(1.10602 0.0462594 3.6391e-20)
(1.02021 0.0147418 5.22584e-22)
(1.04366 0.0361259 -1.38462e-20)
(0.879803 0.0163124 -3.26659e-22)
(0.124802 0.0123469 -2.24454e-20)
(0.0993689 0.00912648 0)
(1.01205 0.0120702 -7.10877e-21)
(0.359271 0.0556977 2.35842e-20)
(0.370187 0.0538841 0)
(0.443741 0.0561551 2.60265e-21)
(0.0050489 0.00511834 -4.96312e-21)
(1.08195 0.0439012 -2.30389e-20)
(1.0918 0.0631699 0)
(0.804594 0.101757 -8.51038e-21)
(0.997416 0.00259811 0)
(1.01098 0.00322281 3.62609e-21)
(1.04254 0.034964 1.35537e-20)
(1.13363 0.108811 -7.91018e-21)
(0.990018 0.000218127 -1.77225e-22)
(1.12777 0.111822 0)
(1.138 0.107426 -4.02692e-20)
(1.06489 0.102456 0)
(1.06505 0.0252769 0)
(0.727643 0.0441178 0)
(0.280475 0.0564696 0)
(1.11947 0.110977 0)
(0.996602 0.00192024 1.18647e-21)
(1.05754 0.0875204 1.16065e-20)
(1.00003 0.00338402 1.71997e-21)
(1.02038 0.0161194 3.38427e-22)
(0.993193 0.000316814 2.32549e-21)
(1.00463 0.00125437 2.569e-22)
(1.02038 0.0151253 0)
(1.08198 0.0450922 5.18532e-20)
(1.01162 0.0116856 6.3581e-21)
(0.11076 0.00945522 0)
(0.0200401 0.00860151 -7.67733e-21)
(0.667386 0.0207747 2.64058e-21)
(0.955965 0.00170262 -3.16596e-22)
(0.0133268 0.00691867 0)
(0.828747 0.104552 1.97382e-20)
(0.990699 0.000288562 2.80507e-22)
(0.993283 0.000595229 -1.37309e-21)
(1.07561 0.0292619 1.72046e-20)
(-0.0648778 0.0101072 -3.07749e-20)
(0.835074 0.00488857 -2.95891e-22)
(1.01367 0.00579067 -5.35346e-22)
(1.00005 0.000674274 7.69947e-24)
(1.03663 0.0364654 -4.86285e-21)
(1.0548 0.0438921 -9.83617e-21)
(1.01295 0.00572174 -5.81438e-22)
(1.07939 0.02577 -1.02865e-20)
(1.09366 0.0773436 -1.5587e-20)
(0.817733 0.102585 4.06466e-21)
(1.01982 0.0159461 5.46763e-21)
(1.04084 0.0194954 0)
(1.06464 0.0857756 3.1931e-21)
(0.989552 0.000202586 0)
(1.02224 0.0418385 1.33893e-22)
(1.02274 0.041296 0)
(1.01765 0.00103242 1.3153e-23)
(1.10961 0.0740199 2.69916e-20)
(0.27291 0.0317937 0)
(0.993571 6.84384e-05 0)
(1.0368 0.0214431 2.76186e-21)
(0.989501 9.37163e-05 0)
(1.0007 0.00411711 0)
(1.07955 0.0559829 -1.42145e-20)
(1.08093 0.0554131 -1.49742e-20)
(0.763374 0.0889838 1.44102e-21)
(1.00036 0.00377742 0)
(0.989902 0.000199841 5.64877e-23)
(1.02706 0.011209 7.02397e-21)
(1.00172 0.000724538 2.73157e-23)
(0.321909 0.0469869 1.6411e-20)
(0.992727 0.000303117 5.03966e-22)
(0.768473 0.0464446 2.51459e-22)
(1.04068 0.0413445 6.19913e-21)
(1.01717 0.00102928 0)
(0.251527 0.0540113 0)
(0.783588 0.102588 -1.94875e-22)
(1.11411 0.107747 -3.77925e-20)
(1.07754 0.0297776 -2.24867e-20)
(1.11235 0.0978642 2.03085e-21)
(0.834636 0.0151814 5.44553e-23)
(1.02405 0.0274222 2.60295e-21)
(0.991139 0.000196737 -2.36626e-22)
(1.0418 0.0420167 -1.31056e-20)
(-0.000725326 -0.0492409 -2.80533e-21)
(0.991463 0.00028221 0)
(1.02362 0.0271746 -4.6151e-21)
(-0.0238319 0.00487029 -1.77887e-20)
(1.09752 0.0716326 2.43455e-20)
(1.05943 0.0505598 -7.15574e-21)
(0.807612 0.100882 4.60218e-20)
(1.10784 0.110924 -1.84572e-20)
(1.06374 0.104994 0)
(1.04453 0.0348635 -9.95514e-21)
(0.995709 0.000726747 -2.69119e-22)
(0.78417 0.0985008 0)
(1.1111 0.0969675 0)
(1.02709 0.010806 -3.86186e-21)
(1.11059 0.0754922 -1.01585e-20)
(1.0455 0.0348159 1.81505e-20)
(1.0987 0.0730111 -3.28047e-20)
(0.990455 0.000206937 1.38535e-21)
(0.987544 -5.83364e-05 0)
(1.09276 0.0612575 0)
(0.358172 0.0506132 4.20104e-21)
(0.990494 0.000260353 6.23302e-22)
(0.319418 0.0472904 -7.84998e-23)
(1.01011 0.0015401 -1.35043e-22)
(0.476651 0.047273 4.3262e-21)
(1.00436 0.00123417 -3.57086e-22)
(0.754431 0.0851627 1.46075e-23)
(1.14979 0.113198 3.09982e-20)
(1.01745 0.00536797 0)
(0.786314 0.0982575 0)
(0.539927 0.0241258 3.60227e-21)
(1.01134 0.00289433 0)
(1.00885 0.00146399 0)
(1.01689 0.00535747 0)
(1.06673 0.0257689 0)
(1.13457 0.111565 -2.76647e-20)
(1.0123 0.0090947 -7.91124e-22)
(1.09992 0.109519 1.60859e-20)
(1.13374 0.110175 -2.74972e-20)
(0.236991 0.0283418 0)
(1.02252 0.0258935 3.32476e-21)
(0.822642 0.0046363 2.49672e-22)
(0.990605 0.000281639 -5.67956e-22)
(1.11129 0.108337 0)
(1.13896 0.112751 3.27304e-20)
(0.991405 0.000344377 2.96087e-22)
(0.990801 0.000328093 -3.04116e-22)
(0.780603 0.0154372 -1.36104e-22)
(1.07201 0.0344418 1.90797e-20)
(1.03261 0.0222947 0)
(0.248059 0.0312359 0)
(1.01712 0.0138986 5.84447e-21)
(1.00036 0.000831338 -3.6902e-22)
(0.987807 -8.02057e-05 4.3504e-22)
(1.00982 0.00149335 2.13156e-22)
(1.06962 0.0506326 -3.52943e-20)
(0.0664787 0.0389719 -8.02259e-22)
(0.988271 -4.72456e-05 2.89852e-22)
(1.00174 0.000725718 2.11143e-23)
(1.02475 0.0049716 1.63028e-22)
(1.07064 0.0345828 -3.16907e-20)
(1.01671 0.0137371 -6.82689e-22)
(1.07927 0.0245232 6.57158e-21)
(0.671636 0.0914822 1.46761e-20)
(1.0126 0.00900645 1.8105e-21)
(1.02164 0.07949 0)
(0.211002 0.031408 -3.01331e-20)
(1.07651 0.111983 -1.38939e-20)
(-0.0485233 0.00842235 -3.32564e-20)
(0.718268 0.0959386 1.25747e-20)
(1.02406 0.00487019 -4.27726e-24)
(1.00404 0.00127576 2.77252e-22)
(1.05607 0.0859884 -1.00045e-20)
(1.03237 0.0164747 -2.05015e-23)
(0.691733 0.0235434 4.52576e-23)
(1.00073 0.00106879 -4.40603e-22)
(0.792248 0.0990355 -2.13951e-20)
(0.782979 0.0879321 -2.0798e-21)
(0.177152 0.0300038 -3.88839e-21)
(0.464464 0.0423379 -2.11195e-21)
(0.988522 -8.37592e-05 3.23023e-22)
(1.00947 0.00959413 2.71169e-21)
(0.771575 0.101264 -9.04041e-21)
(-0.0260073 0.0434611 1.96402e-20)
(0.678413 0.00942967 2.95126e-22)
(0.460268 0.075385 -2.25456e-21)
(0.673047 0.0475665 -1.34849e-21)
(0.615043 0.0889167 -6.78641e-22)
(0.170969 0.028317 4.42516e-21)
(1.0325 0.0159618 0)
(0.474352 0.0764172 -1.94044e-20)
(1.02705 0.016848 0)
(1.00742 0.00820313 0)
(1.00062 0.000848527 -1.02206e-22)
(0.904372 0.109466 0)
(1.0315 0.0350126 0)
(1.096 0.0981912 -9.07615e-21)
(0.410251 0.0510905 -1.73544e-21)
(0.919138 0.0161855 -4.96173e-22)
(1.09537 0.0782079 0)
(1.02557 0.0114089 0)
(0.989313 2.19294e-05 0)
(0.738979 0.095245 1.12565e-20)
(1.00816 0.0014639 0)
(0.996813 0.00223619 1.12204e-21)
(0.483195 0.0753045 7.85629e-21)
(1.02677 0.00175537 0)
(0.866732 0.000925364 1.3146e-23)
(1.03454 0.00350507 1.20049e-20)
(1.13962 0.112116 -3.28071e-20)
(0.889809 0.0159463 3.08756e-22)
(1.03742 0.0611339 7.51714e-21)
(0.551643 0.0388621 5.08328e-21)
(1.00607 0.00136872 5.9113e-21)
(1.02497 0.00486192 -9.82814e-23)
(0.267913 0.0575239 3.08813e-20)
(1.09721 0.0975065 -1.14616e-20)
(0.204996 0.0299118 2.92801e-20)
(1.02724 0.00192422 4.50619e-24)
(0.840124 0.00503118 9.60453e-23)
(1.05719 0.109641 0)
(1.06631 0.0869663 0)
(0.437353 0.0747015 -5.31075e-21)
(1.02961 0.0176003 1.41569e-20)
(1.02642 0.0116426 1.71477e-21)
(0.610915 0.0349465 1.75586e-21)
(1.03589 0.0210638 -8.73654e-22)
(0.868263 0.106539 0)
(0.650846 0.090866 -6.08649e-21)
(1.04639 0.0175735 0)
(0.487659 0.0201506 -8.34795e-23)
(0.0976916 0.0139254 1.88977e-20)
(1.05518 0.0824799 -2.50239e-21)
(0.767248 0.0555757 0)
(0.103255 0.0303708 -5.06465e-21)
(1.00279 0.000886189 1.08376e-20)
(0.994251 0.000710195 1.04586e-21)
(1.05112 0.0744858 7.42531e-21)
(0.00912294 0.00798616 6.08588e-20)
(1.09138 0.0572857 -2.01114e-20)
(1.09168 0.0239614 1.34486e-20)
(0.797089 0.101488 -1.50631e-23)
(0.810925 0.104336 -1.31267e-20)
(1.00384 0.00123788 0)
(1.01718 0.0167854 5.10531e-22)
(0.994667 0.000439176 -3.24639e-21)
(1.01464 0.00484905 2.09729e-23)
(0.266757 0.0299543 0)
(0.778195 0.102003 1.64779e-22)
(0.488048 0.0778531 7.59845e-21)
(0.0954651 0.028484 0)
(1.01729 0.0166518 0)
(0.864912 0.0160343 -1.80054e-22)
(0.996123 0.000711334 1.65486e-21)
(1.02055 0.0047465 8.28198e-23)
(1.00923 0.00933926 -3.7952e-21)
(0.154127 0.0133326 1.2879e-20)
(1.02245 0.00647176 4.26078e-23)
(1.00233 0.0050597 -1.27634e-23)
(0.273161 0.0293782 0)
(0.99037 0.000258876 -1.0113e-23)
(1.02795 0.0103045 2.42509e-20)
(1.06708 0.108617 5.47607e-21)
(1.12309 0.109875 0)
(0.106024 0.0146759 -2.29948e-20)
(1.12559 0.0830136 0)
(0.649874 0.0388284 -3.55717e-21)
(0.989303 6.4357e-05 -1.31801e-21)
(1.08879 0.0902479 0)
(0.990243 0.000249484 -1.26404e-22)
(0.539653 0.0353497 -4.59118e-21)
(1.02306 0.00661246 -3.50397e-21)
(0.49405 0.074834 0)
(1.02878 0.0173415 -1.31209e-20)
(1.0538 0.0710504 0)
(1.04576 0.0181565 -1.51904e-20)
(0.140313 0.0301059 -4.33845e-20)
(1.04468 0.0360967 1.57766e-20)
(0.0865719 0.0120308 2.83695e-20)
(1.01827 0.0148393 -6.81136e-21)
(0.14749 0.0306187 -3.59983e-20)
(0.139171 0.0102487 -2.83005e-20)
(1.08741 0.0905561 1.80983e-20)
(1.02216 0.00481595 -5.26704e-23)
(0.885027 0.109837 -4.00647e-20)
(1.04155 0.0350436 1.91866e-20)
(1.05868 0.0514047 6.65776e-21)
(0.773949 0.102191 1.85699e-20)
(1.04206 0.00438109 3.60055e-21)
(1.10314 0.0440583 1.04225e-20)
(0.989066 0.00011655 3.44592e-22)
(1.00877 0.00123968 0)
(1.04077 0.0677751 -1.13293e-21)
(1.01772 0.0146924 -1.07176e-20)
(1.06295 0.0862991 1.01666e-20)
(1.00571 0.00135586 -3.4184e-21)
(0.28483 0.0022555 -2.1279e-23)
(0.809566 0.00511501 7.59556e-23)
(1.02472 0.0118262 1.29586e-20)
(0.258611 0.0692418 0)
(1.02387 0.041445 -2.25711e-22)
(0.991697 0.000285816 -2.36025e-21)
(1.03494 0.00381785 -1.8416e-20)
(0.694416 0.0933871 1.59602e-20)
(0.997127 0.00234871 1.22708e-21)
(1.04471 0.110453 2.63753e-21)
(0.988762 -7.06346e-05 -1.35068e-22)
(1.02344 0.0421276 -5.77452e-22)
(0.988146 -5.48727e-05 2.84788e-22)
(1.13654 0.110174 -3.62055e-21)
(0.98843 -0.000131331 -5.42035e-22)
(1.00867 0.00123321 0)
(1.04892 0.0305326 -1.00604e-20)
(0.921616 0.10893 0)
(0.34477 0.0339681 0)
(1.02799 0.0108182 -1.24816e-20)
(0.998831 0.00290459 -7.45087e-22)
(1.03832 0.0623528 -1.28653e-20)
(0.777728 0.0982088 -2.74441e-20)
(0.739674 0.099368 0)
(1.13208 0.0667107 -2.18e-20)
(1.02493 0.0568561 -3.048e-22)
(1.00326 0.00428505 0)
(1.04155 0.00380473 0)
(0.0718001 0.00869016 0)
(1.01157 0.00761251 0)
(0.132837 0.0283081 4.58429e-20)
(1.12478 0.0840456 -3.43909e-21)
(0.050359 0.00700146 0)
(0.81858 0.1004 4.465e-20)
(0.1358 0.0276555 3.23737e-20)
(0.184081 0.0305741 -7.74182e-21)
(1.09005 0.108477 7.58813e-21)
(0.0514967 0.0249614 4.55682e-20)
(0.779492 0.0977404 -4.07054e-20)
(1.00736 0.0014134 -3.50435e-22)
(1.04044 0.0188693 0)
(0.327213 0.0630809 -4.75029e-21)
(-0.0198342 0.0449023 0)
(1.0077 0.00819822 6.47422e-22)
(1.04071 0.0361926 -1.29348e-20)
(1.09331 0.0753964 2.64833e-20)
(0.994524 0.000591418 0)
(0.997278 0.00269224 0)
(0.596005 0.0573542 4.22794e-22)
(1.00435 0.00669458 3.34171e-21)
(1.00754 0.00116715 2.80145e-22)
(0.97276 0.0890774 7.7973e-24)
(1.0015 0.000712833 -7.42045e-21)
(0.361002 0.0399641 0)
(1.04145 0.00735998 0)
(1.02496 0.0496395 1.93216e-21)
(0.990596 0.000228687 1.15535e-21)
(0.913851 0.10868 0)
(0.554103 0.0781038 0)
(0.0567203 0.0088322 -2.28223e-22)
(1.03949 0.0675493 -2.35073e-21)
(1.04075 0.00769205 6.50479e-21)
(0.34698 -0.0141687 3.29095e-21)
(0.53766 0.0759161 0)
(1.0257 0.0502485 -2.58215e-21)
(1.00747 0.00116263 9.55264e-23)
(0.252948 0.0310273 1.58166e-20)
(1.00509 0.00105413 0)
(0.601287 0.015186 4.02427e-21)
(1.01733 0.00093296 1.46198e-23)
(0.711858 0.0923814 -3.7434e-20)
(-0.0078349 -0.0404498 1.35595e-21)
(1.01967 0.000924803 5.3479e-23)
(1.01858 0.00340731 3.86527e-23)
(1.07872 0.0962946 3.18406e-20)
(0.992619 0.000433224 0)
(1.01937 0.00104462 2.4791e-23)
(0.291641 0.0456079 -3.16097e-20)
(1.08993 0.0247381 -4.12858e-20)
(1.00493 0.00103493 -1.77945e-22)
(0.988865 9.14772e-05 -5.60549e-23)
(0.997097 0.00260041 0)
(1.00409 0.00651756 -1.62981e-21)
(0.241995 0.0538134 0)
(0.992152 0.000166187 1.0529e-21)
(0.510262 0.0760145 -4.234e-21)
(1.02849 0.0494923 0)
(1.10748 0.0502121 0)
(0.98856 -4.60097e-05 -6.97494e-22)
(1.02546 0.0120256 0)
(0.110194 0.0309072 0)
(1.1271 0.112676 -6.65059e-21)
(1.11404 0.0612348 -1.69713e-20)
(1.02861 0.0777747 -6.11065e-23)
(1.13538 0.0936231 -6.04647e-21)
(1.08117 0.0500119 0)
(1.02121 0.0287929 0)
(0.172125 0.0305013 8.03364e-21)
(0.771579 0.102718 -5.58522e-22)
(1.10344 0.109267 0)
(1.09273 0.0564128 1.91711e-20)
(1.05024 0.0941864 0)
(0.989343 8.07103e-05 -7.85602e-22)
(1.02161 0.0291018 0)
(0.999395 0.00303925 -1.43686e-21)
(1.00205 0.00148596 0)
(1.12886 0.082087 5.53807e-20)
(0.00202835 0.00571478 -7.0668e-20)
(0.242671 0.0290181 -1.84833e-21)
(0.845775 0.00620889 -1.91119e-23)
(1.00299 0.00430668 -2.41482e-22)
(0.957423 0.0593146 0)
(1.02378 0.0136097 1.77061e-20)
(1.05625 0.0443461 -1.15652e-20)
(1.08024 0.0508612 -2.43682e-22)
(0.294452 -6.02686e-05 2.21937e-21)
(1.0417 0.0362255 -1.38418e-20)
(1.07058 0.103017 0)
(0.374294 0.0752546 4.17054e-21)
(1.01315 0.00870096 0)
(1.03091 0.0020497 8.84043e-21)
(1.0927 0.107348 -6.29472e-21)
(0.000719199 -0.0237548 -5.01727e-20)
(1.12084 0.0842759 0)
(1.05117 0.0332935 -1.36601e-22)
(1.00735 0.00792639 -3.1383e-21)
(0.995965 0.000713936 0)
(0.58024 0.00543626 0)
(0.388273 0.0549164 1.52595e-20)
(1.02494 0.0254431 -4.92065e-21)
(0.383959 0.0766905 -1.69521e-20)
(1.08629 0.0930266 2.66572e-20)
(0.00267452 -0.0263613 3.89689e-20)
(1.03055 0.00215566 -2.41538e-20)
(0.435633 0.0766719 5.30276e-20)
(0.173786 0.0278583 0)
(1.04026 0.0215911 0)
(1.04843 0.0941135 0)
(0.993966 0.000432326 -6.32856e-22)
(1.06826 0.0718064 1.25591e-20)
(1.05653 0.0840304 0)
(0.392328 0.029825 -7.17395e-22)
(1.01364 0.00862522 0)
(1.02757 0.0175644 0)
(0.4162 0.0479953 -1.83393e-21)
(1.10235 0.109518 -2.72226e-20)
(0.892949 0.0354693 6.57122e-23)
(0.485382 0.0765759 3.98878e-20)
(1.12282 0.111142 -5.69517e-23)
(0.220913 0.0305531 0)
(0.999593 0.00129894 2.25484e-21)
(0.306332 0.0242175 1.98337e-21)
(0.994304 0.000808144 -1.83995e-21)
(1.0658 0.106631 -4.65057e-21)
(1.03732 0.0580963 -1.03212e-20)
(1.05714 0.0507951 -1.19634e-20)
(1.13428 0.0669774 0)
(1.01516 0.0103323 7.55112e-23)
(0.882404 0.0571287 0)
(1.02888 0.00983437 -1.4545e-20)
(-0.0490318 0.0189412 1.89175e-20)
(1.06899 0.073279 0)
(1.02881 0.0486669 0)
(0.285204 0.0329626 -3.02436e-21)
(1.04102 0.0222404 4.72011e-21)
(1.02886 0.0103269 1.45907e-20)
(0.996526 0.00170589 1.21955e-21)
(0.151967 0.0301249 0)
(-0.0175256 0.00235638 0)
(0.067711 0.0322347 -2.76384e-20)
(1.12784 0.0832658 -6.55244e-20)
(0.996174 0.000737167 4.24761e-22)
(1.11054 0.109696 0)
(1.0063 0.00110378 1.95585e-22)
(1.10835 0.0971818 0)
(1.03347 0.0331406 -4.838e-21)
(0.298677 0.0445475 1.8218e-20)
(0.453173 0.0714357 -1.82631e-20)
(1.10902 0.109946 -1.93364e-20)
(0.818177 0.100413 -2.69343e-21)
(1.01985 0.00109302 -3.36043e-23)
(0.364718 -0.018615 0)
(1.0708 0.014908 -1.70266e-20)
(0.548438 0.0780009 -1.34478e-20)
(0.165445 0.0285919 1.14497e-21)
(0.455096 0.0779784 -5.70414e-20)
(0.134869 0.0304931 -1.82477e-20)
(1.08111 0.107294 -1.66409e-20)
(0.619058 0.0189381 1.15058e-21)
(0.30666 0.0568232 0)
(0.986997 6.76219e-06 4.70879e-23)
(1.00121 0.00105241 1.55767e-22)
(0.823914 0.00958984 -3.48012e-22)
(1.00099 0.00102371 2.94774e-22)
(1.10433 0.0454981 -4.18751e-20)
(1.11327 0.0591569 -3.16603e-20)
(1.03864 0.0350464 0)
(1.0062 0.00109724 0)
(0.0982482 0.0279151 0)
(1.03035 0.0333106 0)
(1.0214 0.0270424 1.05864e-22)
(1.08247 0.108385 1.96508e-20)
(1.01498 0.0100662 0)
(0.996412 0.000734789 -1.25195e-22)
(0.855042 0.106543 -2.11913e-20)
(1.08757 0.0924111 -1.49687e-20)
(0.463704 0.0796336 -4.95499e-20)
(0.577176 0.0101754 -9.90314e-22)
(1.03961 0.0351298 1.25274e-20)
(1.12273 0.0850061 1.02819e-20)
(0.846596 0.0352289 0)
(0.240334 0.0305143 0)
(0.452724 0.0783687 1.71313e-20)
(1.02446 0.00598209 -1.96982e-20)
(1.02493 0.0413571 -1.63322e-21)
(1.00859 0.00899933 1.27383e-21)
(1.13597 0.0953664 3.1564e-20)
(0.403595 0.0579331 0)
(0.881099 0.107768 0)
(0.190079 0.0302627 3.32958e-20)
(0.235864 0.0308422 1.29715e-20)
(1.09757 0.108632 1.92524e-20)
(0.247434 0.0248438 0)
(0.327183 0.0566876 -2.88105e-20)
(1.15875 0.115029 0)
(0.999269 0.00352264 0)
(0.990888 0.000360929 2.91101e-22)
(0.233987 0.0287831 0)
(0.735298 0.0526484 0)
(0.655972 0.0233985 1.29197e-21)
(0.999458 0.000863009 -3.73503e-21)
(1.00044 0.00348105 1.78264e-22)
(1.03776 0.0358793 0)
(1.05971 0.107212 9.39016e-21)
(0.258436 0.0258306 0)
(1.02471 0.0255973 0)
(0.18606 0.00489057 -4.42337e-22)
(1.02808 0.000672171 4.15025e-22)
(1.02646 0.049196 1.73097e-21)
(1.00415 0.000759626 0)
(1.02898 0.0323783 -7.26224e-21)
(1.16189 0.113877 1.22921e-21)
(1.00969 0.00735745 4.13091e-21)
(1.01765 0.0187219 8.21916e-23)
(0.990597 4.66552e-05 7.56539e-22)
(0.990326 -2.5094e-05 0)
(0.990261 0.000188383 -1.02848e-21)
(1.02456 0.00569075 1.51912e-20)
(0.992848 0.000539597 0)
(1.12088 0.0966437 -2.0299e-20)
(0.987108 3.292e-06 0)
(0.711546 0.0521735 0)
(0.91996 0.0375302 0)
(1.02285 0.0235627 8.50998e-21)
(0.114784 0.030453 0)
(0.999737 0.000874921 -1.13095e-21)
(0.0259892 0.00840779 3.43338e-20)
(1.01222 0.00645925 -4.68563e-21)
(0.977096 0.0572741 -1.04627e-21)
(1.02612 0.0223918 0)
(1.06709 0.11202 2.72019e-21)
(1.00152 0.00111174 -2.87954e-22)
(1.0339 0.0920351 4.06366e-21)
(0.400887 0.0576 9.93621e-21)
(1.00762 0.00788875 2.5651e-21)
(1.10951 0.0502581 -4.39426e-22)
(1.10359 0.11206 -4.49358e-20)
(0.768862 0.0986215 -4.26453e-21)
(0.249497 0.0231001 -3.18532e-20)
(1.02024 0.0154011 0)
(1.09807 0.074481 3.2274e-20)
(0.535913 0.0510584 1.29744e-21)
(0.533905 0.0763924 0)
(1.02066 0.00301355 -1.67385e-22)
(0.98926 0.000127849 1.20529e-22)
(0.439276 0.064054 2.96389e-20)
(0.992429 0.000432582 2.09999e-22)
(1.10983 0.0979421 0)
(0.588489 0.00157591 0)
(0.127779 0.0285205 5.1276e-21)
(0.140854 0.0280674 0)
(1.01983 0.0021819 -1.57232e-20)
(1.02368 0.00144784 0)
(0.992596 0.000776244 -5.89489e-22)
(1.02101 0.00126266 0)
(1.02166 0.00287433 0)
(1.02601 0.0259493 4.49076e-21)
(0.81299 0.00439991 8.41382e-23)
(0.714804 0.0671975 -5.35925e-22)
(0.852487 0.0153804 1.5807e-21)
(0.302484 0.0528559 -2.94062e-20)
(0.0955544 0.00754548 0)
(0.0556594 0.00622087 0)
(1.12235 0.0963826 0)
(1.01767 0.0186328 0)
(0.338823 0.0655372 0)
(0.778428 0.102153 0)
(1.01039 0.00739146 -4.14081e-21)
(1.02614 0.0576167 -3.16909e-22)
(0.0665201 0.00844852 -1.17547e-20)
(1.02194 0.0947906 -3.38568e-21)
(1.02305 0.0264972 4.87383e-21)
(0.517972 0.0186124 -1.81667e-21)
(1.03873 0.0360536 0)
(1.0273 0.0498974 0)
(0.436744 0.0756728 4.86789e-20)
(1.0064 0.00839777 1.09325e-21)
(0.652331 0.0890764 5.45798e-21)
(0.464593 0.0747916 -3.19913e-20)
(0.899239 0.0875147 -3.4343e-21)
(0.0155574 0.00672921 -3.47995e-20)
(0.860372 0.000888242 -3.46405e-23)
(1.00653 0.00841502 0)
(0.282642 0.0532087 -2.93184e-20)
(0.994926 0.00060548 0)
(1.11788 0.0850872 3.00765e-20)
(1.10212 0.108287 -1.18336e-20)
(1.07694 0.111218 1.43035e-20)
(-0.0535062 -0.0014916 1.4029e-20)
(1.02246 0.0262902 -3.40844e-21)
(1.03642 0.0371724 1.08859e-20)
(0.674178 0.00212645 -1.45629e-21)
(1.0505 0.0446372 9.85187e-21)
(1.02392 0.00481385 0)
(1.01799 0.0193413 -2.67548e-21)
(0.992649 0.000470731 -2.16908e-22)
(0.990448 0.000272706 -1.13806e-22)
(0.0609171 0.00791102 0)
(1.02913 0.00088887 0)
(1.018 0.0192822 -8.62511e-23)
(0.989783 0.000230034 -1.26183e-23)
(1.11755 0.109162 2.20106e-20)
(0.673359 0.020387 -1.43614e-22)
(1.09715 0.0887695 4.28608e-20)
(1.06904 0.0517308 2.05775e-20)
(0.671636 0.0058731 6.13737e-22)
(0.810335 0.00879618 1.20103e-22)
(1.048 0.0144744 -2.81803e-20)
(1.06149 0.0847531 -4.80638e-22)
(0.9925 0.000484164 3.86612e-22)
(1.00726 0.00761917 2.49461e-21)
(1.02716 0.0264556 3.62859e-21)
(0.989709 0.000174831 0)
(1.02331 0.00612416 6.12464e-21)
(1.10278 0.0874734 -3.77112e-20)
(0.402402 0.0336232 0)
(-0.0125037 -0.0222714 -1.4302e-21)
(1.07257 0.0147653 2.15611e-20)
(1.00315 0.00116425 0)
(1.1234 0.112013 -7.26456e-21)
(0.606278 0.0417359 3.69186e-21)
(0.816203 0.0166732 -7.35031e-22)
(1.06691 0.10205 0)
(1.11956 0.0857545 -3.56731e-21)
(1.02286 0.0603978 -4.12484e-22)
(0.788914 0.0260828 1.51365e-21)
(1.03144 0.0164976 1.82285e-23)
(0.546124 0.0766885 1.47775e-20)
(1.03355 0.0226089 -1.89447e-23)
(1.02411 0.0595541 -5.10394e-22)
(0.482971 0.0781964 4.1759e-20)
(0.467208 0.0783549 0)
(0.772492 0.103065 1.95517e-20)
(1.0214 0.00470043 0)
(0.990537 0.00027873 -6.94333e-23)
(0.283651 0.0626439 1.06389e-20)
(1.05334 0.0725826 -6.73579e-21)
(1.02642 0.0221498 -2.16519e-21)
(1.02346 0.0047217 0)
(1.05221 0.076091 0)
(1.0257 0.0260966 -4.6461e-21)
(0.948874 0.0178249 0)
(1.01645 0.0051917 0)
(0.354662 0.0152755 1.86594e-22)
(0.103341 0.0283771 0)
(0.990794 0.000298598 8.06684e-23)
(1.03124 0.0808858 2.54031e-21)
(0.833695 0.0926224 0)
(0.444241 0.0763522 0)
(1.02138 0.0259924 0)
(1.02013 0.0202892 1.14735e-22)
(0.545705 0.086939 -1.24595e-20)
(1.00383 0.00101234 0)
(0.988482 -6.86076e-05 2.00926e-23)
(1.04 0.052649 0)
(0.989214 0.000123315 2.69259e-22)
(0.25427 0.0615613 -2.16368e-20)
(0.239007 0.019992 2.18462e-20)
(1.02881 0.0315523 0)
(1.11582 0.0614377 5.16915e-20)
(1.02057 0.0209344 1.2361e-22)
(1.017 0.0161065 0)
(0.856106 0.00667607 2.60905e-23)
(1.09565 0.0880563 -5.53321e-20)
(-0.00366046 -0.0455094 -1.25234e-20)
(1.00373 0.000998514 -1.13206e-22)
(0.732319 0.0870822 -1.01391e-21)
(0.98966 0.000145017 -2.33345e-22)
(0.988399 -1.30431e-06 3.59859e-22)
(0.545994 0.0812464 -2.03138e-20)
(0.0310905 0.00836634 0)
(0.103547 0.00900396 0)
(0.829153 0.10362 0)
(1.02663 0.0256082 3.535e-21)
(0.464525 0.0762471 -4.70086e-20)
(1.01149 0.00657004 0)
(1.02976 0.079995 0)
(0.178441 0.0246873 -1.372e-20)
(0.178957 0.0282411 -2.82484e-20)
(-0.0370603 0.0114949 3.77102e-20)
(1.10037 0.110656 3.44275e-20)
(1.0046 0.00695236 0)
(0.98788 -4.83265e-05 -1.14919e-22)
(1.1248 0.109017 -3.22645e-21)
(0.180524 0.00106054 -2.27654e-22)
(0.916976 0.0159981 0)
(1.08236 0.0389218 1.27679e-20)
(0.997888 0.000986225 0)
(1.10173 0.0881708 4.49703e-20)
(0.453759 0.0803122 1.64102e-20)
(0.286528 0.0209212 -2.66916e-22)
(1.05072 0.0322756 3.1871e-20)
(1.01187 0.00751414 5.05354e-22)
(0.989662 0.000107042 4.27037e-22)
(0.966033 0.0189645 5.26659e-24)
(-0.00366799 0.00580517 3.74203e-20)
(0.817985 0.00959172 0)
(0.80262 0.00434572 1.54185e-22)
(1.02425 0.00492803 3.89921e-23)
(-0.0348125 0.0389139 -1.41779e-20)
(1.02595 0.00393934 6.56177e-21)
(1.01882 0.0198486 2.07168e-21)
(1.02052 0.00242482 1.0794e-20)
(0.468995 0.081478 0)
(1.07881 0.0948025 2.95088e-20)
(1.0215 0.0267148 0)
(0.797301 0.0151307 -2.86846e-22)
(1.01092 0.00767359 1.45048e-20)
(1.081 0.0375889 3.74451e-20)
(0.0531158 0.00642878 0)
(1.03147 0.0473314 1.78133e-21)
(-0.0511649 0.0175797 7.78796e-21)
(1.00424 0.00671346 0)
(0.992468 0.000662136 -1.76225e-21)
(0.988024 9.13523e-05 3.64509e-23)
(1.03121 0.0483105 0)
(1.06471 0.0934114 8.87475e-21)
(1.00734 0.0563045 -4.62039e-22)
(1.05341 0.082657 0)
(0.263786 0.0267056 -2.66023e-20)
(1.07673 0.0792925 -9.7799e-21)
(0.645993 0.0614965 6.16234e-22)
(1.02684 0.0266602 5.1716e-21)
(0.75162 0.0994743 0)
(1.00834 0.00876118 -2.65595e-21)
(1.02145 0.0277718 0)
(1.04024 0.00878828 -7.14797e-21)
(-0.0304864 0.0387135 9.41439e-23)
(0.619771 0.0883131 -6.05601e-21)
(0.163383 0.0113143 1.31194e-20)
(0.954639 0.108949 -1.64833e-20)
(0.997592 0.000872055 4.86051e-21)
(0.989204 4.58104e-05 1.1005e-21)
(0.269432 0.0295923 -2.70713e-20)
(0.807309 0.00278983 0)
(-0.0187124 -0.0290842 1.75368e-20)
(-0.0309963 0.0323355 0)
(1.01846 0.0192099 -6.20065e-21)
(1.03053 0.0086914 2.21363e-20)
(0.0557103 0.0597134 1.27877e-20)
(1.02278 0.032325 -1.36611e-21)
(1.09646 0.0752682 6.43563e-21)
(1.04012 0.0199924 0)
(0.081899 0.00236248 3.53821e-20)
(1.01127 0.0052638 -1.24133e-22)
(0.938558 0.106777 1.1395e-20)
(1.00181 0.000889337 0)
(1.02537 0.00022847 7.79898e-21)
(0.279724 0.0325418 1.96657e-20)
(1.04966 0.0683269 6.15025e-21)
(0.715725 0.0976775 -9.2999e-21)
(0.552804 0.085068 -4.53717e-22)
(1.01778 0.00553297 -5.69769e-22)
(1.03928 0.00837633 7.18378e-21)
(0.449474 0.0652565 -1.35124e-20)
(1.02788 0.0747181 1.18373e-22)
(1.02455 0.0420826 1.95646e-21)
(0.998483 0.000903235 -1.12751e-21)
(1.01711 0.0159747 9.14742e-23)
(1.02396 0.00631711 -3.6678e-21)
(1.05097 0.0921039 0)
(0.519711 0.0853464 -6.75527e-21)
(0.931555 0.0154394 -5.77463e-22)
(1.03409 0.00763726 -2.56899e-21)
(1.02298 0.0133447 -1.39022e-20)
(-0.0777909 0.0190268 -3.09894e-20)
(0.999875 0.00133776 2.06269e-21)
(1.02369 0.0121014 0)
(0.649858 0.0870033 2.82233e-21)
(0.989467 0.00019388 -4.28252e-24)
(1.04994 0.0435473 -2.22512e-20)
(1.0092 0.00191559 0)
(1.10546 0.107835 8.00797e-21)
(1.01176 0.0123603 -1.82775e-21)
(1.02096 0.0228256 -4.88317e-22)
(0.465009 0.0739584 0)
(0.994673 0.000765677 -2.3896e-21)
(0.235012 0.0544507 0)
(1.06782 0.0251643 -1.93609e-20)
(0.848864 0.10364 -3.07463e-20)
(1.01918 0.00351507 1.00046e-20)
(1.03226 0.0226869 0)
(0.162648 0.03035 3.61816e-20)
(0.672447 0.00879312 2.31603e-21)
(0.487971 0.0773692 0)
(1.01579 0.00518755 0)
(0.873716 0.0378047 -1.21649e-21)
(1.01144 0.00160755 -1.40148e-22)
(1.03138 0.0169273 -5.75123e-21)
(0.717593 0.0946821 -1.46435e-20)
(0.996274 0.00157464 1.03136e-21)
(1.03462 0.00264852 2.46262e-20)
(1.02418 0.00192282 0)
(1.035 0.00303644 -2.29001e-20)
(0.493446 0.0772174 -2.16434e-20)
(1.01985 0.0194786 -2.60562e-21)
(1.05136 0.0308033 -1.02209e-20)
(1.03695 0.0899167 -1.28079e-21)
(0.990542 0.000264991 5.60562e-22)
(0.504726 0.0768511 2.06497e-20)
(1.01731 0.0180419 -2.13537e-21)
(0.0603774 0.0431342 2.04843e-21)
(0.99622 0.00137374 -3.43596e-21)
(1.02392 0.0577951 6.85643e-23)
(0.407873 0.0581007 -9.63598e-21)
(0.977383 0.109258 -1.80177e-20)
(0.780016 0.00176801 3.47993e-22)
(1.04734 0.0138701 0)
(0.532702 0.0826619 3.73726e-20)
(-0.0258456 0.0297325 0)
(0.532791 0.0759428 7.46078e-21)
(1.00037 0.00404885 -5.61846e-21)
(1.02184 0.0296745 0)
(1.0222 0.0263772 0)
(1.00506 0.00228253 -5.3753e-22)
(1.00458 0.00217652 5.90738e-22)
(1.01016 0.00763017 0)
(0.290246 0.0356283 2.31861e-20)
(0.845044 0.101762 8.38594e-21)
(1.0218 0.0256541 2.80543e-21)
(1.10588 0.0869746 0)
(1.03062 0.0214396 -9.82967e-21)
(1.02081 0.0221621 3.62678e-22)
(-0.0647946 0.00471695 2.9072e-20)
(1.12868 0.112458 0)
(1.04987 0.0301798 0)
(1.09025 0.0266384 2.141e-20)
(0.821963 0.0555981 0)
(0.791164 0.0991313 -2.03182e-20)
(0.995386 0.000956107 0)
(1.00041 0.00416446 2.83621e-21)
(0.849625 0.102621 0)
(1.0228 0.0317639 1.17172e-21)
(0.552581 0.0771407 -1.37898e-20)
(0.884829 0.10458 3.74181e-20)
(1.02716 0.0427793 -2.10548e-21)
(1.05408 0.0427652 0)
(0.988637 7.55044e-05 -1.00794e-21)
(0.848118 0.00529136 -8.94207e-23)
(0.988777 9.73183e-05 -3.65921e-22)
(0.99734 0.00085914 -2.34949e-21)
(1.09153 0.0746295 -2.4768e-20)
(0.258818 0.0313808 1.41001e-20)
(0.988492 7.39427e-05 -3.36731e-22)
(1.01186 0.0122542 0)
(0.994599 0.000776488 -4.29842e-21)
(0.994383 0.000956816 4.04557e-22)
(1.08716 0.0846129 1.25927e-20)
(1.00156 0.000867124 0)
(1.03123 0.00125006 0)
(0.433371 0.063575 -1.37177e-20)
(0.423125 0.0720006 6.31713e-21)
(1.01566 0.0635032 -4.1397e-23)
(0.830791 0.00639276 1.24515e-23)
(0.243363 0.0245463 2.48402e-20)
(1.01136 0.00679375 0)
(1.04634 0.0529175 0)
(0.210559 0.028152 7.98825e-21)
(1.03436 0.0337643 0)
(1.06948 0.0137328 0)
(0.443891 0.0798402 -1.20905e-20)
(0.998571 0.0010538 -6.19283e-21)
(1.10158 0.105214 2.98351e-20)
(0.841853 0.102084 -7.80698e-21)
(1.07588 0.0655521 3.06942e-20)
(0.997883 0.00297302 9.33689e-22)
(1.02552 0.00351146 6.32324e-21)
(1.0203 0.0140711 -9.09823e-23)
(1.02698 0.0254318 0)
(1.06858 0.103583 -6.59108e-22)
(1.02044 0.0144371 -2.13277e-22)
(1.02224 0.0260931 3.4561e-21)
(0.779836 0.00185339 8.39443e-23)
(0.678876 0.00592457 1.15307e-21)
(1.0431 0.0695649 -4.90842e-21)
(1.08802 0.0859995 -4.41044e-20)
(0.995712 0.00105769 -1.04565e-21)
(0.742451 0.100295 0)
(1.02093 0.0045714 0)
(1.03879 0.0524914 0)
(0.125334 0.0305141 0)
(0.30268 0.0617847 -2.15887e-21)
(1.01205 0.00672909 2.67329e-21)
(1.13215 0.0810977 0)
(0.0506122 0.008241 6.31662e-20)
(1.00475 0.00121676 -1.13308e-22)
(1.04012 0.0400841 0)
(1.03766 0.0368443 -1.83342e-20)
(1.04419 0.0263535 -1.28041e-20)
(0.952841 0.10846 1.74522e-20)
(0.744387 0.100238 0)
(1.08803 0.0816339 -2.56493e-20)
(1.01837 0.00546025 -8.69128e-23)
(1.00268 0.000927728 -1.8754e-22)
(1.04211 0.0185482 1.34656e-20)
(0.987787 8.33543e-05 -7.45433e-22)
(0.99126 0.000182116 2.23595e-21)
(1.0642 0.023894 -2.41946e-20)
(1.02034 0.0201417 1.38518e-22)
(0.478324 0.0145341 2.08863e-21)
(-0.0567071 -0.00180702 0)
(1.01265 0.00729477 0)
(-0.0336 0.0255151 0)
(0.528596 0.0274185 -3.59217e-21)
(0.226005 0.0676176 0)
(1.07912 0.0663189 0)
(1.01082 0.00160773 1.30502e-22)
(0.349429 0.0668883 4.41867e-21)
(0.795349 0.0995611 3.09133e-20)
(-0.0706299 0.00827781 -1.77315e-20)
(1.00911 0.0209884 -6.41815e-22)
(1.08257 0.0243074 -2.15771e-20)
(1.0548 0.091144 0)
(0.393786 0.0582248 0)
(1.05631 0.0513631 1.54563e-20)
(0.988898 -4.37441e-05 -6.15985e-22)
(1.02648 0.0245532 0)
(0.988791 6.22514e-05 0)
(0.933105 0.110622 0)
(1.05169 0.0727621 1.48335e-20)
(1.01734 0.0179334 2.72437e-21)
(1.02673 0.0415779 3.45279e-21)
(-0.0857399 0.0179665 -1.08742e-20)
(0.710923 0.100372 0)